INSANE! Membrane UpperLeaflet>loPI:POPI:DPPI:PYPI:ERGO=80.0:5.0:3.0:2.0:10.0 LowerLeaflet>loPI:POPI:DPPI:PYPI:ERGO=80.0:5.0:3.0:2.0:10.0
49019
    1loPI    C1    1   9.230  15.210  11.610 -0.0547 -0.3398 -0.0348
    1loPI    C2    2   9.531  15.144  11.866  0.0392  0.1956  0.0039
    1loPI    C3    3   9.167  15.234  12.004  0.0237  0.2131 -0.0479
    1loPI   PO4    4   9.347  15.314  11.407  0.1289 -0.2090  0.0578
    1loPI   GL1    5   9.505  15.389  11.028  0.0680  0.4470  0.4120
    1loPI   GL2    6   9.247  15.494  10.875  0.1183  0.3719 -0.3926
    1loPI   C1A    7   9.665  15.244  10.660 -0.1418  0.0204  0.0713
    1loPI   C2A    8   9.721  15.174  10.261 -0.4851  0.0911  0.0568
    1loPI   C3A    9   9.679  15.160   9.822  0.2564  0.3810 -0.1695
    1loPI   C4A   10   9.718  15.166   9.397  0.1500 -0.2158 -0.2199
    1loPI   C5A   11   9.654  15.103   8.895 -0.0868  0.0483 -0.1230
    1loPI   C6A   12   9.860  15.108   8.522  0.0008 -0.1196 -0.2832
    1loPI   C1B   13   9.315  15.517  10.478  0.1407  0.1107  0.1569
    1loPI   C2B   14   9.319  15.513  10.047  0.0420 -0.0864 -0.1342
    1loPI   C3B   15   9.258  15.556   9.665  0.0462  0.1665  0.1080
    1loPI   C4B   16   9.342  15.587   9.151  0.1708  0.2171 -0.2158
    2loPI    C1   17  16.024  17.091  11.632  0.0187  0.0859  0.1226
    2loPI    C2   18  16.418  17.028  11.600 -0.0131  0.0445 -0.2251
    2loPI    C3   19  16.263  17.152  11.947  0.2684 -0.2036 -0.0053
    2loPI   PO4   20  15.959  17.027  11.261  0.0161 -0.0824 -0.0592
    2loPI   GL1   21  16.174  17.017  10.956  0.0195 -0.1023 -0.0577
    2loPI   GL2   22  16.050  16.791  10.743 -0.0501  0.1820 -0.0301
    2loPI   C1A   23  16.212  17.210  10.497 -0.2411 -0.1565 -0.0182
    2loPI   C2A   24  16.163  17.135  10.016  0.1604  0.0392 -0.0242
    2loPI   C3A   25  16.149  17.077   9.651  0.0116  0.0143  0.2209
    2loPI   C4A   26  16.132  17.171   9.210 -0.1390  0.1071 -0.1070
    2loPI   C5A   27  16.024  17.362   8.792 -0.0874 -0.0504 -0.1104
    2loPI   C6A   28  16.136  17.348   8.342  0.0121 -0.2961 -0.0515
    2loPI   C1B   29  15.991  16.645  10.255 -0.0409  0.1437  0.2148
    2loPI   C2B   30  16.005  16.582   9.850  0.0474  0.3578  0.3276
    2loPI   C3B   31  16.014  16.615   9.433 -0.0046 -0.4004  0.1503
    2loPI   C4B   32  16.146  16.672   9.063 -0.0701 -0.0320  0.1666
    3loPI    C1   33  11.780   1.279  11.663 -0.1288 -0.0388 -0.0050
    3loPI    C2   34  11.576   1.419  11.977 -0.0524 -0.0833  0.0647
    3loPI    C3   35  11.876   1.161  12.033  0.0046 -0.0399 -0.0398
    3loPI   PO4   36  11.625   1.239  11.501  0.0542 -0.1829  0.0592
    3loPI   GL1   37  11.570   1.147  11.065 -0.2039  0.0664 -0.0391
    3loPI   GL2   38  11.397   0.939  10.903 -0.2078 -0.2405 -0.0845
    3loPI   C1A   39  11.477   1.373  10.690  0.2960 -0.2741  0.0025
    3loPI   C2A   40  11.556   1.434  10.228  0.0850  0.2660  0.1393
    3loPI   C3A   41  11.496   1.468   9.795 -0.1990  0.5103  0.0610
    3loPI   C4A   42  11.600   1.502   9.384  0.4419 -0.2519  0.0935
    3loPI   C5A   43  11.631   1.367   8.918 -0.0674 -0.4255 -0.0716
    3loPI   C6A   44  11.811   1.081   8.654  0.1200 -0.0026  0.0927
    3loPI   C1B   45  11.349   0.936  10.419  0.0407  0.2514 -0.2732
    3loPI   C2B   46  11.430   1.031   9.955  0.0822  0.2002  0.0426
    3loPI   C3B   47  11.483   0.962   9.561  0.1517 -0.1080 -0.2970
    3loPI   C4B   48  11.489   0.989   9.116 -0.2122 -0.1441  0.0661
    4loPI    C1   49   3.261  12.713  11.617 -0.0032  0.2122 -0.0637
    4loPI    C2   50   3.208  12.824  11.998  0.0843 -0.0279  0.0202
    4loPI    C3   51   2.964  12.553  11.833  0.2068 -0.1186 -0.0132
    4loPI   PO4   52   3.380  12.829  11.427  0.1258  0.0792  0.3361
    4loPI   GL1   53   3.335  12.790  10.976 -0.1107  0.0785 -0.0659
    4loPI   GL2   54   3.574  12.584  10.905 -0.1033  0.0012 -0.4954
    4loPI   C1A   55   3.170  12.784  10.595  0.0672  0.0691  0.2099
    4loPI   C2A   56   3.147  12.843  10.204 -0.0889 -0.3029 -0.2200
    4loPI   C3A   57   3.050  12.707   9.710 -0.1019  0.5513  0.1950
    4loPI   C4A   58   3.080  12.877   9.246  0.2192  0.2193 -0.1679
    4loPI   C5A   59   2.831  12.765   8.790  0.0238 -0.0022  0.0983
    4loPI   C6A   60   2.515  12.760   8.435  0.1044  0.0568 -0.2347
    4loPI   C1B   61   3.529  12.462  10.515 -0.1446 -0.1555  0.1297
    4loPI   C2B   62   3.398  12.441  10.035  0.0929  0.1011 -0.1071
    4loPI   C3B   63   3.471  12.476   9.550 -0.3110  0.1466 -0.3985
    4loPI   C4B   64   3.528  12.546   9.033  0.0150 -0.2238  0.0270
    5loPI    C1   65  14.007   9.184  11.595 -0.0751 -0.0000 -0.0634
    5loPI    C2   66  14.043   9.507  11.362 -0.0514  0.1407  0.1326
    5loPI    C3   67  14.053   9.545  11.760 -0.0211 -0.1058  0.1572
    5loPI   PO4   68  13.772   9.060  11.397  0.2314  0.2642 -0.1293
    5loPI   GL1   69  13.748   9.140  10.990  0.1443  0.0951 -0.1297
    5loPI   GL2   70  13.844   8.792  10.920  0.1195 -0.2312  0.3225
    5loPI   C1A   71  13.849   9.261  10.601  0.0710  0.3476  0.0562
    5loPI   C2A   72  13.826   9.314  10.164  0.1188  0.0733  0.0192
    5loPI   C3A   73  13.738   9.314   9.617 -0.2942  0.2758 -0.1649
    5loPI   C4A   74  13.715   9.378   9.196  0.2446  0.0483  0.0649
    5loPI   C5A   75  13.343   9.394   8.952 -0.0600 -0.1939 -0.0506
    5loPI   C6A   76  13.107   9.111   8.810  0.2546  0.1189 -0.2372
    5loPI   C1B   77  13.716   8.888  10.370  0.0789  0.0450  0.0190
    5loPI   C2B   78  13.672   8.839  10.043  0.3877  0.1175  0.1694
    5loPI   C3B   79  13.582   8.850   9.601 -0.0736  0.1350  0.2162
    5loPI   C4B   80  13.445   8.941   9.169  0.1141  0.0574  0.1758
    6loPI    C1   81  15.952   7.321  11.352 -0.2495  0.0093 -0.0571
    6loPI    C2   82  15.698   7.066  11.526 -0.0376 -0.1723 -0.0099
    6loPI    C3   83  15.917   7.314  11.751 -0.1484 -0.0385 -0.0488
    6loPI   PO4   84  15.957   7.338  11.100  0.0843 -0.0213  0.1643
    6loPI   GL1   85  15.717   7.553  10.704  0.1617 -0.0816 -0.0899
    6loPI   GL2   86  15.719   7.324  10.604  0.2250 -0.0618 -0.2152
    6loPI   C1A   87  15.806   7.953  10.576  0.0464  0.0747 -0.0779
    6loPI   C2A   88  15.833   8.003  10.217  0.1891 -0.2175  0.2648
    6loPI   C3A   89  15.708   8.058   9.830  0.0085  0.3016  0.3906
    6loPI   C4A   90  15.773   8.086   9.524 -0.3995 -0.2317 -0.0294
    6loPI   C5A   91  15.888   8.281   9.102  0.0747 -0.1858  0.0480
    6loPI   C6A   92  15.876   8.654   8.848 -0.2560  0.0154  0.0030
    6loPI   C1B   93  15.695   7.468  10.236  0.0370  0.0003  0.1290
    6loPI   C2B   94  15.579   7.494   9.844 -0.0152 -0.0823 -0.2142
    6loPI   C3B   95  15.574   7.288   9.475 -0.1072  0.1102 -0.0517
    6loPI   C4B   96  15.530   6.890   9.156  0.0609  0.2560  0.1015
    7loPI    C1   97   9.444  13.806  11.439 -0.2017  0.0367 -0.0633
    7loPI    C2   98   9.646  13.536  11.654 -0.2545 -0.2264 -0.3372
    7loPI    C3   99   9.389  13.784  11.835  0.0381 -0.1345 -0.0375
    7loPI   PO4  100   9.627  13.913  11.314 -0.2505  0.2964 -0.0151
    7loPI   GL1  101   9.749  14.022  10.903 -0.0393 -0.2078 -0.0552
    7loPI   GL2  102   9.667  14.265  10.798 -0.1621 -0.1091 -0.1951
    7loPI   C1A  103   9.837  13.744  10.556 -0.2076 -0.0099  0.1245
    7loPI   C2A  104   9.825  13.759  10.141  0.0270  0.1001  0.2588
    7loPI   C3A  105   9.777  13.756   9.742 -0.2992 -0.3201  0.0585
    7loPI   C4A  106   9.783  13.824   9.353  0.1705 -0.0139  0.0404
    7loPI   C5A  107   9.781  13.904   8.869  0.1236  0.2458 -0.0551
    7loPI   C6A  108   9.828  14.013   8.450  0.0883  0.0852 -0.2521
    7loPI   C1B  109   9.875  14.317  10.490 -0.0579  0.0400 -0.0785
    7loPI   C2B  110   9.965  14.199  10.137  0.0934 -0.1095 -0.3590
    7loPI   C3B  111  10.005  14.324   9.698  0.0076  0.2151 -0.2351
    7loPI   C4B  112   9.928  14.355   9.266  0.0175 -0.1488  0.2243
    8loPI    C1  113  15.228   6.420  11.173  0.2361  0.0600  0.1191
    8loPI    C2  114  15.107   6.756  10.992 -0.0064 -0.1368 -0.0926
    8loPI    C3  115  15.238   6.768  11.369 -0.4048  0.1344  0.0435
    8loPI   PO4  116  15.365   6.340  10.989 -0.2131 -0.0301  0.2752
    8loPI   GL1  117  15.321   6.056  10.629  0.2075  0.2510  0.0108
    8loPI   GL2  118  15.513   5.902  10.701  0.1437 -0.0006 -0.1719
    8loPI   C1A  119  15.090   5.950  10.198 -0.0123 -0.1291 -0.2654
    8loPI   C2A  120  15.261   5.748   9.833 -0.3344 -0.3698 -0.0486
    8loPI   C3A  121  15.373   5.784   9.380  0.2399 -0.2847  0.1541
    8loPI   C4A  122  15.224   5.909   9.057  0.2504 -0.0624  0.0505
    8loPI   C5A  123  15.325   6.268   8.805 -0.0609 -0.2800  0.0080
    8loPI   C6A  124  15.595   6.580   8.600  0.2920  0.0806  0.0474
    8loPI   C1B  125  15.747   6.096  10.400 -0.3784  0.1475 -0.0372
    8loPI   C2B  126  15.723   6.089  10.025 -0.1918  0.3445 -0.0817
    8loPI   C3B  127  15.705   5.974   9.693 -0.2411 -0.2961 -0.0657
    8loPI   C4B  128  15.903   6.015   9.341  0.1458 -0.1398  0.1557
    9loPI    C1  129   7.517   4.366  11.446 -0.1926 -0.1566  0.1530
    9loPI    C2  130   7.273   4.301  11.135 -0.0376 -0.2156  0.0425
    9loPI    C3  131   7.195   4.597  11.393  0.0654  0.1144 -0.2971
    9loPI   PO4  132   7.810   4.391  11.451 -0.3529  0.3346  0.1696
    9loPI   GL1  133   7.831   4.142  11.098  0.1261  0.1620 -0.2711
    9loPI   GL2  134   7.990   4.425  10.981 -0.1139  0.2060  0.0174
    9loPI   C1A  135   7.882   3.806  10.717 -0.2270 -0.3124 -0.2530
    9loPI   C2A  136   7.883   3.691  10.310  0.0438 -0.1549  0.0804
    9loPI   C3A  137   7.873   3.732   9.741  0.0869  0.1076  0.2163
    9loPI   C4A  138   7.928   3.739   9.312  0.1458  0.1135 -0.0283
    9loPI   C5A  139   7.950   3.974   8.863 -0.0476 -0.0864 -0.0522
    9loPI   C6A  140   7.675   3.947   8.509  0.2803  0.1174  0.1241
    9loPI   C1B  141   8.035   4.288  10.653 -0.2645  0.1901 -0.0660
    9loPI   C2B  142   8.030   4.171  10.361  0.0058  0.0034  0.1481
    9loPI   C3B  143   7.944   4.149   9.996  0.1140 -0.0186  0.3206
    9loPI   C4B  144   7.944   4.241   9.610  0.0167 -0.1629 -0.4537
   10loPI    C1  145   0.070   9.969  11.572 -0.2188  0.2421 -0.1217
   10loPI    C2  146   0.249  10.260  11.781  0.1493 -0.1390  0.1119
   10loPI    C3  147   0.161   9.913  11.958  0.1563 -0.3477 -0.2832
   10loPI   PO4  148   0.155   9.940  11.367  0.0872  0.0141  0.0627
   10loPI   GL1  149   0.139  10.070  10.956  0.2306  0.0282  0.3664
   10loPI   GL2  150   0.123  10.380  10.911  0.1967 -0.0637 -0.1427
   10loPI   C1A  151   0.070  10.079  10.493 -0.2122  0.2963  0.1302
   10loPI   C2A  152  -0.005  10.036  10.062  0.3329  0.1284 -0.1578
   10loPI   C3A  153   0.071   9.950   9.650  0.0824  0.0027  0.1922
   10loPI   C4A  154   0.035  10.035   9.206 -0.0161  0.2089  0.1801
   10loPI   C5A  155   0.025  10.271   8.872 -0.3084 -0.4236  0.2477
   10loPI   C6A  156   0.044  10.399   8.502 -0.1779 -0.1936  0.1680
   10loPI   C1B  157   0.108  10.580  10.437  0.0091 -0.0243  0.0684
   10loPI   C2B  158   0.140  10.574   9.985 -0.0818  0.0235  0.2024
   10loPI   C3B  159   0.189  10.526   9.469  0.0190  0.0361 -0.1879
   10loPI   C4B  160   0.335  10.571   9.080 -0.1801  0.1296 -0.3820
   11loPI    C1  161   0.684  13.194  11.494  0.1120 -0.1712 -0.1885
   11loPI    C2  162   0.569  12.847  11.656  0.0697 -0.1237 -0.1159
   11loPI    C3  163   0.590  13.175  11.882  0.1749 -0.0931 -0.1694
   11loPI   PO4  164   0.796  13.150  11.320  0.0149  0.0291  0.5247
   11loPI   GL1  165   1.010  13.105  10.923 -0.1691  0.3381  0.1209
   11loPI   GL2  166   1.367  13.189  10.804  0.0705  0.1478 -0.0965
   11loPI   C1A  167   0.813  13.098  10.556 -0.0590  0.0438  0.0959
   11loPI   C2A  168   0.797  13.039  10.098 -0.1125  0.0451  0.3103
   11loPI   C3A  169   0.878  13.045   9.668 -0.0365 -0.0343 -0.1150
   11loPI   C4A  170   0.727  13.036   9.243  0.1441  0.0053 -0.0307
   11loPI   C5A  171   0.480  12.712   8.942  0.1909  0.0487  0.1433
   11loPI   C6A  172   0.040  12.791   8.892  0.0875 -0.0449 -0.1160
   11loPI   C1B  173   1.298  13.177  10.324  0.1788 -0.1349 -0.0348
   11loPI   C2B  174   1.433  13.195   9.935 -0.0466  0.3888 -0.1841
   11loPI   C3B  175   1.329  13.178   9.523  0.2014  0.0966 -0.3675
   11loPI   C4B  176   1.231  12.922   9.161  0.1978  0.1325  0.0373
   12loPI    C1  177  14.778  11.990  11.438  0.1682  0.0848  0.2076
   12loPI    C2  178  14.399  12.104  11.495  0.1364 -0.0118  0.1925
   12loPI    C3  179  14.621  11.984  11.806  0.1101 -0.0910  0.1808
   12loPI   PO4  180  14.736  11.793  11.231  0.1196 -0.3701 -0.0241
   12loPI   GL1  181  14.967  12.042  10.853  0.0398 -0.1553  0.1469
   12loPI   GL2  182  15.270  12.018  10.847  0.1209  0.1723  0.0929
   12loPI   C1A  183  14.917  11.978  10.458  0.2017 -0.2479 -0.0371
   12loPI   C2A  184  15.028  12.047  10.015  0.2110 -0.0824 -0.1189
   12loPI   C3A  185  15.003  12.072   9.573 -0.1438 -0.3843 -0.0027
   12loPI   C4A  186  14.931  12.118   9.155  0.0776 -0.0830  0.1054
   12loPI   C5A  187  14.664  12.281   8.872  0.1374  0.1010  0.0739
   12loPI   C6A  188  14.552  12.427   8.431 -0.0618  0.1322 -0.1463
   12loPI   C1B  189  15.449  12.155  10.507  0.1290  0.0318 -0.1500
   12loPI   C2B  190  15.512  12.159  10.041 -0.3276  0.3980 -0.3125
   12loPI   C3B  191  15.491  12.139   9.634 -0.2053  0.1232 -0.1067
   12loPI   C4B  192  15.478  12.127   9.203  0.0396  0.0865 -0.0059
   13loPI    C1  193  15.143   8.496  11.501 -0.0381 -0.0381  0.2311
   13loPI    C2  194  15.436   8.396  11.753  0.0555  0.0324  0.1509
   13loPI    C3  195  15.251   8.748  11.793  0.1110  0.0693  0.0850
   13loPI   PO4  196  15.242   8.424  11.269  0.3093 -0.2172  0.0273
   13loPI   GL1  197  15.340   8.446  10.874  0.1530  0.0665  0.2615
   13loPI   GL2  198  15.637   8.520  10.968 -0.3180 -0.0970 -0.1881
   13loPI   C1A  199  15.296   8.711  10.531  0.2430 -0.1622 -0.0172
   13loPI   C2A  200  15.197   8.829  10.109 -0.1501  0.0886 -0.0092
   13loPI   C3A  201  15.067   8.783   9.713 -0.0562  0.0290  0.0631
   13loPI   C4A  202  14.947   8.469   9.374  0.0104  0.1514  0.0303
   13loPI   C5A  203  14.854   8.602   8.904  0.0198 -0.1811  0.1377
   13loPI   C6A  204  14.494   8.611   8.554  0.3158 -0.3891 -0.2212
   13loPI   C1B  205  15.690   8.461  10.559 -0.0801 -0.0579 -0.0699
   13loPI   C2B  206  15.865   8.494  10.115 -0.2275  0.0391 -0.1272
   13loPI   C3B  207  16.042   8.547   9.716  0.1445 -0.0482  0.0617
   13loPI   C4B  208  16.062   8.645   9.372 -0.0007 -0.0809 -0.2145
   14loPI    C1  209  15.931   0.507  11.020  0.1875  0.0141 -0.0194
   14loPI    C2  210  16.291   0.335  11.051  0.1107 -0.1172  0.1545
   14loPI    C3  211  16.126   0.514  11.369  0.0490 -0.0033  0.0592
   14loPI   PO4  212  15.954   0.619  10.829  0.0970  0.0687 -0.1526
   14loPI   GL1  213  15.841   0.545  10.477  0.0793  0.1353 -0.0448
   14loPI   GL2  214  15.887   0.794  10.271 -0.0513  0.0560 -0.1215
   14loPI   C1A  215  15.774   0.324  10.118  0.1160 -0.0746  0.0140
   14loPI   C2A  216  15.831   0.315   9.713  0.3457  0.1429  0.1390
   14loPI   C3A  217  16.015   0.337   9.388 -0.2854  0.1079 -0.0506
   14loPI   C4A  218  16.035   0.219   8.909 -0.0894  0.0773  0.1983
   14loPI   C5A  219  15.844   0.207   8.492  0.0203  0.2237 -0.5155
   14loPI   C6A  220  15.764   0.583   8.243 -0.3276  0.1402 -0.0411
   14loPI   C1B  221  15.937   0.773   9.901  0.1079  0.3865 -0.1371
   14loPI   C2B  222  16.083   0.881   9.544  0.0708 -0.0506 -0.1232
   14loPI   C3B  223  16.209   0.865   9.087  0.1961 -0.2225  0.1030
   14loPI   C4B  224  16.003   0.677   8.707 -0.2205 -0.1183 -0.0189
   15loPI    C1  225  12.586  12.657  11.653  0.1818  0.0938  0.0167
   15loPI    C2  226  12.372  12.874  11.912 -0.2152 -0.0604 -0.1747
   15loPI    C3  227  12.433  12.484  11.979  0.2682  0.0435  0.0310
   15loPI   PO4  228  12.497  12.895  11.417 -0.0643  0.2408  0.1293
   15loPI   GL1  229  12.484  13.203  11.105 -0.0706  0.0557 -0.0534
   15loPI   GL2  230  12.710  13.474  10.982  0.4415 -0.0567  0.1739
   15loPI   C1A  231  12.326  13.254  10.721 -0.2330 -0.1987  0.0088
   15loPI   C2A  232  12.403  13.163  10.330 -0.0477  0.1553 -0.1241
   15loPI   C3A  233  12.476  13.177   9.939  0.0154  0.0709  0.0964
   15loPI   C4A  234  12.497  13.159   9.459 -0.4150 -0.0312  0.0071
   15loPI   C5A  235  12.558  13.039   9.094  0.0551  0.0598 -0.0374
   15loPI   C6A  236  12.350  13.110   8.703 -0.0996  0.3534  0.1275
   15loPI   C1B  237  12.921  13.355  10.667  0.1858 -0.0436  0.0305
   15loPI   C2B  238  12.930  13.273  10.224 -0.1700 -0.0572  0.2724
   15loPI   C3B  239  12.879  13.386   9.718 -0.0532  0.1040  0.0755
   15loPI   C4B  240  12.986  13.202   9.354  0.0561  0.2804  0.2257
   16loPI    C1  241   2.466  13.364  11.653 -0.1680  0.0912 -0.2907
   16loPI    C2  242   2.756  13.542  11.863 -0.0185 -0.2915 -0.1638
   16loPI    C3  243   2.397  13.715  11.830  0.0949 -0.0135  0.0292
   16loPI   PO4  244   2.561  13.307  11.385 -0.2543  0.2083  0.1913
   16loPI   GL1  245   2.507  13.004  11.091 -0.0845 -0.0017  0.1492
   16loPI   GL2  246   2.741  12.747  10.971 -0.1413 -0.0785  0.1492
   16loPI   C1A  247   2.341  13.124  10.689  0.0947 -0.2596  0.3474
   16loPI   C2A  248   2.238  12.981  10.353 -0.2330  0.0088 -0.0225
   16loPI   C3A  249   2.211  12.974   9.951  0.0108 -0.0048  0.0852
   16loPI   C4A  250   2.240  12.999   9.574  0.0178  0.2986  0.3200
   16loPI   C5A  251   2.187  12.941   9.100 -0.0075  0.1639  0.0186
   16loPI   C6A  252   2.277  13.105   8.730 -0.0423 -0.1416  0.0405
   16loPI   C1B  253   2.685  12.655  10.519 -0.0498  0.0913  0.1065
   16loPI   C2B  254   2.705  12.671  10.120  0.0844  0.2038 -0.0666
   16loPI   C3B  255   2.554  12.625   9.757 -0.1598  0.1343 -0.1266
   16loPI   C4B  256   2.615  12.677   9.247 -0.1435 -0.1175  0.0692
   17loPI    C1  257  17.185  17.221  11.616  0.0071 -0.0309  0.0655
   17loPI    C2  258  17.478  17.029  11.809  0.0087 -0.1535 -0.0578
   17loPI    C3  259  17.464  17.429  11.813  0.0599 -0.1529  0.1203
   17loPI   PO4  260  17.202  17.081  11.333  0.2598  0.1500  0.0792
   17loPI   GL1  261  17.124  16.915  10.880  0.0470  0.0618  0.1068
   17loPI   GL2  262  17.409  16.666  10.876  0.1249 -0.1187  0.0802
   17loPI   C1A  263  17.083  16.821  10.521  0.2902 -0.2430 -0.1046
   17loPI   C2A  264  17.005  16.889  10.034 -0.0134  0.1107 -0.0884
   17loPI   C3A  265  17.127  16.894   9.665 -0.1090  0.0547  0.5471
   17loPI   C4A  266  17.104  16.914   9.167  0.3573 -0.0382 -0.5323
   17loPI   C5A  267  17.169  16.806   8.692 -0.0080 -0.1194  0.3517
   17loPI   C6A  268  17.194  16.841   8.285 -0.0305  0.0354  0.3624
   17loPI   C1B  269  17.442  16.512  10.499  0.0910 -0.0323 -0.0153
   17loPI   C2B  270  17.431  16.478  10.027  0.0016 -0.1016 -0.0508
   17loPI   C3B  271  17.393  16.526   9.508 -0.0046 -0.0378 -0.3120
   17loPI   C4B  272  17.479  16.557   9.124 -0.1382  0.2972 -0.0588
   18loPI    C1  273   6.785  13.619  11.650  0.1993 -0.1121  0.0829
   18loPI    C2  274   6.899  13.969  11.808 -0.1055  0.0512 -0.0517
   18loPI    C3  275   7.043  13.627  11.956  0.0335  0.2239  0.2192
   18loPI   PO4  276   6.828  13.584  11.409 -0.0335  0.1757 -0.3124
   18loPI   GL1  277   6.964  13.616  11.044 -0.0358  0.1832 -0.0264
   18loPI   GL2  278   7.225  13.737  11.047 -0.2259  0.1816  0.5304
   18loPI   C1A  279   7.056  13.429  10.644  0.2180  0.0693  0.1092
   18loPI   C2A  280   7.034  13.460  10.171 -0.0932 -0.0778 -0.1577
   18loPI   C3A  281   6.957  13.488   9.810  0.0612  0.0848 -0.0227
   18loPI   C4A  282   6.993  13.374   9.292  0.1121 -0.0215  0.0505
   18loPI   C5A  283   6.944  13.382   8.770  0.2714 -0.0449  0.1602
   18loPI   C6A  284   6.748  13.070   8.493 -0.1383 -0.1034 -0.0663
   18loPI   C1B  285   7.172  13.877  10.669  0.0501 -0.0962 -0.0719
   18loPI   C2B  286   7.154  13.972  10.290  0.0315  0.0377  0.0718
   18loPI   C3B  287   7.039  13.975   9.945  0.1807 -0.0736 -0.0187
   18loPI   C4B  288   7.062  13.990   9.465 -0.2183  0.0919  0.0141
   19loPI    C1  289   5.551  13.786  11.549  0.2752 -0.0838 -0.0393
   19loPI    C2  290   5.711  13.901  11.897  0.0743 -0.0450  0.0413
   19loPI    C3  291   5.800  13.542  11.745  0.3847  0.0503 -0.0093
   19loPI   PO4  292   5.598  13.844  11.335 -0.1835 -0.0117  0.0336
   19loPI   GL1  293   5.245  14.032  11.128 -0.0738 -0.0386  0.0011
   19loPI   GL2  294   5.237  13.832  10.927 -0.0241 -0.1188  0.2491
   19loPI   C1A  295   5.286  14.299  10.747  0.0377 -0.1112  0.0931
   19loPI   C2A  296   5.261  14.422  10.283  0.1099 -0.0766  0.2906
   19loPI   C3A  297   5.363  14.407   9.834 -0.1407  0.1604  0.0222
   19loPI   C4A  298   5.393  14.376   9.446  0.0465 -0.1181  0.1447
   19loPI   C5A  299   5.337  14.590   9.050  0.2800  0.1511 -0.1315
   19loPI   C6A  300   5.245  14.857   8.570  0.1067  0.0323  0.0529
   19loPI   C1B  301   5.208  13.903  10.493  0.1168 -0.0060  0.0984
   19loPI   C2B  302   5.225  13.937  10.129 -0.0260  0.3457  0.3146
   19loPI   C3B  303   5.278  13.910   9.727  0.0350 -0.1715 -0.1761
   19loPI   C4B  304   5.155  13.828   9.295  0.0550 -0.0823 -0.0374
   20loPI    C1  305   1.138   2.254  11.189 -0.0607 -0.1198  0.0391
   20loPI    C2  306   1.385   2.387  11.474  0.2574 -0.3814 -0.1070
   20loPI    C3  307   1.104   2.116  11.563 -0.0073 -0.0583  0.0666
   20loPI   PO4  308   1.087   2.378  11.047  0.1041  0.0171 -0.2600
   20loPI   GL1  309   1.200   2.487  10.723 -0.0012  0.2536 -0.1057
   20loPI   GL2  310   1.443   2.576  10.615 -0.0263 -0.2019 -0.1655
   20loPI   C1A  311   1.018   2.586  10.335 -0.0665  0.2199 -0.0235
   20loPI   C2A  312   1.182   2.648   9.977  0.1314 -0.0132  0.0697
   20loPI   C3A  313   1.104   2.639   9.560 -0.1761  0.2338  0.2126
   20loPI   C4A  314   1.255   2.655   9.064 -0.0933  0.0500  0.0143
   20loPI   C5A  315   1.476   2.706   8.704 -0.1841  0.1313  0.0427
   20loPI   C6A  316   1.370   3.019   8.383 -0.4201 -0.0871 -0.0617
   20loPI   C1B  317   1.573   2.723  10.273  0.0622  0.2942  0.0753
   20loPI   C2B  318   1.676   2.783   9.911 -0.1433  0.1585 -0.0134
   20loPI   C3B  319   1.608   2.777   9.494 -0.2453  0.0366  0.0969
   20loPI   C4B  320   1.753   2.775   9.088 -0.3438 -0.0179  0.0117
   21loPI    C1  321   8.662  11.358  11.464 -0.0543  0.0705 -0.1297
   21loPI    C2  322   8.881  11.587  11.708 -0.1090  0.1686 -0.1721
   21loPI    C3  323   8.591  11.356  11.858  0.1402 -0.1002 -0.0937
   21loPI   PO4  324   8.912  11.322  11.309 -0.0182  0.0073  0.1154
   21loPI   GL1  325   9.003  11.291  10.901 -0.0220  0.3370  0.0891
   21loPI   GL2  326   9.305  11.647  10.702  0.2698  0.4683 -0.0360
   21loPI   C1A  327   9.041  11.241  10.477  0.1025  0.6952 -0.0092
   21loPI   C2A  328   9.165  11.208  10.091  0.0245  0.2170  0.0595
   21loPI   C3A  329   9.253  11.150   9.616  0.0767  0.0443 -0.0039
   21loPI   C4A  330   9.272  11.228   9.191 -0.1807 -0.0575 -0.2866
   21loPI   C5A  331   9.387  11.033   8.831  0.1844 -0.1656 -0.0705
   21loPI   C6A  332   9.337  11.047   8.444 -0.0660 -0.2647  0.3922
   21loPI   C1B  333   9.208  11.765  10.363 -0.0379  0.1519 -0.2038
   21loPI   C2B  334   9.284  11.739   9.956 -0.0425 -0.0818 -0.1185
   21loPI   C3B  335   9.313  11.739   9.452 -0.0413  0.2678 -0.0802
   21loPI   C4B  336   9.232  11.736   9.083 -0.2113 -0.1938 -0.1128
   22loPI    C1  337  15.546  14.431  11.419 -0.1320 -0.2612  0.3696
   22loPI    C2  338  15.408  14.606  11.751 -0.0386  0.0703  0.2384
   22loPI    C3  339  15.763  14.714  11.601  0.0136 -0.2243  0.1433
   22loPI   PO4  340  15.364  14.485  11.239  0.0931  0.1700 -0.2755
   22loPI   GL1  341  15.194  14.362  10.817  0.1112 -0.2784  0.0723
   22loPI   GL2  342  15.339  14.557  10.696  0.4466 -0.1992 -0.1990
   22loPI   C1A  343  14.975  14.306  10.387 -0.0839  0.0014 -0.1886
   22loPI   C2A  344  15.016  14.436   9.997  0.3535 -0.0327  0.0081
   22loPI   C3A  345  15.094  14.394   9.593 -0.2193  0.2827 -0.0627
   22loPI   C4A  346  15.107  14.385   9.175  0.0492 -0.0693  0.0229
   22loPI   C5A  347  14.888  14.599   8.762  0.1237 -0.0841 -0.1386
   22loPI   C6A  348  14.847  14.714   8.331 -0.1552 -0.0014  0.1617
   22loPI   C1B  349  15.451  14.463  10.273 -0.1539 -0.0320  0.3227
   22loPI   C2B  350  15.469  14.596   9.871  0.4737 -0.0138 -0.1263
   22loPI   C3B  351  15.570  14.566   9.461  0.1830 -0.1681  0.0050
   22loPI   C4B  352  15.514  14.508   9.009 -0.1301 -0.1272  0.0336
   23loPI    C1  353   6.608   8.453  11.640  0.0163 -0.0876  0.0159
   23loPI    C2  354   6.701   8.354  12.017  0.0174 -0.1369  0.0027
   23loPI    C3  355   6.990   8.392  11.743  0.0474  0.1973  0.0774
   23loPI   PO4  356   6.425   8.254  11.522 -0.0068  0.0268  0.1354
   23loPI   GL1  357   6.523   7.986  11.209  0.0450 -0.1300  0.1801
   23loPI   GL2  358   6.155   8.009  11.178 -0.0725 -0.0998  0.2532
   23loPI   C1A  359   6.517   8.243  10.761  0.1593  0.0543  0.2411
   23loPI   C2A  360   6.503   8.080  10.371 -0.0823  0.3470 -0.0475
   23loPI   C3A  361   6.608   8.183   9.954  0.1627  0.0510 -0.1877
   23loPI   C4A  362   6.519   8.138   9.433  0.0983  0.3088 -0.2749
   23loPI   C5A  363   6.570   8.153   8.929  0.0014 -0.0130 -0.0249
   23loPI   C6A  364   6.516   7.782   8.718 -0.1352 -0.1841  0.0684
   23loPI   C1B  365   6.069   8.039  10.746 -0.0156 -0.0535 -0.0001
   23loPI   C2B  366   6.016   8.009  10.399 -0.0623 -0.3054 -0.0920
   23loPI   C3B  367   6.056   7.931   9.980  0.0101 -0.1155 -0.0176
   23loPI   C4B  368   6.079   7.932   9.550 -0.0521  0.0354 -0.0000
   24loPI    C1  369   3.379   2.108  11.890 -0.0178  0.1649  0.2162
   24loPI    C2  370   2.992   2.121  11.789  0.0431  0.0800 -0.0368
   24loPI    C3  371   3.103   1.957  12.137 -0.1416  0.0406  0.0046
   24loPI   PO4  372   3.487   1.942  11.685  0.0380 -0.0809  0.1742
   24loPI   GL1  373   3.633   1.888  11.288  0.1635 -0.1654  0.0048
   24loPI   GL2  374   3.378   1.856  11.200 -0.3192  0.0331  0.1067
   24loPI   C1A  375   3.772   1.973  10.820 -0.0507 -0.2047 -0.0274
   24loPI   C2A  376   3.805   1.952  10.359  0.2672 -0.0905 -0.0254
   24loPI   C3A  377   3.913   1.911   9.993 -0.1428 -0.2657 -0.0714
   24loPI   C4A  378   3.852   1.919   9.543 -0.1481  0.3574 -0.0347
   24loPI   C5A  379   3.754   1.872   9.115 -0.2255 -0.4324  0.2032
   24loPI   C6A  380   3.397   1.893   8.829  0.3757 -0.1920 -0.0110
   24loPI   C1B  381   3.259   1.833  10.710  0.0417  0.1373 -0.0135
   24loPI   C2B  382   3.202   1.795  10.257  0.0844  0.1053  0.1733
   24loPI   C3B  383   3.320   1.771   9.813  0.1306 -0.0161  0.1553
   24loPI   C4B  384   3.327   1.761   9.433  0.1304  0.1902 -0.0218
   25loPI    C1  385   0.255  17.228  11.594 -0.2738  0.0435  0.0282
   25loPI    C2  386   0.542  17.001  11.754 -0.2336 -0.0395 -0.1588
   25loPI    C3  387   0.318  17.235  11.989  0.0018  0.0446 -0.0138
   25loPI   PO4  388   0.209  17.082  11.392  0.0160  0.1069  0.3492
   25loPI   GL1  389   0.095  17.023  11.047 -0.0215 -0.0532  0.1500
   25loPI   GL2  390   0.439  17.053  10.960 -0.3045 -0.2180 -0.2252
   25loPI   C1A  391  -0.046  16.978  10.551 -0.0596 -0.1576 -0.0857
   25loPI   C2A  392  -0.113  17.005  10.058 -0.0807  0.1115 -0.0481
   25loPI   C3A  393   0.026  17.026   9.655  0.0873  0.4774 -0.1508
   25loPI   C4A  394  -0.038  17.017   9.329 -0.1202  0.1171  0.2921
   25loPI   C5A  395  -0.046  17.020   8.932  0.0952  0.2384 -0.2528
   25loPI   C6A  396  -0.044  17.135   8.499  0.0715 -0.2172 -0.1670
   25loPI   C1B  397   0.434  17.244  10.557  0.5416  0.4419  0.2298
   25loPI   C2B  398   0.451  17.139  10.043  0.0215 -0.0759 -0.0186
   25loPI   C3B  399   0.468  17.177   9.544  0.1886  0.1244  0.0737
   25loPI   C4B  400   0.391  17.065   9.161 -0.3423  0.1900 -0.0148
   26loPI    C1  401   0.157   3.208  11.525 -0.2397  0.1304 -0.1388
   26loPI    C2  402  -0.128   3.164  11.803 -0.0258  0.3477  0.1205
   26loPI    C3  403   0.195   3.386  11.881  0.1620  0.1988 -0.2119
   26loPI   PO4  404  -0.037   3.267  11.255  0.1870 -0.2320  0.2205
   26loPI   GL1  405   0.146   3.174  10.804 -0.3083 -0.2032 -0.0270
   26loPI   GL2  406   0.312   3.329  10.686 -0.0844  0.2929  0.0282
   26loPI   C1A  407  -0.182   3.192  10.427 -0.3776  0.0854 -0.1166
   26loPI   C2A  408  -0.197   3.269  10.046 -0.2506 -0.0694 -0.2282
   26loPI   C3A  409  -0.107   3.230   9.650  0.3798 -0.0362 -0.0840
   26loPI   C4A  410  -0.136   3.316   9.179 -0.2514 -0.1987 -0.0610
   26loPI   C5A  411  -0.022   3.213   8.738  0.1834 -0.1646  0.0819
   26loPI   C6A  412  -0.192   3.364   8.275 -0.3150  0.0980 -0.2208
   26loPI   C1B  413   0.330   3.335  10.196  0.1543 -0.1563 -0.2554
   26loPI   C2B  414   0.404   3.413   9.718  0.1800  0.1243  0.0199
   26loPI   C3B  415   0.380   3.325   9.267 -0.1892  0.1057 -0.0545
   26loPI   C4B  416   0.304   3.585   8.896 -0.3527 -0.0321  0.0474
   27loPI    C1  417   5.367   9.856  11.816  0.3163 -0.2203 -0.0839
   27loPI    C2  418   5.636   9.676  12.051  0.1221 -0.3621  0.0332
   27loPI    C3  419   5.287   9.797  12.204  0.1659 -0.0706 -0.0910
   27loPI   PO4  420   5.357   9.693  11.615  0.2817  0.0044  0.0064
   27loPI   GL1  421   5.411   9.673  11.156  0.4011 -0.2260 -0.1657
   27loPI   GL2  422   5.172   9.919  11.002 -0.2909  0.0722 -0.2507
   27loPI   C1A  423   5.497   9.660  10.753 -0.0215 -0.1951  0.1935
   27loPI   C2A  424   5.524   9.713  10.324  0.2133 -0.1019 -0.1944
   27loPI   C3A  425   5.547   9.724   9.965 -0.1957  0.0282  0.2221
   27loPI   C4A  426   5.564   9.681   9.511  0.0284 -0.2274 -0.0564
   27loPI   C5A  427   5.665   9.741   9.053  0.1923  0.1460 -0.0455
   27loPI   C6A  428   5.472   9.825   8.728 -0.1390 -0.1789 -0.2304
   27loPI   C1B  429   5.186   9.972  10.556  0.2676  0.0281  0.2337
   27loPI   C2B  430   5.144  10.069  10.164 -0.3382 -0.0217  0.0330
   27loPI   C3B  431   5.249  10.074   9.730  0.0201 -0.0599 -0.1841
   27loPI   C4B  432   5.252  10.039   9.207  0.4974 -0.1004 -0.1490
   28loPI    C1  433   9.426   0.557  11.869 -0.2591 -0.1099  0.1027
   28loPI    C2  434   9.520   0.875  12.093 -0.1883 -0.0808  0.0322
   28loPI    C3  435   9.700   0.524  12.158 -0.0035 -0.0169 -0.1242
   28loPI   PO4  436   9.341   0.605  11.699 -0.1317  0.1614  0.0578
   28loPI   GL1  437   9.317   0.788  11.274 -0.1058 -0.1521 -0.0045
   28loPI   GL2  438   9.397   0.385  11.251  0.0674  0.1163 -0.4329
   28loPI   C1A  439   9.051   0.762  10.903  0.0519  0.0829  0.2302
   28loPI   C2A  440   9.047   0.779  10.463 -0.2498 -0.1212  0.1191
   28loPI   C3A  441   8.999   0.741   9.988  0.1291 -0.1268 -0.2180
   28loPI   C4A  442   9.115   0.775   9.644  0.2429 -0.0866 -0.2416
   28loPI   C5A  443   9.053   0.847   9.209  0.0060 -0.4018 -0.0091
   28loPI   C6A  444   8.979   0.843   8.782 -0.4382  0.0178  0.2602
   28loPI   C1B  445   9.445   0.370  10.786 -0.1791  0.4267  0.0832
   28loPI   C2B  446   9.373   0.389  10.300 -0.0249 -0.0523 -0.2655
   28loPI   C3B  447   9.391   0.438   9.872  0.1200 -0.1349 -0.0912
   28loPI   C4B  448   9.430   0.479   9.451 -0.1962  0.1381  0.2008
   29loPI    C1  449  16.502   0.831  11.395  0.0418  0.1289 -0.1760
   29loPI    C2  450  16.268   1.102  11.572 -0.3430 -0.4924  0.3106
   29loPI    C3  451  16.633   1.028  11.717 -0.0562  0.0594 -0.0928
   29loPI   PO4  452  16.428   0.805  11.075  0.0554 -0.1111 -0.0975
   29loPI   GL1  453  16.527   0.937  10.712 -0.1211 -0.0217 -0.2388
   29loPI   GL2  454  16.396   0.618  10.633 -0.2175  0.1382  0.2310
   29loPI   C1A  455  16.296   1.081  10.315 -0.4194 -0.3184 -0.0333
   29loPI   C2A  456  16.401   1.018   9.891  0.1056 -0.0859  0.1753
   29loPI   C3A  457  16.578   1.032   9.468  0.1150  0.0591 -0.1296
   29loPI   C4A  458  16.669   0.965   9.052 -0.0146  0.3885  0.1911
   29loPI   C5A  459  16.962   0.836   8.752  0.0391  0.1132  0.1218
   29loPI   C6A  460  17.306   0.936   8.461  0.1348  0.2614 -0.2012
   29loPI   C1B  461  16.377   0.596  10.179  0.1196  0.0357 -0.0233
   29loPI   C2B  462  16.484   0.556   9.796  0.0324 -0.4071  0.2476
   29loPI   C3B  463  16.526   0.563   9.339  0.1381  0.0389 -0.1513
   29loPI   C4B  464  16.454   0.408   8.942 -0.0030  0.0004  0.1808
   30loPI    C1  465   1.885  10.168  11.596  0.3573 -0.1400 -0.1772
   30loPI    C2  466   1.800   9.821  11.777 -0.0369  0.0644  0.0447
   30loPI    C3  467   2.023  10.095  11.964 -0.0042  0.0647  0.0055
   30loPI   PO4  468   1.915  10.184  11.333 -0.0865 -0.1397  0.0192
   30loPI   GL1  469   1.728  10.370  10.987 -0.1944  0.0022  0.0059
   30loPI   GL2  470   1.954  10.608  10.957 -0.1123  0.0739  0.0647
   30loPI   C1A  471   1.521  10.382  10.589 -0.1110 -0.1280 -0.2753
   30loPI   C2A  472   1.564  10.471  10.157 -0.0022  0.1001 -0.2162
   30loPI   C3A  473   1.538  10.466   9.763 -0.0270  0.1229  0.1610
   30loPI   C4A  474   1.547  10.516   9.324 -0.1215 -0.1246  0.2836
   30loPI   C5A  475   1.720  10.535   8.850  0.0076  0.2195  0.0544
   30loPI   C6A  476   2.087  10.488   8.671  0.2909 -0.0028  0.1753
   30loPI   C1B  477   1.993  10.576  10.489 -0.0288  0.0972  0.1410
   30loPI   C2B  478   2.095  10.654  10.090  0.1189  0.0249  0.1003
   30loPI   C3B  479   2.050  10.626   9.660  0.0340 -0.3199 -0.0594
   30loPI   C4B  480   2.115  10.644   9.230  0.1367 -0.2072  0.5551
   31loPI    C1  481  12.490  14.318  11.330  0.0905 -0.0993 -0.0419
   31loPI    C2  482  12.577  14.251  11.714 -0.0226  0.1195  0.0238
   31loPI    C3  483  12.196  14.272  11.596  0.0099 -0.1611 -0.1409
   31loPI   PO4  484  12.716  14.444  11.198  0.1908 -0.0913 -0.0689
   31loPI   GL1  485  12.685  14.685  10.861  0.2682 -0.0234 -0.0089
   31loPI   GL2  486  12.620  14.291  10.697  0.0810 -0.2219 -0.1098
   31loPI   C1A  487  12.687  14.685  10.367 -0.1854 -0.0713 -0.1535
   31loPI   C2A  488  12.791  14.597   9.979  0.0191 -0.0107 -0.0471
   31loPI   C3A  489  12.780  14.633   9.495  0.0242 -0.2509 -0.0243
   31loPI   C4A  490  12.912  14.826   9.096  0.0955  0.1691  0.0342
   31loPI   C5A  491  12.852  14.630   8.676 -0.2131  0.2423  0.1364
   31loPI   C6A  492  12.697  14.701   8.347 -0.1336 -0.1828 -0.3319
   31loPI   C1B  493  12.681  14.183  10.308  0.2545  0.0951 -0.1036
   31loPI   C2B  494  12.579  14.133   9.888  0.1395 -0.1816 -0.1247
   31loPI   C3B  495  12.606  14.167   9.403  0.0304  0.0195 -0.2152
   31loPI   C4B  496  12.695  14.034   9.037  0.1456 -0.0098  0.1374
   32loPI    C1  497   4.013   3.475  11.346  0.0082 -0.0197 -0.1105
   32loPI    C2  498   4.211   3.346  11.669 -0.0392  0.1219 -0.0238
   32loPI    C3  499   3.996   3.683  11.688 -0.2473 -0.0031 -0.1314
   32loPI   PO4  500   3.959   3.266  11.251 -0.0004 -0.1881 -0.2873
   32loPI   GL1  501   4.014   3.312  10.822 -0.0907 -0.2386  0.0763
   32loPI   GL2  502   4.055   3.642  10.737 -0.1886  0.2470  0.0945
   32loPI   C1A  503   3.947   2.952  10.548  0.3019 -0.2792 -0.1428
   32loPI   C2A  504   3.981   2.889  10.150  0.0312  0.2282  0.0159
   32loPI   C3A  505   4.106   2.984   9.580  0.1830 -0.1842  0.1801
   32loPI   C4A  506   4.248   3.009   9.143 -0.0401 -0.3691 -0.0727
   32loPI   C5A  507   4.047   3.229   8.811  0.1511  0.0835  0.3765
   32loPI   C6A  508   3.929   3.104   8.389  0.1353 -0.0269  0.0266
   32loPI   C1B  509   4.097   3.417  10.336  0.5073  0.1400 -0.0466
   32loPI   C2B  510   4.196   3.365   9.918  0.2151  0.2110  0.1625
   32loPI   C3B  511   4.182   3.475   9.500 -0.1034  0.0441 -0.0246
   32loPI   C4B  512   4.146   3.656   9.162 -0.1432  0.0845 -0.0004
   33loPI    C1  513   2.711  10.047  11.837 -0.0001 -0.3611  0.0092
   33loPI    C2  514   2.563   9.912  12.184  0.1343 -0.1892  0.1353
   33loPI    C3  515   2.937  10.054  12.167  0.0511  0.0154 -0.0295
   33loPI   PO4  516   2.479  10.161  11.612  0.1035  0.0191 -0.0137
   33loPI   GL1  517   2.493  10.104  11.149  0.2573 -0.0014  0.0700
   33loPI   GL2  518   2.652  10.323  11.098 -0.0001  0.1256  0.0784
   33loPI   C1A  519   2.390  10.222  10.672  0.2344 -0.0224 -0.0936
   33loPI   C2A  520   2.437  10.294  10.273  0.0456 -0.0681  0.0179
   33loPI   C3A  521   2.484  10.278   9.860  0.0646 -0.1821  0.0119
   33loPI   C4A  522   2.545  10.280   9.459  0.1305  0.1251  0.1398
   33loPI   C5A  523   2.460  10.264   9.029  0.0511 -0.4005  0.1748
   33loPI   C6A  524   2.278   9.912   8.795  0.1516  0.3799 -0.1211
   33loPI   C1B  525   2.884  10.365  10.812 -0.0102  0.2686 -0.0714
   33loPI   C2B  526   2.922  10.384  10.407  0.3120 -0.1957  0.1251
   33loPI   C3B  527   2.959  10.364   9.954 -0.0032  0.0243  0.0598
   33loPI   C4B  528   3.035  10.381   9.545 -0.0356 -0.3114  0.1546
   34loPI    C1  529  11.149  10.491  11.844 -0.0893  0.2608  0.0368
   34loPI    C2  530  11.418  10.605  12.117  0.1497 -0.0845 -0.0482
   34loPI    C3  531  11.063  10.465  12.234  0.1245  0.0780  0.0738
   34loPI   PO4  532  11.271  10.670  11.620  0.0885  0.2861 -0.2451
   34loPI   GL1  533  11.290  10.903  11.257 -0.0729  0.4722 -0.1563
   34loPI   GL2  534  10.927  10.874  11.090 -0.1588 -0.1180  0.2061
   34loPI   C1A  535  11.386  10.901  10.814  0.3586  0.1972 -0.1747
   34loPI   C2A  536  11.362  10.829  10.416 -0.0415 -0.0783 -0.0446
   34loPI   C3A  537  11.426  10.940  10.001  0.0159 -0.1092 -0.0653
   34loPI   C4A  538  11.470  11.060   9.686 -0.0495 -0.2601  0.3125
   34loPI   C5A  539  11.451  11.096   9.262 -0.2464 -0.1476  0.0285
   34loPI   C6A  540  11.435  10.935   8.979 -0.0405  0.3593  0.3449
   34loPI   C1B  541  10.944  10.687  10.641  0.2113 -0.1764 -0.0352
   34loPI   C2B  542  10.875  10.767  10.164  0.2073 -0.1899 -0.2329
   34loPI   C3B  543  10.952  10.858   9.699  0.1722 -0.3787 -0.0644
   34loPI   C4B  544  10.952  10.916   9.263  0.2274 -0.0091 -0.2637
   35loPI    C1  545   9.282   1.552  11.935  0.0662  0.0559 -0.2096
   35loPI    C2  546   9.168   1.228  12.141 -0.0154  0.1229 -0.1485
   35loPI    C3  547   8.955   1.566  12.165 -0.0364  0.1256 -0.3585
   35loPI   PO4  548   9.297   1.559  11.673  0.0367  0.1846  0.0777
   35loPI   GL1  549   9.387   1.382  11.259 -0.0591  0.1084 -0.0632
   35loPI   GL2  550   9.726   1.277  11.084  0.0083 -0.1841  0.1473
   35loPI   C1A  551   9.201   1.199  10.974  0.3269  0.0730  0.2830
   35loPI   C2A  552   9.179   1.239  10.580 -0.0263  0.1244  0.1412
   35loPI   C3A  553   9.119   1.273  10.164  0.0535 -0.1683  0.0484
   35loPI   C4A  554   9.146   1.219   9.861 -0.2102  0.0218  0.1173
   35loPI   C5A  555   9.196   1.318   9.404  0.0902  0.1550 -0.1638
   35loPI   C6A  556   9.179   1.687   9.115 -0.2163  0.1348 -0.3510
   35loPI   C1B  557   9.612   1.425  10.676  0.2608 -0.0582  0.0463
   35loPI   C2B  558   9.600   1.403  10.338 -0.2786 -0.2709 -0.2184
   35loPI   C3B  559   9.683   1.436   9.860  0.7464  0.4603 -0.2240
   35loPI   C4B  560   9.711   1.425   9.386  0.1173 -0.0802  0.1835
   36loPI    C1  561   9.745  17.379  11.948  0.2255  0.0582  0.1166
   36loPI    C2  562   9.805  17.646  12.240  0.1516 -0.0070  0.1917
   36loPI    C3  563   9.840  17.254  12.316  0.1871 -0.0220  0.0994
   36loPI   PO4  564   9.898  17.474  11.751 -0.0300 -0.0236 -0.0931
   36loPI   GL1  565   9.676  17.404  11.422 -0.1757  0.2914 -0.0509
   36loPI   GL2  566   9.755  17.619  11.219  0.0731 -0.1711  0.0221
   36loPI   C1A  567   9.601  17.077  11.128 -0.1528  0.2712  0.0452
   36loPI   C2A  568   9.529  17.092  10.667 -0.0232  0.1079 -0.2271
   36loPI   C3A  569   9.611  17.109  10.254  0.0684 -0.1961 -0.0068
   36loPI   C4A  570   9.739  17.101   9.889 -0.2308  0.8220  0.1710
   36loPI   C5A  571   9.686  17.092   9.440  0.0649 -0.0580  0.1852
   36loPI   C6A  572   9.512  17.229   9.119 -0.2295 -0.1825  0.0576
   36loPI   C1B  573   9.790  17.525  10.736  0.4575  0.0036 -0.1064
   36loPI   C2B  574   9.672  17.613  10.266 -0.2243 -0.2338 -0.0430
   36loPI   C3B  575   9.829  17.677   9.807  0.0125 -0.2045 -0.1878
   36loPI   C4B  576   9.886  17.680   9.344  0.2174  0.0911  0.0228
   37loPI    C1  577  15.785  12.711  11.765  0.0595 -0.0154 -0.0981
   37loPI    C2  578  15.538  12.483  11.548  0.0351  0.0889 -0.1807
   37loPI    C3  579  15.562  12.432  11.944  0.0732 -0.0965 -0.2059
   37loPI   PO4  580  15.730  12.943  11.560 -0.0288 -0.0154  0.3554
   37loPI   GL1  581  15.644  12.875  11.163 -0.1136 -0.1012  0.2057
   37loPI   GL2  582  15.475  12.978  10.965  0.1513 -0.1349  0.0356
   37loPI   C1A  583  15.970  12.843  10.837  0.2237  0.2449  0.2112
   37loPI   C2A  584  16.020  12.907  10.404  0.4301 -0.1289  0.1227
   37loPI   C3A  585  16.028  12.815   9.960  0.1209 -0.3084  0.0325
   37loPI   C4A  586  16.110  12.792   9.549  0.1576 -0.1455  0.1201
   37loPI   C5A  587  16.094  12.787   9.106  0.2925 -0.0924 -0.0837
   37loPI   C6A  588  16.078  12.754   8.631 -0.0153  0.0459  0.1026
   37loPI   C1B  589  15.618  13.184  10.612  0.0894  0.4521  0.0376
   37loPI   C2B  590  15.666  13.183  10.133  0.2237  0.0588 -0.0130
   37loPI   C3B  591  15.680  13.237   9.768 -0.1666  0.2568  0.1925
   37loPI   C4B  592  15.721  13.088   9.303 -0.1597  0.2075 -0.0577
   38loPI    C1  593   9.686  10.682  11.501  0.3512 -0.0187 -0.1532
   38loPI    C2  594   9.459  10.876  11.767  0.1363 -0.2348 -0.1763
   38loPI    C3  595   9.832  11.000  11.695  0.2178 -0.2078  0.2681
   38loPI   PO4  596   9.639  10.601  11.277  0.3645 -0.0588 -0.2020
   38loPI   GL1  597   9.537  10.752  10.908  0.1812  0.1321  0.1198
   38loPI   GL2  598   9.359  10.965  10.756 -0.2291  0.2169  0.2721
   38loPI   C1A  599   9.845  10.602  10.619  0.0120  0.0148  0.0500
   38loPI   C2A  600   9.943  10.550  10.184  0.1192 -0.3283  0.2402
   38loPI   C3A  601   9.979  10.508   9.691 -0.3142  0.1426 -0.0687
   38loPI   C4A  602  10.033  10.476   9.233 -0.1185  0.1089  0.0412
   38loPI   C5A  603   9.861  10.263   8.806 -0.1405 -0.1440 -0.1760
   38loPI   C6A  604  10.086   9.959   8.677  0.2077  0.2926 -0.1256
   38loPI   C1B  605   9.554  10.882  10.369  0.5606 -0.1056  0.3273
   38loPI   C2B  606   9.568  10.883   9.976  0.0669 -0.0203  0.1225
   38loPI   C3B  607   9.637  10.878   9.535  0.0193 -0.0856  0.0978
   38loPI   C4B  608   9.641  10.797   9.140  0.1096 -0.1453  0.2380
   39loPI    C1  609   0.977  15.708  11.608  0.1497  0.0533 -0.0954
   39loPI    C2  610   1.117  15.445  11.875  0.3606  0.1534 -0.1062
   39loPI    C3  611   0.958  15.790  11.999  0.3537  0.1498 -0.1048
   39loPI   PO4  612   1.129  15.545  11.359 -0.0149 -0.0423 -0.1611
   39loPI   GL1  613   1.308  15.439  11.047 -0.1817  0.3404 -0.1855
   39loPI   GL2  614   1.400  15.595  10.868  0.0578 -0.1050 -0.0815
   39loPI   C1A  615   1.258  15.174  10.701 -0.2851 -0.3085 -0.0278
   39loPI   C2A  616   1.299  15.126  10.275 -0.4575 -0.1867  0.3425
   39loPI   C3A  617   1.270  15.081   9.827  0.1207  0.1523  0.2348
   39loPI   C4A  618   1.336  15.038   9.374  0.1568  0.1459  0.0062
   39loPI   C5A  619   1.395  15.013   8.946  0.0323 -0.2162 -0.2264
   39loPI   C6A  620   1.108  14.884   8.735 -0.1629  0.1250  0.0726
   39loPI   C1B  621   1.397  15.716  10.432  0.1066 -0.0596  0.0260
   39loPI   C2B  622   1.373  15.556  10.022 -0.2085 -0.1651 -0.1445
   39loPI   C3B  623   1.502  15.569   9.630 -0.2374 -0.0188 -0.0516
   39loPI   C4B  624   1.562  15.546   9.226 -0.2910  0.2001  0.1284
   40loPI    C1  625  17.106   9.373  11.226 -0.0220  0.2413  0.0479
   40loPI    C2  626  17.050   9.553  11.579  0.0629 -0.4474  0.4313
   40loPI    C3  627  17.419   9.458  11.460  0.0310 -0.2538  0.1674
   40loPI   PO4  628  16.947   9.634  11.021  0.0747 -0.0036 -0.1363
   40loPI   GL1  629  17.012   9.851  10.697  0.0604 -0.2542 -0.5034
   40loPI   GL2  630  17.253  10.125  10.800  0.0051  0.0200 -0.1004
   40loPI   C1A  631  17.059   9.877  10.262 -0.2219  0.0111  0.1908
   40loPI   C2A  632  17.223   9.911   9.803  0.0719 -0.1294  0.2288
   40loPI   C3A  633  17.186   9.842   9.371 -0.1725  0.0616  0.0458
   40loPI   C4A  634  17.135   9.982   8.910 -0.0618  0.0543 -0.2943
   40loPI   C5A  635  17.142  10.201   8.594 -0.2250  0.0083 -0.1263
   40loPI   C6A  636  17.159  10.160   8.142 -0.1128 -0.0173 -0.1730
   40loPI   C1B  637  17.190  10.376  10.559  0.1624  0.0838 -0.2069
   40loPI   C2B  638  17.244  10.355  10.122 -0.2721 -0.1964 -0.1119
   40loPI   C3B  639  17.335  10.394   9.710  0.7984 -0.1611 -0.3367
   40loPI   C4B  640  17.290  10.349   9.334  0.0126  0.0681 -0.1065
   41loPI    C1  641   6.602  12.074  11.920 -0.0442  0.1005  0.2234
   41loPI    C2  642   6.306  11.806  11.949 -0.0414  0.0705 -0.0084
   41loPI    C3  643   6.590  11.820  12.229 -0.1551 -0.0305  0.1134
   41loPI   PO4  644   6.663  12.089  11.669  0.2373  0.0654  0.0137
   41loPI   GL1  645   6.743  11.952  11.246  0.3180 -0.0654  0.0678
   41loPI   GL2  646   6.873  11.690  11.296  0.1180  0.2066 -0.3540
   41loPI   C1A  647   6.927  12.131  10.776  0.1957 -0.2261  0.3650
   41loPI   C2A  648   7.097  12.110  10.314 -0.0704  0.3312 -0.0635
   41loPI   C3A  649   7.105  12.056   9.920 -0.0209  0.2706  0.0691
   41loPI   C4A  650   6.985  12.035   9.640  0.1495  0.1182 -0.1186
   41loPI   C5A  651   6.797  11.925   9.219  0.1669  0.0839 -0.0660
   41loPI   C6A  652   6.630  11.964   8.840  0.2569  0.1863 -0.2354
   41loPI   C1B  653   6.886  11.568  10.857 -0.4264 -0.3365 -0.0740
   41loPI   C2B  654   6.890  11.514  10.457 -0.2066 -0.1893  0.3493
   41loPI   C3B  655   6.954  11.401  10.022  0.0124  0.1558  0.1718
   41loPI   C4B  656   6.875  11.538   9.624 -0.0420  0.1594 -0.1450
   42loPI    C1  657  12.680   5.680  11.722 -0.1739  0.0050  0.0073
   42loPI    C2  658  12.635   5.951  12.013 -0.2417  0.1723 -0.1578
   42loPI    C3  659  12.357   5.669  11.958 -0.1591  0.0522  0.0298
   42loPI   PO4  660  12.740   5.817  11.465  0.2634 -0.2904  0.0996
   42loPI   GL1  661  12.742   5.721  11.074 -0.1085 -0.0869 -0.2366
   42loPI   GL2  662  13.120   5.848  10.989 -0.2270 -0.4784  0.0863
   42loPI   C1A  663  12.528   5.559  10.758  0.0239  0.1945  0.0543
   42loPI   C2A  664  12.432   5.714  10.353  0.0323 -0.0636 -0.1371
   42loPI   C3A  665  12.351   5.675   9.907 -0.1594  0.0727 -0.1054
   42loPI   C4A  666  12.492   5.591   9.528  0.0876 -0.1450  0.3378
   42loPI   C5A  667  12.346   5.501   9.137  0.1983 -0.2526  0.0832
   42loPI   C6A  668  12.164   5.326   8.688 -0.1851 -0.2416 -0.2350
   42loPI   C1B  669  12.978   5.801  10.586 -0.1329 -0.2384  0.2268
   42loPI   C2B  670  12.968   5.813  10.102  0.0071  0.1923  0.1714
   42loPI   C3B  671  12.919   5.824   9.686 -0.1881  0.0041  0.2519
   42loPI   C4B  672  12.861   5.567   9.226 -0.0669  0.1903 -0.0345
   43loPI    C1  673  11.745  10.130  11.626 -0.3669 -0.2819 -0.1053
   43loPI    C2  674  11.736  10.232  12.012 -0.3211 -0.0139 -0.1729
   43loPI    C3  675  11.783   9.849  11.907  0.1217 -0.0369  0.0847
   43loPI   PO4  676  11.534  10.181  11.546  0.2377 -0.1946 -0.1001
   43loPI   GL1  677  11.520  10.420  11.093 -0.0075 -0.1125 -0.0718
   43loPI   GL2  678  11.763  10.557  11.005 -0.3648  0.0880 -0.0425
   43loPI   C1A  679  11.260  10.348  10.699 -0.1060 -0.1912  0.2969
   43loPI   C2A  680  11.261  10.380  10.235 -0.0743 -0.2317  0.0326
   43loPI   C3A  681  11.313  10.444   9.805 -0.0370  0.1290  0.2036
   43loPI   C4A  682  11.226  10.517   9.328  0.0854  0.2381  0.1017
   43loPI   C5A  683  11.455  10.442   8.912 -0.1646  0.3919 -0.3506
   43loPI   C6A  684  11.567  10.149   8.569  0.0542 -0.0042  0.1869
   43loPI   C1B  685  11.716  10.537  10.619 -0.0440  0.1036  0.0692
   43loPI   C2B  686  11.706  10.533  10.119 -0.0484 -0.0663  0.0156
   43loPI   C3B  687  11.751  10.614   9.683  0.0253 -0.2926 -0.1476
   43loPI   C4B  688  11.766  10.633   9.246 -0.0040  0.1349  0.0065
   44loPI    C1  689   6.278   9.077  11.850 -0.0144 -0.1310 -0.3221
   44loPI    C2  690   6.048   8.783  11.992  0.0383 -0.1694 -0.3161
   44loPI    C3  691   6.443   8.773  12.049  0.0234 -0.0184 -0.1797
   44loPI   PO4  692   6.196   9.129  11.565  0.2062  0.3730 -0.2272
   44loPI   GL1  693   6.396   9.057  11.138  0.0434  0.2093 -0.1148
   44loPI   GL2  694   6.635   8.793  11.201  0.4043  0.0450  0.1532
   44loPI   C1A  695   6.249   9.137  10.751 -0.0481  0.1365 -0.1555
   44loPI   C2A  696   6.232   9.001  10.369  0.1754  0.0321  0.0732
   44loPI   C3A  697   6.208   8.977   9.939 -0.0372  0.2802  0.0286
   44loPI   C4A  698   6.156   9.023   9.411 -0.2035 -0.1800  0.2775
   44loPI   C5A  699   6.307   8.887   9.060 -0.0971  0.0072  0.2878
   44loPI   C6A  700   6.371   8.592   8.730  0.1648 -0.1649 -0.1242
   44loPI   C1B  701   6.598   8.747  10.751 -0.2441 -0.0725  0.0525
   44loPI   C2B  702   6.570   8.636  10.297  0.0186  0.1999 -0.2202
   44loPI   C3B  703   6.655   8.714   9.835 -0.1204  0.2801 -0.2933
   44loPI   C4B  704   6.653   8.632   9.486  0.1328  0.3961 -0.0684
   45loPI    C1  705   1.746  14.513  11.722  0.1212 -0.0905  0.1071
   45loPI    C2  706   1.603  14.602  12.085  0.0433 -0.0193  0.0595
   45loPI    C3  707   1.998  14.579  12.025  0.0546 -0.1136  0.1676
   45loPI   PO4  708   1.591  14.439  11.519 -0.0299 -0.1181 -0.2667
   45loPI   GL1  709   1.468  14.296  11.034 -0.1077 -0.2134 -0.3260
   45loPI   GL2  710   1.708  14.483  11.008 -0.0212 -0.0441 -0.0052
   45loPI   C1A  711   1.200  14.644  10.788 -0.0121 -0.0895  0.1136
   45loPI   C2A  712   1.140  14.616  10.432 -0.1786  0.0127  0.0194
   45loPI   C3A  713   1.100  14.593  10.036 -0.4584  0.1205 -0.0051
   45loPI   C4A  714   1.242  14.549   9.684 -0.2688 -0.1342 -0.0668
   45loPI   C5A  715   1.175  14.578   9.218  0.1177 -0.1566  0.2099
   45loPI   C6A  716   1.198  14.355   8.843  0.1151 -0.2292 -0.0551
   45loPI   C1B  717   1.535  14.326  10.502 -0.0906 -0.1571  0.0707
   45loPI   C2B  718   1.492  14.214  10.022  0.2746 -0.2151 -0.1250
   45loPI   C3B  719   1.615  14.255   9.584 -0.0404  0.5699 -0.0116
   45loPI   C4B  720   1.616  14.204   9.165 -0.2063  0.0951 -0.1889
   46loPI    C1  721   7.681  10.803  11.769 -0.1373  0.0456  0.0550
   46loPI    C2  722   7.346  10.968  11.911 -0.3043 -0.5035  0.3284
   46loPI    C3  723   7.660  10.915  12.153 -0.1274 -0.2775  0.1529
   46loPI   PO4  724   7.740  10.954  11.568 -0.1487  0.0680  0.1239
   46loPI   GL1  725   7.761  11.225  11.244  0.0670  0.1178  0.2284
   46loPI   GL2  726   7.915  10.900  11.094  0.0865  0.4127 -0.1244
   46loPI   C1A  727   7.698  11.466  10.916 -0.1571 -0.0739 -0.0556
   46loPI   C2A  728   7.689  11.346  10.444  0.1975  0.2934 -0.0471
   46loPI   C3A  729   7.700  11.257  10.009  0.1067  0.0609 -0.0491
   46loPI   C4A  730   7.846  11.305   9.593 -0.1373 -0.1317  0.1748
   46loPI   C5A  731   7.829  11.362   9.140  0.1223 -0.1015 -0.3195
   46loPI   C6A  732   7.886  11.300   8.712  0.0709  0.4820  0.1621
   46loPI   C1B  733   8.101  10.952  10.703 -0.2121  0.1410  0.0116
   46loPI   C2B  734   8.111  10.878  10.207 -0.1786 -0.0240 -0.1818
   46loPI   C3B  735   8.214  10.980   9.845 -0.1706 -0.0065  0.1953
   46loPI   C4B  736   8.258  10.859   9.411 -0.0063  0.0960 -0.3077
   47loPI    C1  737  11.384   0.094  11.585  0.0516  0.3335 -0.4245
   47loPI    C2  738  11.733  -0.087  11.657 -0.1432  0.1192  0.0173
   47loPI    C3  739  11.705   0.311  11.685  0.0619  0.1371 -0.0149
   47loPI   PO4  740  11.246   0.113  11.307  0.1732  0.2655 -0.0202
   47loPI   GL1  741  11.172   0.053  10.967 -0.0752  0.0346  0.1622
   47loPI   GL2  742  11.309   0.396  10.859  0.2680 -0.0434  0.1289
   47loPI   C1A  743  11.178  -0.065  10.567  0.1487  0.2101 -0.3829
   47loPI   C2A  744  11.162  -0.075  10.178 -0.0393  0.1616 -0.1722
   47loPI   C3A  745  11.121  -0.083   9.802 -0.3199 -0.0475  0.1475
   47loPI   C4A  746  11.192  -0.074   9.393  0.2741 -0.1755 -0.1769
   47loPI   C5A  747  11.002  -0.145   9.037 -0.0005 -0.1029  0.1499
   47loPI   C6A  748  11.036   0.188   8.759  0.2058  0.0139 -0.0301
   47loPI   C1B  749  11.268   0.451  10.485 -0.0517 -0.2212  0.0076
   47loPI   C2B  750  11.265   0.478   9.980 -0.0360  0.1288 -0.0543
   47loPI   C3B  751  11.301   0.397   9.538 -0.2221 -0.0804 -0.3440
   47loPI   C4B  752  11.349   0.557   9.198  0.0891  0.2630 -0.2476
   48loPI    C1  753   8.750  16.906  11.750 -0.1304 -0.0092  0.2968
   48loPI    C2  754   8.393  17.053  11.854 -0.2248 -0.0179 -0.0032
   48loPI    C3  755   8.487  16.674  11.942 -0.4889 -0.1711 -0.3596
   48loPI   PO4  756   8.814  17.012  11.520  0.0801  0.1660 -0.4185
   48loPI   GL1  757   8.520  17.059  11.071 -0.0217  0.0081  0.1449
   48loPI   GL2  758   8.661  16.759  10.986  0.0935 -0.0018  0.2769
   48loPI   C1A  759   8.308  17.166  10.520  0.2624 -0.2817  0.0466
   48loPI   C2A  760   8.275  17.162  10.129 -0.0836 -0.4491 -0.1742
   48loPI   C3A  761   8.341  17.185   9.772  0.1689 -0.1843  0.0433
   48loPI   C4A  762   8.384  17.193   9.393  0.0650 -0.2788 -0.0150
   48loPI   C5A  763   8.090  17.226   8.967  0.1164  0.2064 -0.1838
   48loPI   C6A  764   8.009  17.297   8.526 -0.2903  0.3971 -0.0541
   48loPI   C1B  765   8.649  16.800  10.557  0.2202 -0.1714  0.2480
   48loPI   C2B  766   8.632  16.884  10.035 -0.1204 -0.0624 -0.1656
   48loPI   C3B  767   8.813  16.825   9.612  0.1580  0.0336 -0.1147
   48loPI   C4B  768   9.159  16.895   9.324 -0.0242 -0.0612  0.1004
   49loPI    C1  769   7.837  12.945  11.444 -0.1237 -0.1186  0.1436
   49loPI    C2  770   7.679  13.311  11.475 -0.0796 -0.0713 -0.1553
   49loPI    C3  771   7.740  13.091  11.804  0.0227  0.2429  0.0408
   49loPI   PO4  772   7.728  12.857  11.234 -0.1912 -0.1311 -0.0633
   49loPI   GL1  773   7.589  12.609  10.855  0.0563 -0.0157 -0.1918
   49loPI   GL2  774   7.356  12.918  10.806 -0.1946 -0.1559  0.0047
   49loPI   C1A  775   7.652  12.701  10.415 -0.1133  0.2151 -0.1645
   49loPI   C2A  776   7.650  12.738  10.018  0.1395  0.2825  0.1714
   49loPI   C3A  777   7.661  12.608   9.638  0.0598  0.1862  0.0082
   49loPI   C4A  778   7.637  12.643   9.256 -0.0201 -0.1073  0.3619
   49loPI   C5A  779   7.710  12.676   8.847  0.2569  0.1206 -0.0375
   49loPI   C6A  780   7.973  12.608   8.528 -0.0091 -0.3568  0.0242
   49loPI   C1B  781   7.306  13.097  10.346  0.0023  0.1106 -0.1546
   49loPI   C2B  782   7.310  13.117   9.933 -0.3722  0.0234 -0.0423
   49loPI   C3B  783   7.336  12.987   9.486 -0.0028 -0.1174 -0.3128
   49loPI   C4B  784   7.352  13.023   9.080 -0.2642  0.3912  0.2129
   50loPI    C1  785  10.098  13.516  11.418  0.1094 -0.1382 -0.1554
   50loPI    C2  786  10.158  13.229  11.690 -0.2229 -0.1096 -0.0476
   50loPI    C3  787  10.379  13.562  11.699  0.1274 -0.3342 -0.1399
   50loPI   PO4  788  10.044  13.249  11.188  0.1148 -0.0939  0.0088
   50loPI   GL1  789   9.838  13.077  10.843  0.0267 -0.0517 -0.1153
   50loPI   GL2  790  10.078  13.323  10.691 -0.0263 -0.3147  0.2523
   50loPI   C1A  791   9.757  13.181  10.336 -0.1241 -0.2474 -0.2203
   50loPI   C2A  792   9.638  13.238   9.919 -0.0698 -0.0916 -0.2461
   50loPI   C3A  793   9.668  13.354   9.470  0.2004 -0.1624  0.2759
   50loPI   C4A  794   9.621  13.279   9.007 -0.0410 -0.3399 -0.2442
   50loPI   C5A  795   9.427  13.135   8.569  0.0354  0.2144 -0.0839
   50loPI   C6A  796   9.142  12.961   8.450 -0.0142 -0.4400  0.2183
   50loPI   C1B  797  10.131  13.432  10.248 -0.0798 -0.0834 -0.0445
   50loPI   C2B  798  10.123  13.422   9.828  0.0482 -0.3906 -0.2665
   50loPI   C3B  799  10.167  13.459   9.476 -0.3367  0.0331  0.2685
   50loPI   C4B  800  10.025  13.518   9.073  0.2614 -0.0805  0.1276
   51loPI    C1  801  17.062  11.893  11.509 -0.0928  0.0112  0.0697
   51loPI    C2  802  16.814  11.991  11.808 -0.1225 -0.1385  0.0950
   51loPI    C3  803  17.058  11.675  11.845  0.0102 -0.0439  0.0356
   51loPI   PO4  804  16.881  11.938  11.325 -0.0756  0.1359 -0.0378
   51loPI   GL1  805  17.006  12.123  10.985  0.1505 -0.1524  0.1032
   51loPI   GL2  806  17.297  12.244  10.873 -0.0449 -0.3163  0.0983
   51loPI   C1A  807  16.816  12.213  10.650 -0.0363 -0.1963 -0.1779
   51loPI   C2A  808  16.790  12.213  10.265  0.0581  0.0982 -0.3693
   51loPI   C3A  809  16.776  12.175   9.794 -0.2668  0.1106 -0.0535
   51loPI   C4A  810  16.844  12.122   9.445  0.0105 -0.2131 -0.0004
   51loPI   C5A  811  16.880  12.149   9.040 -0.2697  0.0204 -0.0590
   51loPI   C6A  812  17.117  12.168   8.580  0.1943 -0.2987 -0.2734
   51loPI   C1B  813  17.245  12.384  10.420 -0.1182  0.0553  0.0070
   51loPI   C2B  814  17.236  12.385   9.995 -0.3848 -0.0278  0.0863
   51loPI   C3B  815  17.273  12.364   9.570  0.2104 -0.0379  0.1527
   51loPI   C4B  816  17.418  12.362   9.113 -0.1880 -0.0631  0.0680
   52loPI    C1  817  15.184  13.547  11.395  0.0197  0.2361 -0.1234
   52loPI    C2  818  15.396  13.391  11.697 -0.1006  0.1450 -0.0852
   52loPI    C3  819  15.143  13.694  11.765 -0.2142  0.0478 -0.0726
   52loPI   PO4  820  15.190  13.422  11.203  0.0426 -0.0100  0.0598
   52loPI   GL1  821  15.309  13.574  10.811 -0.0127 -0.0663  0.3331
   52loPI   GL2  822  15.347  13.884  10.658  0.1989  0.1159  0.0724
   52loPI   C1A  823  15.239  13.469  10.384 -0.1270  0.2038  0.1276
   52loPI   C2A  824  15.298  13.536   9.973  0.0591 -0.0352 -0.0535
   52loPI   C3A  825  15.312  13.520   9.459  0.0160 -0.0619  0.2319
   52loPI   C4A  826  15.452  13.428   9.098  0.0502 -0.1018 -0.0266
   52loPI   C5A  827  15.448  13.490   8.683  0.0475  0.1243 -0.0747
   52loPI   C6A  828  15.503  13.391   8.269 -0.0725 -0.1057 -0.1309
   52loPI   C1B  829  15.357  13.974  10.276  0.1406  0.0443  0.1095
   52loPI   C2B  830  15.427  14.099   9.945 -0.1770  0.2030 -0.2001
   52loPI   C3B  831  15.463  14.042   9.543 -0.0279 -0.1559  0.3195
   52loPI   C4B  832  15.463  14.058   9.086  0.1539  0.3504 -0.0622
   53loPI    C1  833  10.779   8.944  11.559 -0.0347 -0.1988  0.0452
   53loPI    C2  834  10.548   8.880  11.880  0.1766  0.0747  0.2567
   53loPI    C3  835  10.525   9.227  11.683  0.1904 -0.0157  0.0938
   53loPI   PO4  836  10.745   8.699  11.418 -0.0993 -0.1816  0.1636
   53loPI   GL1  837  10.911   8.697  10.993 -0.0659  0.1464  0.0635
   53loPI   GL2  838  10.733   8.399  10.775 -0.0718  0.0668  0.1699
   53loPI   C1A  839  10.857   8.914  10.498 -0.0980  0.1518  0.0166
   53loPI   C2A  840  10.899   8.874  10.065  0.2225  0.1180 -0.3003
   53loPI   C3A  841  10.899   8.943   9.633  0.1043  0.3161 -0.0373
   53loPI   C4A  842  10.978   8.838   9.168  0.0695 -0.1771  0.1569
   53loPI   C5A  843  10.898   8.918   8.736  0.0539 -0.0671  0.0859
   53loPI   C6A  844  10.835   8.795   8.264  0.2053  0.1297 -0.0516
   53loPI   C1B  845  10.782   8.439  10.313  0.0046 -0.0515  0.0137
   53loPI   C2B  846  10.793   8.401   9.939 -0.3303  0.3025  0.2347
   53loPI   C3B  847  10.832   8.413   9.467  0.1132 -0.2398 -0.0638
   53loPI   C4B  848  10.727   8.353   9.043  0.1640  0.2238  0.2439
   54loPI    C1  849  14.847   4.340  11.353 -0.1485 -0.0588 -0.0568
   54loPI    C2  850  15.161   4.260  11.588 -0.0701  0.0146 -0.1356
   54loPI    C3  851  14.791   4.167  11.709 -0.0132 -0.1242 -0.0668
   54loPI   PO4  852  14.931   4.255  11.145  0.0641 -0.4152 -0.2079
   54loPI   GL1  853  14.969   3.829  10.857 -0.2739  0.1784 -0.1110
   54loPI   GL2  854  15.148   3.594  10.990 -0.1748  0.1872  0.2888
   54loPI   C1A  855  14.881   4.038  10.553  0.1301  0.0775  0.0298
   54loPI   C2A  856  14.977   3.953  10.109 -0.1617  0.2042 -0.1318
   54loPI   C3A  857  15.045   3.923   9.667 -0.2984  0.0933 -0.0836
   54loPI   C4A  858  14.876   3.664   9.361 -0.2386  0.0200 -0.1070
   54loPI   C5A  859  14.540   3.555   9.067 -0.0357  0.1724  0.1532
   54loPI   C6A  860  14.358   3.600   8.730  0.1502  0.1043 -0.0925
   54loPI   C1B  861  15.235   3.549  10.552  0.0985  0.0207 -0.0329
   54loPI   C2B  862  15.276   3.552  10.097  0.1262  0.0537 -0.1319
   54loPI   C3B  863  15.266   3.499   9.671 -0.0259  0.0203 -0.0287
   54loPI   C4B  864  15.209   3.310   9.314 -0.1952 -0.2899  0.3501
   55loPI    C1  865   5.934   3.276  11.393  0.0570 -0.1360  0.1099
   55loPI    C2  866   6.062   3.340  11.767  0.0998  0.1837  0.0431
   55loPI    C3  867   6.011   2.967  11.634  0.1542  0.0669  0.3439
   55loPI   PO4  868   6.166   3.480  11.183  0.0177  0.0869  0.0530
   55loPI   GL1  869   6.423   3.414  10.888 -0.3688  0.1712  0.2336
   55loPI   GL2  870   6.539   3.725  10.726 -0.2509 -0.1878  0.2117
   55loPI   C1A  871   6.443   3.246  10.563 -0.1213 -0.2300  0.2433
   55loPI   C2A  872   6.419   3.185  10.149 -0.0886 -0.0415  0.1145
   55loPI   C3A  873   6.481   3.362   9.742  0.2104  0.0653 -0.1914
   55loPI   C4A  874   6.429   3.415   9.259  0.1785 -0.0854  0.1053
   55loPI   C5A  875   6.403   3.211   8.807 -0.2373  0.0319  0.1100
   55loPI   C6A  876   6.368   2.824   8.647 -0.1013  0.1478  0.1659
   55loPI   C1B  877   6.548   3.796  10.221 -0.0972  0.0750 -0.0244
   55loPI   C2B  878   6.587   3.888   9.811 -0.1906  0.1376 -0.1904
   55loPI   C3B  879   6.565   3.888   9.294  0.0136 -0.1166 -0.1350
   55loPI   C4B  880   6.461   4.009   8.869 -0.0792 -0.3956 -0.3041
   56loPI    C1  881   8.331  10.085  11.474  0.2298  0.3225 -0.0601
   56loPI    C2  882   8.490  10.368  11.708  0.2484  0.0959  0.2068
   56loPI    C3  883   8.259  10.084  11.867  0.0208  0.1059 -0.0972
   56loPI   PO4  884   8.553   9.951  11.372  0.4024  0.3594 -0.1752
   56loPI   GL1  885   8.577  10.005  10.883  0.2298  0.1332 -0.1787
   56loPI   GL2  886   8.853  10.044  10.783 -0.0560  0.2996 -0.1205
   56loPI   C1A  887   8.390  10.031  10.451 -0.0714  0.0543 -0.2953
   56loPI   C2A  888   8.392  10.061  10.056  0.3147 -0.1027 -0.1013
   56loPI   C3A  889   8.487  10.068   9.655 -0.1070 -0.1585  0.1018
   56loPI   C4A  890   8.461   9.948   9.108 -0.1038  0.1257  0.1537
   56loPI   C5A  891   8.802   9.976   8.765  0.1843  0.1560  0.0223
   56loPI   C6A  892   9.116   9.969   8.453  0.0690  0.1329  0.2535
   56loPI   C1B  893   8.821  10.291  10.471  0.0397  0.0545 -0.1252
   56loPI   C2B  894   8.861  10.279  10.076 -0.2243  0.0503 -0.0931
   56loPI   C3B  895   8.981  10.188   9.645 -0.0303 -0.2992  0.1571
   56loPI   C4B  896   9.076  10.138   9.222  0.1157  0.1651  0.0237
   57loPI    C1  897  16.869   2.477  11.267  0.1305  0.1431 -0.1722
   57loPI    C2  898  17.229   2.389  11.417 -0.0528 -0.0273  0.1800
   57loPI    C3  899  16.925   2.474  11.663 -0.2347  0.1997 -0.1162
   57loPI   PO4  900  16.937   2.680  10.991  0.0639  0.1671 -0.0469
   57loPI   GL1  901  17.193   2.651  10.562  0.0191 -0.3451 -0.1053
   57loPI   GL2  902  16.866   2.493  10.480  0.0349 -0.0620 -0.0262
   57loPI   C1A  903  17.370   2.701  10.159  0.0621  0.2169 -0.0098
   57loPI   C2A  904  17.409   2.746   9.679  0.1913  0.3349 -0.1606
   57loPI   C3A  905  17.465   2.712   9.327 -0.0357 -0.1143  0.0847
   57loPI   C4A  906  17.507   2.630   8.938  0.2858 -0.3107 -0.0138
   57loPI   C5A  907  17.350   2.489   8.552  0.1700  0.0636  0.1726
   57loPI   C6A  908  17.202   2.341   8.118  0.1880  0.1202 -0.1724
   57loPI   C1B  909  16.898   2.577   9.969  0.1625 -0.1456  0.2320
   57loPI   C2B  910  16.994   2.572   9.480  0.1458  0.5549 -0.1105
   57loPI   C3B  911  17.012   2.595   9.006  0.1574  0.0057 -0.0607
   57loPI   C4B  912  16.848   2.711   8.690 -0.1290 -0.0517  0.1789
   58loPI    C1  913  15.538  10.696  11.646 -0.0630 -0.0899 -0.0961
   58loPI    C2  914  15.325  10.614  11.974 -0.0688 -0.0420 -0.0880
   58loPI    C3  915  15.428  10.991  11.892 -0.0186 -0.0607 -0.1113
   58loPI   PO4  916  15.359  10.615  11.392  0.0303  0.0904 -0.0256
   58loPI   GL1  917  15.594  10.731  10.961 -0.1042  0.1816  0.0138
   58loPI   GL2  918  15.541  10.390  10.998 -0.0448 -0.2602 -0.0867
   58loPI   C1A  919  15.587  10.721  10.495 -0.3345 -0.1825 -0.1304
   58loPI   C2A  920  15.619  10.748   9.945 -0.2761  0.1930 -0.5167
   58loPI   C3A  921  15.614  10.865   9.504 -0.3488  0.0585  0.0266
   58loPI   C4A  922  15.505  10.754   9.069 -0.2652 -0.1606 -0.1401
   58loPI   C5A  923  15.426  10.444   8.820 -0.0323  0.0814  0.2131
   58loPI   C6A  924  15.690  10.098   8.583 -0.2005  0.2439 -0.1780
   58loPI   C1B  925  15.423  10.269  10.568 -0.0936 -0.1918  0.1229
   58loPI   C2B  926  15.473  10.338  10.142 -0.1075  0.1631 -0.0768
   58loPI   C3B  927  15.432  10.356   9.716 -0.0507  0.1784  0.0066
   58loPI   C4B  928  15.354  10.359   9.310  0.1518  0.2349  0.0877
   59loPI    C1  929   6.049  13.070  11.794  0.1655  0.0529  0.1231
   59loPI    C2  930   5.702  13.133  11.983  0.1006 -0.0771  0.0488
   59loPI    C3  931   6.045  13.258  12.147  0.0004  0.2407  0.0233
   59loPI   PO4  932   5.974  13.081  11.522  0.1783 -0.0003  0.1322
   59loPI   GL1  933   5.952  13.455  11.202 -0.1001 -0.3224 -0.1407
   59loPI   GL2  934   5.739  13.320  11.060 -0.0594 -0.0283  0.0808
   59loPI   C1A  935   6.132  13.724  10.743  0.1259  0.2649 -0.2619
   59loPI   C2A  936   6.079  13.801  10.386  0.0339  0.1753 -0.3158
   59loPI   C3A  937   6.058  13.796   9.988 -0.5305 -0.0615  0.0543
   59loPI   C4A  938   5.997  13.651   9.570 -0.0536  0.0243  0.0259
   59loPI   C5A  939   5.995  13.612   9.091 -0.1283 -0.1592 -0.0383
   59loPI   C6A  940   6.004  13.598   8.619 -0.2846 -0.0839 -0.0549
   59loPI   C1B  941   5.611  13.575  10.712 -0.0941 -0.2563  0.1624
   59loPI   C2B  942   5.608  13.556  10.281  0.2394  0.0350 -0.0758
   59loPI   C3B  943   5.556  13.592   9.904 -0.4607 -0.0869 -0.0865
   59loPI   C4B  944   5.518  13.438   9.544  0.1924  0.0382 -0.4714
   60loPI    C1  945   2.858  15.135  11.697  0.1749  0.0346  0.0541
   60loPI    C2  946   2.856  14.759  11.832 -0.0347 -0.0427 -0.1585
   60loPI    C3  947   2.875  15.063  12.090  0.2227 -0.1987  0.0106
   60loPI   PO4  948   2.965  15.126  11.519  0.1526 -0.0823 -0.1758
   60loPI   GL1  949   2.966  15.172  11.189  0.0117 -0.0722  0.2970
   60loPI   GL2  950   2.845  14.964  11.019  0.0416  0.1645  0.0347
   60loPI   C1A  951   3.065  15.243  10.703  0.0251  0.0192  0.0725
   60loPI   C2A  952   3.095  15.141  10.313 -0.3080 -0.4590 -0.2002
   60loPI   C3A  953   3.164  15.133   9.881 -0.0621  0.1339  0.0298
   60loPI   C4A  954   3.263  15.117   9.487 -0.1604  0.0627  0.0742
   60loPI   C5A  955   3.321  15.165   9.159  0.2245  0.1459 -0.2610
   60loPI   C6A  956   3.313  15.383   8.716 -0.1562 -0.1632  0.0441
   60loPI   C1B  957   2.658  14.991  10.587  0.0214 -0.1302  0.5127
   60loPI   C2B  958   2.649  15.090  10.110  0.0598  0.3291  0.0604
   60loPI   C3B  959   2.707  15.058   9.715  0.2227  0.0619  0.3674
   60loPI   C4B  960   2.814  15.057   9.225 -0.2573  0.0441  0.0019
   61loPI    C1  961  14.730  15.739  11.454  0.1926 -0.3763 -0.1077
   61loPI    C2  962  14.777  15.736  11.851 -0.0594  0.1541 -0.0649
   61loPI    C3  963  15.095  15.692  11.611  0.1115 -0.0446  0.1918
   61loPI   PO4  964  14.538  15.680  11.378 -0.1329 -0.0717  0.0923
   61loPI   GL1  965  14.534  15.515  10.962 -0.4254  0.2969  0.0344
   61loPI   GL2  966  14.788  15.778  10.905 -0.0835 -0.0875 -0.1627
   61loPI   C1A  967  14.337  15.554  10.554  0.0476 -0.0187 -0.0660
   61loPI   C2A  968  14.373  15.598  10.128 -0.1234 -0.1468 -0.0275
   61loPI   C3A  969  14.342  15.576   9.650 -0.1166  0.0898 -0.0965
   61loPI   C4A  970  14.236  15.681   9.220 -0.0300  0.1423  0.1963
   61loPI   C5A  971  14.126  15.732   8.772  0.1026 -0.0972  0.1580
   61loPI   C6A  972  13.823  15.906   8.637  0.1050  0.0449  0.0255
   61loPI   C1B  973  14.813  15.775  10.414 -0.4272 -0.1035 -0.1966
   61loPI   C2B  974  14.869  15.830   9.957  0.1186 -0.0790 -0.1513
   61loPI   C3B  975  14.874  15.769   9.458  0.4556  0.2778 -0.1624
   61loPI   C4B  976  15.061  15.864   9.117 -0.1587 -0.0857  0.0706
   62loPI    C1  977  14.763  17.535  11.276 -0.1569  0.0218 -0.1693
   62loPI    C2  978  14.496  17.833  11.273 -0.1663  0.0130 -0.2119
   62loPI    C3  979  14.614  17.674  11.621 -0.4381 -0.1821 -0.2060
   62loPI   PO4  980  14.601  17.304  11.199 -0.3206  0.0065  0.2550
   62loPI   GL1  981  14.352  17.475  10.899  0.0253  0.0666 -0.1870
   62loPI   GL2  982  14.009  17.506  10.703  0.1881 -0.0244  0.0395
   62loPI   C1A  983  14.465  17.519  10.508 -0.2779 -0.1746 -0.0052
   62loPI   C2A  984  14.463  17.438   9.966 -0.2042  0.0731 -0.1214
   62loPI   C3A  985  14.346  17.506   9.561 -0.2292  0.1234  0.0667
   62loPI   C4A  986  14.442  17.455   9.080 -0.0817  0.1637  0.1490
   62loPI   C5A  987  14.446  17.041   8.760  0.3439 -0.0408  0.1048
   62loPI   C6A  988  14.479  16.584   8.686  0.0901 -0.0034  0.0685
   62loPI   C1B  989  14.026  17.446  10.258  0.0637  0.2502  0.1146
   62loPI   C2B  990  13.899  17.399   9.823  0.2117 -0.1528 -0.1400
   62loPI   C3B  991  13.872  17.366   9.360  0.0788 -0.2180 -0.2069
   62loPI   C4B  992  13.982  17.213   8.984 -0.0828  0.1073 -0.1271
   63loPI    C1  993  16.420   3.579  11.451  0.1046 -0.2349 -0.0316
   63loPI    C2  994  16.543   3.364  11.765 -0.0959  0.1824  0.3433
   63loPI    C3  995  16.418   3.740  11.816 -0.2599  0.2146 -0.2222
   63loPI   PO4  996  16.595   3.473  11.265 -0.0284 -0.2116 -0.1725
   63loPI   GL1  997  16.649   3.606  10.868  0.0877  0.1892  0.3419
   63loPI   GL2  998  16.920   3.657  10.745 -0.0857 -0.0370 -0.0898
   63loPI   C1A  999  16.536   3.485  10.422  0.2463 -0.0565  0.0641
   63loPI   C2A 1000  16.627   3.337  10.004 -0.0808  0.3760  0.0166
   63loPI   C3A 1001  16.692   3.273   9.582  0.1161  0.0472 -0.1465
   63loPI   C4A 1002  16.644   3.361   9.096  0.0151 -0.0492 -0.2335
   63loPI   C5A 1003  16.605   3.533   8.719 -0.0760  0.0413  0.1381
   63loPI   C6A 1004  16.653   3.668   8.274  0.0999  0.5951 -0.1036
   63loPI   C1B 1005  17.061   3.508  10.311  0.1986  0.3372  0.2023
   63loPI   C2B 1006  17.079   3.571   9.831  0.0968  0.0358 -0.1206
   63loPI   C3B 1007  17.049   3.587   9.400  0.0994  0.0671 -0.1631
   63loPI   C4B 1008  17.100   3.648   8.955 -0.0428 -0.1251  0.2108
   64loPI    C1 1009   6.240   0.758  11.639 -0.0108 -0.0159 -0.0013
   64loPI    C2 1010   6.067   0.498  11.890  0.0735 -0.0211  0.0520
   64loPI    C3 1011   6.079   0.888  11.981  0.0681 -0.0173  0.0368
   64loPI   PO4 1012   6.176   0.718  11.411  0.1361  0.2730 -0.2210
   64loPI   GL1 1013   5.973   0.773  10.974  0.1183  0.0482  0.2325
   64loPI   GL2 1014   6.202   0.831  10.895 -0.3656  0.0263  0.2364
   64loPI   C1A 1015   5.809   0.717  10.644  0.1681 -0.1923  0.0413
   64loPI   C2A 1016   5.838   0.694  10.141 -0.0881  0.1077  0.0906
   64loPI   C3A 1017   5.886   0.690   9.750  0.2982  0.0119  0.0100
   64loPI   C4A 1018   5.980   0.677   9.318  0.0076 -0.0800  0.0687
   64loPI   C5A 1019   6.030   0.532   8.929  0.2341  0.0238 -0.1787
   64loPI   C6A 1020   5.833   0.761   8.723  0.2701  0.2307  0.3178
   64loPI   C1B 1021   6.311   0.888  10.496 -0.0131  0.3234  0.0198
   64loPI   C2B 1022   6.351   0.885  10.021 -0.0194 -0.2717 -0.0404
   64loPI   C3B 1023   6.343   0.847   9.659  0.4571 -0.2389  0.0679
   64loPI   C4B 1024   6.356   0.926   9.219 -0.0908  0.1126  0.2985
   65loPI    C1 1025   2.464  12.482  11.778  0.1562  0.1310 -0.0872
   65loPI    C2 1026   2.639  12.130  11.849 -0.1348  0.0126  0.0562
   65loPI    C3 1027   2.481  12.340  12.151 -0.0418  0.2251 -0.0410
   65loPI   PO4 1028   2.591  12.531  11.501  0.0941 -0.0077 -0.0943
   65loPI   GL1 1029   2.447  12.506  11.222  0.2832 -0.0128  0.2607
   65loPI   GL2 1030   2.460  12.216  11.073 -0.0404  0.0000  0.0480
   65loPI   C1A 1031   2.278  12.625  10.788  0.2341  0.0154 -0.1832
   65loPI   C2A 1032   2.114  12.471  10.453  0.0830 -0.0035 -0.2058
   65loPI   C3A 1033   2.102  12.505   9.938 -0.0940  0.1383  0.1659
   65loPI   C4A 1034   2.049  12.468   9.476  0.0050 -0.1569 -0.1869
   65loPI   C5A 1035   2.027  12.376   9.032 -0.1584  0.1048 -0.1117
   65loPI   C6A 1036   2.071  12.546   8.552 -0.0495 -0.4479  0.2189
   65loPI   C1B 1037   2.447  12.149  10.577 -0.4135  0.2701 -0.0010
   65loPI   C2B 1038   2.389  12.194  10.121 -0.1496  0.0704 -0.0066
   65loPI   C3B 1039   2.305  12.087   9.740  0.0505  0.0814 -0.3278
   65loPI   C4B 1040   2.423  12.201   9.363  0.1488 -0.3157 -0.0597
   66loPI    C1 1041   0.129  16.579  11.822 -0.2230 -0.0996 -0.2330
   66loPI    C2 1042   0.161  16.307  12.113  0.2815  0.0125 -0.1753
   66loPI    C3 1043   0.036  16.677  12.198 -0.1276 -0.1143 -0.2053
   66loPI   PO4 1044   0.345  16.544  11.686  0.1013  0.0990 -0.2777
   66loPI   GL1 1045   0.402  16.509  11.232 -0.3591  0.0231  0.1872
   66loPI   GL2 1046   0.577  16.206  10.963 -0.1683 -0.3476 -0.2072
   66loPI   C1A 1047   0.309  16.589  10.806  0.0909  0.2139 -0.2037
   66loPI   C2A 1048   0.280  16.677  10.313 -0.1213  0.0122 -0.3458
   66loPI   C3A 1049   0.382  16.686   9.790 -0.3095  0.3588 -0.0789
   66loPI   C4A 1050   0.288  16.624   9.426  0.0143  0.1225 -0.1184
   66loPI   C5A 1051   0.377  16.483   8.988 -0.4490  0.2228 -0.0215
   66loPI   C6A 1052   0.689  16.066   8.842  0.0150 -0.1141 -0.4172
   66loPI   C1B 1053   0.601  16.289  10.516  0.0880  0.2549 -0.1071
   66loPI   C2B 1054   0.649  16.292  10.112 -0.1994 -0.2010 -0.2486
   66loPI   C3B 1055   0.762  16.306   9.699  0.4718  0.1408  0.3686
   66loPI   C4B 1056   0.808  16.283   9.271  0.3770 -0.2282 -0.1278
   67loPI    C1 1057   5.215  12.029  11.603  0.5563 -0.3032  0.2498
   67loPI    C2 1058   4.993  11.874  11.897  0.0708 -0.0181  0.0467
   67loPI    C3 1059   5.202  12.209  11.960 -0.1434  0.1201  0.0315
   67loPI   PO4 1060   5.023  11.970  11.354  0.0121  0.4950 -0.1612
   67loPI   GL1 1061   5.216  11.901  10.986 -0.0047  0.0108 -0.4006
   67loPI   GL2 1062   5.546  11.890  10.867 -0.2851 -0.2240 -0.1214
   67loPI   C1A 1063   5.111  12.026  10.605  0.0405  0.3332  0.0275
   67loPI   C2A 1064   5.134  12.034  10.106  0.2061  0.1525 -0.1713
   67loPI   C3A 1065   5.185  11.966   9.726 -0.3733 -0.0133 -0.2305
   67loPI   C4A 1066   5.070  11.931   9.327 -0.3179  0.1331  0.0486
   67loPI   C5A 1067   4.973  11.834   8.946  0.0334  0.1726  0.1996
   67loPI   C6A 1068   5.285  11.895   8.628 -0.1810  0.3453  0.0617
   67loPI   C1B 1069   5.581  11.934  10.343 -0.1345 -0.3124 -0.2824
   67loPI   C2B 1070   5.613  12.009   9.964  0.0476 -0.4460  0.3085
   67loPI   C3B 1071   5.646  12.186   9.607  0.0148  0.2387 -0.0107
   67loPI   C4B 1072   5.612  12.144   9.175  0.0095 -0.1166 -0.1343
   68loPI    C1 1073  14.215   2.798  11.455  0.1156  0.0253  0.0247
   68loPI    C2 1074  14.085   2.491  11.676  0.1026  0.0899  0.1073
   68loPI    C3 1075  13.955   2.862  11.753  0.1150  0.1158  0.0052
   68loPI   PO4 1076  14.105   2.712  11.215 -0.0610  0.1257  0.0896
   68loPI   GL1 1077  13.865   2.975  10.850  0.1011  0.2317  0.2058
   68loPI   GL2 1078  13.724   2.780  10.847  0.0849  0.1656 -0.1350
   68loPI   C1A 1079  13.967   2.740  10.439  0.2579  0.1344  0.0216
   68loPI   C2A 1080  14.119   2.543  10.026  0.0439  0.0443 -0.0225
   68loPI   C3A 1081  14.125   2.583   9.551 -0.0024  0.0641 -0.0795
   68loPI   C4A 1082  14.135   2.628   9.135 -0.1615 -0.2697 -0.1632
   68loPI   C5A 1083  14.540   2.572   8.856  0.1420  0.3808  0.3757
   68loPI   C6A 1084  14.887   2.244   8.748  0.0126 -0.1226 -0.0688
   68loPI   C1B 1085  13.563   2.475  10.416 -0.1207  0.0259  0.4120
   68loPI   C2B 1086  13.612   2.474   9.909 -0.2713 -0.1833 -0.0584
   68loPI   C3B 1087  13.651   2.437   9.459 -0.0709  0.1798  0.0652
   68loPI   C4B 1088  13.641   2.516   9.024  0.0025  0.1930 -0.0422
   69loPI    C1 1089   3.347  16.233  11.785  0.0451  0.0746 -0.0609
   69loPI    C2 1090   3.163  15.921  11.955  0.0155  0.0165 -0.1981
   69loPI    C3 1091   3.547  15.996  12.037  0.0191 -0.0484 -0.1548
   69loPI   PO4 1092   3.223  16.149  11.447  0.2925  0.0896 -0.4619
   69loPI   GL1 1093   2.950  16.367  11.168  0.1490  0.0530  0.1814
   69loPI   GL2 1094   2.493  16.310  11.031  0.1127 -0.6546 -0.1396
   69loPI   C1A 1095   3.085  16.408  10.798  0.0694 -0.1648  0.1285
   69loPI   C2A 1096   3.095  16.595  10.399  0.2794  0.2516 -0.2680
   69loPI   C3A 1097   3.135  16.606   9.869  0.1566 -0.1543 -0.4638
   69loPI   C4A 1098   3.084  16.538   9.482  0.1336  0.1435  0.1914
   69loPI   C5A 1099   3.034  16.430   8.946  0.1819  0.4221  0.1857
   69loPI   C6A 1100   2.658  16.550   8.658  0.0237 -0.1511 -0.5040
   69loPI   C1B 1101   2.613  16.413  10.597 -0.2056  0.1248 -0.4371
   69loPI   C2B 1102   2.632  16.464  10.165 -0.0356  0.0758  0.1502
   69loPI   C3B 1103   2.660  16.439   9.757 -0.0283  0.0194  0.0870
   69loPI   C4B 1104   2.636  16.358   9.296 -0.0993 -0.1563 -0.0990
   70loPI    C1 1105   5.036  16.007  11.740 -0.3496  0.0814 -0.2346
   70loPI    C2 1106   4.924  15.903  12.109 -0.1685  0.1570 -0.1575
   70loPI    C3 1107   4.934  16.289  12.004 -0.0010  0.1505 -0.1688
   70loPI   PO4 1108   4.951  15.840  11.561 -0.0386  0.2276  0.2589
   70loPI   GL1 1109   4.869  15.665  11.084  0.2585  0.1461 -0.2165
   70loPI   GL2 1110   5.140  15.617  11.087  0.5532  0.2640 -0.3039
   70loPI   C1A 1111   4.635  15.616  10.695 -0.1577  0.0666  0.0046
   70loPI   C2A 1112   4.664  15.583  10.241 -0.2369  0.0590  0.0696
   70loPI   C3A 1113   4.709  15.633   9.887  0.4364 -0.0816 -0.2604
   70loPI   C4A 1114   4.859  15.643   9.420 -0.3457 -0.2781  0.2095
   70loPI   C5A 1115   5.083  15.385   9.056  0.0242  0.0152  0.1370
   70loPI   C6A 1116   5.370  15.056   8.980  0.2078  0.0833 -0.0117
   70loPI   C1B 1117   5.164  15.701  10.652 -0.1580  0.2046  0.1681
   70loPI   C2B 1118   5.203  15.821  10.218 -0.1527  0.2368 -0.1589
   70loPI   C3B 1119   5.248  15.782   9.762  0.1054  0.1966 -0.1477
   70loPI   C4B 1120   5.234  15.923   9.336 -0.1066  0.1668  0.1024
   71loPI    C1 1121   3.111   4.258  11.575  0.1694  0.0739 -0.1381
   71loPI    C2 1122   3.155   4.018  11.891  0.2053 -0.0389 -0.2283
   71loPI    C3 1123   2.849   4.276  11.877  0.1421 -0.1089 -0.1502
   71loPI   PO4 1124   3.185   4.062  11.334 -0.1553 -0.0537  0.1123
   71loPI   GL1 1125   3.526   3.674  11.161 -0.2365  0.3248 -0.2135
   71loPI   GL2 1126   3.555   3.403  10.975 -0.1639  0.0499 -0.2946
   71loPI   C1A 1127   3.333   3.752  10.716 -0.2529 -0.1873  0.2651
   71loPI   C2A 1128   3.385   3.710  10.315 -0.0501 -0.1362  0.0918
   71loPI   C3A 1129   3.330   3.539   9.900 -0.1368 -0.0140  0.0434
   71loPI   C4A 1130   3.307   3.476   9.480 -0.4249 -0.0546  0.1086
   71loPI   C5A 1131   3.273   3.732   9.143 -0.1652 -0.0811  0.0112
   71loPI   C6A 1132   3.024   3.757   8.728  0.2256 -0.4304  0.0424
   71loPI   C1B 1133   3.592   3.320  10.518 -0.0311  0.0672 -0.0424
   71loPI   C2B 1134   3.632   3.261  10.186  0.2255 -0.1405  0.2055
   71loPI   C3B 1135   3.676   3.231   9.683 -0.2044  0.0284  0.1297
   71loPI   C4B 1136   3.801   3.287   9.243  0.1409 -0.4218  0.2184
   72loPI    C1 1137   9.065  16.067  11.676  0.0557 -0.1489  0.0715
   72loPI    C2 1138   8.758  16.261  11.844  0.0544 -0.1903  0.1174
   72loPI    C3 1139   9.082  16.175  12.061  0.1357 -0.0676  0.0454
   72loPI   PO4 1140   9.106  16.174  11.459  0.1317  0.0136 -0.1630
   72loPI   GL1 1141   9.131  16.539  11.136 -0.2123 -0.4297 -0.1981
   72loPI   GL2 1142   9.230  16.798  11.338 -0.0729 -0.0550 -0.1267
   72loPI   C1A 1143   9.056  16.454  10.681  0.1308 -0.4185  0.1510
   72loPI   C2A 1144   8.976  16.523  10.263 -0.0950 -0.0998  0.2506
   72loPI   C3A 1145   9.060  16.441   9.823 -0.1741  0.1566 -0.0237
   72loPI   C4A 1146   9.018  16.363   9.420 -0.1596 -0.1475 -0.2424
   72loPI   C5A 1147   8.628  16.235   9.108 -0.4209  0.0965 -0.0933
   72loPI   C6A 1148   8.570  16.394   8.677  0.0605 -0.1059 -0.0288
   72loPI   C1B 1149   9.113  16.974  10.951 -0.3124  0.0100  0.1126
   72loPI   C2B 1150   9.123  16.985  10.403 -0.1747 -0.0059  0.2433
   72loPI   C3B 1151   9.134  16.917  10.030 -0.0275 -0.1963  0.1200
   72loPI   C4B 1152   9.300  17.092   9.739  0.2003  0.1450  0.1973
   73loPI    C1 1153   6.867  17.355  11.684 -0.0503  0.0009  0.0788
   73loPI    C2 1154   6.920  17.174  12.037  0.3013  0.1110  0.0868
   73loPI    C3 1155   6.744  17.533  12.020  0.0937  0.0125  0.1262
   73loPI   PO4 1156   6.760  17.195  11.566  0.0473  0.0224 -0.3244
   73loPI   GL1 1157   6.900  17.101  11.247  0.2699 -0.1179  0.0393
   73loPI   GL2 1158   7.054  17.369  11.202 -0.1879 -0.1048  0.1602
   73loPI   C1A 1159   6.684  16.994  10.896 -0.3178 -0.0784 -0.0314
   73loPI   C2A 1160   6.490  17.169  10.472 -0.0651  0.2288 -0.1082
   73loPI   C3A 1161   6.469  17.167  10.045 -0.1519  0.1894 -0.6093
   73loPI   C4A 1162   6.524  17.116   9.583 -0.0870  0.5857 -0.0222
   73loPI   C5A 1163   6.574  17.093   9.134 -0.1315  0.1593 -0.1196
   73loPI   C6A 1164   6.465  17.297   8.761  0.0710 -0.1719 -0.0063
   73loPI   C1B 1165   7.082  17.284  10.829 -0.0593 -0.0236 -0.3021
   73loPI   C2B 1166   6.930  17.314  10.343  0.1150 -0.1115 -0.0967
   73loPI   C3B 1167   6.975  17.268   9.921 -0.0914  0.1813  0.1432
   73loPI   C4B 1168   6.996  17.260   9.398 -0.1517  0.1977  0.2032
   74loPI    C1 1169   2.185  11.525  11.590 -0.1300 -0.0180  0.2021
   74loPI    C2 1170   2.202  11.126  11.568  0.1107 -0.0094  0.2120
   74loPI    C3 1171   2.260  11.310  11.919  0.2000  0.0428  0.1702
   74loPI   PO4 1172   2.263  11.564  11.303  0.1553  0.1511  0.0766
   74loPI   GL1 1173   2.240  11.525  10.829 -0.0422  0.0026 -0.3350
   74loPI   GL2 1174   2.550  11.720  10.903  0.0829  0.1287 -0.1936
   74loPI   C1A 1175   2.318  11.555  10.384 -0.0978  0.1334  0.1099
   74loPI   C2A 1176   2.371  11.672   9.982  0.0119  0.2107  0.1653
   74loPI   C3A 1177   2.316  11.651   9.463 -0.3055  0.2482 -0.2575
   74loPI   C4A 1178   2.390  11.833   9.039  0.1028  0.2925 -0.0035
   74loPI   C5A 1179   2.741  11.860   8.766 -0.0956 -0.1774 -0.0175
   74loPI   C6A 1180   3.198  12.003   8.688  0.1769 -0.0952 -0.0133
   74loPI   C1B 1181   2.828  11.823  10.539  0.1684  0.0903  0.1502
   74loPI   C2B 1182   2.782  11.850  10.131  0.1065 -0.2733 -0.3416
   74loPI   C3B 1183   2.779  11.910   9.609 -0.1340  0.4048 -0.3821
   74loPI   C4B 1184   2.892  11.786   9.287 -0.1038  0.0326 -0.1521
   75loPI    C1 1185   4.649   5.155  11.309  0.0614 -0.0114  0.1979
   75loPI    C2 1186   4.306   5.050  11.132  0.0808  0.0960  0.0950
   75loPI    C3 1187   4.367   4.962  11.517  0.0010 -0.0590  0.0732
   75loPI   PO4 1188   4.698   5.377  11.123 -0.0167  0.5543  0.1169
   75loPI   GL1 1189   4.490   5.406  10.822 -0.1732  0.2168  0.0387
   75loPI   GL2 1190   4.212   5.218  10.649 -0.2032  0.0205  0.1625
   75loPI   C1A 1191   4.669   5.397  10.400  0.1519  0.1464  0.2498
   75loPI   C2A 1192   4.737   5.309   9.944  0.0057 -0.0144 -0.2761
   75loPI   C3A 1193   4.922   5.266   9.552 -0.2783 -0.3096  0.0808
   75loPI   C4A 1194   4.875   5.230   9.083 -0.1094  0.2129 -0.2010
   75loPI   C5A 1195   4.464   5.148   8.906 -0.0443 -0.3897 -0.1274
   75loPI   C6A 1196   4.114   5.125   8.903 -0.1160  0.2149  0.1688
   75loPI   C1B 1197   4.293   5.181  10.142 -0.0121  0.0292  0.0835
   75loPI   C2B 1198   4.217   4.851   9.822  0.1696  0.1623  0.2039
   75loPI   C3B 1199   4.340   4.637   9.374 -0.0996  0.1083 -0.0717
   75loPI   C4B 1200   4.391   4.701   9.018  0.3033  0.2069 -0.0999
   76loPI    C1 1201  16.963  14.750  11.414  0.0686 -0.2050 -0.1831
   76loPI    C2 1202  16.992  15.104  11.599  0.2792 -0.2247 -0.1757
   76loPI    C3 1203  16.795  14.803  11.773  0.2985 -0.1802 -0.0768
   76loPI   PO4 1204  16.954  14.742  11.209 -0.0405 -0.3128 -0.0021
   76loPI   GL1 1205  16.937  14.447  10.813  0.0339  0.1175 -0.0541
   76loPI   GL2 1206  17.244  14.362  10.948  0.0598 -0.2644  0.1786
   76loPI   C1A 1207  16.870  14.458  10.402  0.2655 -0.0730 -0.0832
   76loPI   C2A 1208  16.945  14.529   9.900  0.1172 -0.0011 -0.3088
   76loPI   C3A 1209  16.859  14.414   9.456 -0.0074 -0.3493 -0.1806
   76loPI   C4A 1210  16.942  14.566   9.084  0.1898  0.0231 -0.1990
   76loPI   C5A 1211  16.824  14.577   8.707 -0.1765 -0.1726 -0.1122
   76loPI   C6A 1212  16.863  14.801   8.428  0.5196  0.0821  0.1615
   76loPI   C1B 1213  17.293  14.229  10.494 -0.1363 -0.0660  0.0436
   76loPI   C2B 1214  17.229  14.193  10.152  0.0688 -0.1196 -0.1864
   76loPI   C3B 1215  17.261  14.159   9.683 -0.4054  0.1420 -0.0044
   76loPI   C4B 1216  17.133  14.123   9.255  0.0851 -0.1998 -0.0821
   77loPI    C1 1217   7.130   9.378  11.827  0.1786 -0.0774  0.0016
   77loPI    C2 1218   7.448   9.514  12.028  0.0253  0.1043  0.1251
   77loPI    C3 1219   7.093   9.694  12.069 -0.0898 -0.0827 -0.0288
   77loPI   PO4 1220   7.134   9.457  11.615  0.3966  0.1847  0.0753
   77loPI   GL1 1221   7.009   9.277  11.298 -0.0936 -0.3615  0.0679
   77loPI   GL2 1222   7.263   9.362  11.115 -0.0447 -0.1423  0.0776
   77loPI   C1A 1223   6.792   9.219  10.913 -0.2271 -0.2294 -0.1205
   77loPI   C2A 1224   6.718   9.171  10.496  0.1392 -0.0274  0.0563
   77loPI   C3A 1225   6.626   9.156  10.078  0.0278  0.2303  0.0989
   77loPI   C4A 1226   6.781   9.125   9.690  0.0274  0.0769 -0.2586
   77loPI   C5A 1227   6.732   9.109   9.354 -0.1174 -0.1476 -0.1746
   77loPI   C6A 1228   6.978   9.085   9.051 -0.0083 -0.0909  0.0246
   77loPI   C1B 1229   7.368   9.312  10.746 -0.1477  0.0111 -0.2936
   77loPI   C2B 1230   7.324   9.233  10.337  0.3543 -0.0107 -0.2144
   77loPI   C3B 1231   7.419   9.323   9.811 -0.0534 -0.1330 -0.4822
   77loPI   C4B 1232   7.290   9.351   9.378  0.2355  0.2703  0.0854
   78loPI    C1 1233  13.151   4.018  11.195  0.0136 -0.0674 -0.4151
   78loPI    C2 1234  13.544   3.989  11.126  0.0849 -0.0618 -0.0340
   78loPI    C3 1235  13.393   3.864  11.475 -0.2496 -0.0390 -0.1674
   78loPI   PO4 1236  13.076   4.130  11.014 -0.1013 -0.1882 -0.1519
   78loPI   GL1 1237  13.117   3.972  10.707  0.0264 -0.0429 -0.1637
   78loPI   GL2 1238  12.847   3.753  10.618 -0.2437 -0.0717 -0.2503
   78loPI   C1A 1239  13.173   4.049  10.298  0.1975 -0.1508 -0.1359
   78loPI   C2A 1240  13.292   3.808   9.847 -0.1999  0.2472 -0.2692
   78loPI   C3A 1241  13.201   3.563   9.479  0.1390  0.0948  0.1165
   78loPI   C4A 1242  13.090   3.188   9.211 -0.1654 -0.1579  0.3843
   78loPI   C5A 1243  12.799   3.309   8.912 -0.0583  0.1692  0.2501
   78loPI   C6A 1244  12.561   3.532   8.792  0.0061 -0.0643  0.2396
   78loPI   C1B 1245  12.848   3.636  10.183 -0.2393  0.0916 -0.2048
   78loPI   C2B 1246  12.801   3.675   9.792  0.1092  0.0933  0.1571
   78loPI   C3B 1247  12.653   3.952   9.500  0.1745 -0.0966  0.0644
   78loPI   C4B 1248  12.457   4.124   9.101 -0.0455 -0.1629 -0.2446
   79loPI    C1 1249   3.574  10.935  11.750 -0.1456  0.1378  0.1651
   79loPI    C2 1250   3.444  11.263  11.937  0.0568  0.3132  0.0028
   79loPI    C3 1251   3.736  11.044  12.100 -0.0730  0.2163  0.1073
   79loPI   PO4 1252   3.613  10.983  11.461  0.1486 -0.2993  0.1165
   79loPI   GL1 1253   3.896  10.893  11.112  0.1294 -0.2334  0.0539
   79loPI   GL2 1254   4.154  11.020  11.078 -0.0012 -0.1116  0.1617
   79loPI   C1A 1255   3.944  10.665  10.728 -0.1159  0.3140  0.5373
   79loPI   C2A 1256   3.932  10.693  10.226  0.2166  0.0349 -0.2497
   79loPI   C3A 1257   3.940  10.670   9.880 -0.0741 -0.0844 -0.1137
   79loPI   C4A 1258   3.949  10.729   9.492 -0.3150 -0.0993 -0.0372
   79loPI   C5A 1259   4.068  10.735   9.094  0.0034  0.2504  0.0105
   79loPI   C6A 1260   3.812  10.952   8.822 -0.0132 -0.0186  0.0919
   79loPI   C1B 1261   4.100  11.200  10.614  0.2136 -0.2341 -0.0510
   79loPI   C2B 1262   4.109  11.156  10.097 -0.0860  0.0324  0.1714
   79loPI   C3B 1263   4.069  11.188   9.660  0.2285  0.1077  0.0813
   79loPI   C4B 1264   4.130  11.185   9.250 -0.2865 -0.1702  0.0397
   80loPI    C1 1265   0.504   3.988  11.405  0.1523 -0.0696  0.0393
   80loPI    C2 1266   0.841   3.973  11.620  0.2080 -0.0219 -0.0440
   80loPI    C3 1267   0.486   3.993  11.804  0.2516 -0.0513  0.0437
   80loPI   PO4 1268   0.595   3.953  11.190  0.1883  0.2682  0.2220
   80loPI   GL1 1269   0.639   3.751  10.828  0.2804  0.0915  0.0148
   80loPI   GL2 1270   0.835   3.545  10.843 -0.1267  0.1727  0.1372
   80loPI   C1A 1271   0.465   3.892  10.462  0.1267  0.0240 -0.3820
   80loPI   C2A 1272   0.487   3.749  10.097 -0.5919 -0.3977  0.1613
   80loPI   C3A 1273   0.433   3.896   9.710  0.1426 -0.1602 -0.0915
   80loPI   C4A 1274   0.533   3.893   9.276 -0.3065 -0.2038 -0.0955
   80loPI   C5A 1275   0.614   4.003   8.819 -0.1851 -0.2160 -0.1229
   80loPI   C6A 1276   0.623   4.255   8.437  0.1729 -0.1422 -0.3040
   80loPI   C1B 1277   0.849   3.451  10.340 -0.1531  0.0478  0.2767
   80loPI   C2B 1278   0.865   3.460   9.884 -0.0778  0.0199 -0.1300
   80loPI   C3B 1279   0.858   3.488   9.485 -0.2020 -0.2633 -0.0110
   80loPI   C4B 1280   0.891   3.482   8.992  0.0567  0.0792 -0.1741
   81loPI    C1 1281   9.978  16.587  11.702 -0.1008 -0.2053  0.1248
   81loPI    C2 1282   9.643  16.802  11.677  0.0759  0.0771  0.1443
   81loPI    C3 1283   9.654  16.476  11.907 -0.1756  0.0822  0.1663
   81loPI   PO4 1284  10.070  16.518  11.351  0.2093 -0.0652 -0.0414
   81loPI   GL1 1285   9.813  16.669  11.057  0.0124 -0.1280 -0.0273
   81loPI   GL2 1286  10.040  16.833  10.952 -0.0244  0.2207  0.0295
   81loPI   C1A 1287   9.523  16.575  10.692 -0.3351 -0.2028 -0.0072
   81loPI   C2A 1288   9.480  16.598  10.305  0.0278  0.0590  0.3633
   81loPI   C3A 1289   9.537  16.613   9.834 -0.1651  0.1377 -0.0712
   81loPI   C4A 1290   9.624  16.609   9.403 -0.2033  0.1318 -0.0195
   81loPI   C5A 1291   9.565  16.560   8.947 -0.0753  0.1270  0.1566
   81loPI   C6A 1292   9.309  16.232   8.669  0.1427  0.0798  0.1977
   81loPI   C1B 1293   9.950  16.827  10.508 -0.0859 -0.4327 -0.2585
   81loPI   C2B 1294   9.936  16.654  10.083  0.1048  0.1845  0.0739
   81loPI   C3B 1295  10.025  16.771   9.670  0.3467  0.2187  0.0472
   81loPI   C4B 1296  10.114  16.798   9.236  0.0458 -0.2199 -0.1882
   82loPI    C1 1297  12.219   4.733  11.541 -0.0210 -0.0903  0.1803
   82loPI    C2 1298  11.835   4.708  11.431  0.0404 -0.1210 -0.0327
   82loPI    C3 1299  11.997   4.423  11.660  0.0046 -0.2428 -0.1587
   82loPI   PO4 1300  12.351   4.837  11.265  0.1734 -0.0195 -0.3017
   82loPI   GL1 1301  12.273   5.225  11.003  0.1612 -0.0037 -0.1585
   82loPI   GL2 1302  12.036   5.492  10.902  0.1824 -0.1087 -0.2318
   82loPI   C1A 1303  12.399   5.106  10.624 -0.0608  0.0361 -0.0356
   82loPI   C2A 1304  12.285   5.165  10.243  0.1844 -0.0491  0.0985
   82loPI   C3A 1305  12.359   5.125   9.763 -0.0030 -0.3342  0.0046
   82loPI   C4A 1306  12.254   5.048   9.360  0.0714 -0.3447 -0.1927
   82loPI   C5A 1307  12.309   4.968   9.024 -0.1563  0.2607  0.1074
   82loPI   C6A 1308  12.678   5.045   8.831  0.0650  0.2223 -0.2278
   82loPI   C1B 1309  12.015   5.499  10.520 -0.0666  0.2451 -0.0431
   82loPI   C2B 1310  11.927   5.517  10.137 -0.2380 -0.3264  0.0042
   82loPI   C3B 1311  11.950   5.484   9.711 -0.0536 -0.0849 -0.0811
   82loPI   C4B 1312  11.874   5.492   9.206 -0.0179 -0.1275  0.3628
   83loPI    C1 1313   9.796   0.850  11.724  0.0530  0.3810 -0.1898
   83loPI    C2 1314  10.179   0.735  11.721 -0.0860 -0.1081 -0.0836
   83loPI    C3 1315  10.022   0.896  12.051  0.0130  0.0479 -0.1116
   83loPI   PO4 1316   9.815   0.917  11.428 -0.2436 -0.2161  0.1820
   83loPI   GL1 1317   9.794   0.731  11.107  0.0845 -0.3302  0.0068
   83loPI   GL2 1318  10.001   0.909  10.934  0.1006  0.0517  0.1054
   83loPI   C1A 1319   9.475   0.882  10.712 -0.3319  0.3620  0.1389
   83loPI   C2A 1320   9.503   0.916  10.310  0.2520  0.2924 -0.2047
   83loPI   C3A 1321   9.581   0.917   9.854 -0.1171  0.2139  0.1568
   83loPI   C4A 1322   9.568   0.925   9.384 -0.2047  0.0446  0.0771
   83loPI   C5A 1323   9.553   0.666   8.989  0.1103  0.1121 -0.3201
   83loPI   C6A 1324   9.526   0.780   8.553  0.1822 -0.1129 -0.1458
   83loPI   C1B 1325   9.983   1.093  10.555 -0.1851 -0.0067  0.0608
   83loPI   C2B 1326   9.975   1.073  10.120  0.2012 -0.0785  0.1658
   83loPI   C3B 1327  10.063   1.123   9.769 -0.0172 -0.2102 -0.2447
   83loPI   C4B 1328  10.171   1.096   9.351 -0.1245  0.0049 -0.1398
   84loPI    C1 1329   0.694   1.843  11.507 -0.1510  0.0710 -0.0347
   84loPI    C2 1330   0.339   1.963  11.366 -0.1677  0.1740  0.0931
   84loPI    C3 1331   0.375   1.851  11.749 -0.0755  0.1047  0.0645
   84loPI   PO4 1332   0.833   1.868  11.263  0.4911  0.2170  0.1437
   84loPI   GL1 1333   0.833   1.969  10.911  0.2843 -0.1055  0.1946
   84loPI   GL2 1334   0.851   1.662  10.789 -0.1389 -0.1055 -0.1132
   84loPI   C1A 1335   0.878   2.139  10.461  0.3104 -0.0350  0.3504
   84loPI   C2A 1336   0.937   2.076  10.047  0.2515 -0.0501 -0.0901
   84loPI   C3A 1337   1.053   2.128   9.704 -0.1729  0.1395 -0.1793
   84loPI   C4A 1338   1.177   2.183   9.282 -0.0805 -0.0486  0.0337
   84loPI   C5A 1339   1.134   2.109   8.847  0.2872  0.2247  0.0726
   84loPI   C6A 1340   1.120   1.789   8.566  0.1584 -0.1766 -0.2155
   84loPI   C1B 1341   0.853   1.630  10.364  0.0003  0.1920  0.0535
   84loPI   C2B 1342   0.923   1.543   9.984  0.2822 -0.1306  0.3707
   84loPI   C3B 1343   0.934   1.622   9.573 -0.1876 -0.0547 -0.0518
   84loPI   C4B 1344   0.915   1.583   9.033  0.0018  0.2984 -0.0936
   85loPI    C1 1345  15.386   4.729  11.415  0.0035  0.2162 -0.0795
   85loPI    C2 1346  15.358   5.084  11.596  0.0529  0.2252 -0.0896
   85loPI    C3 1347  15.351   4.748  11.813  0.3719  0.2437 -0.0454
   85loPI   PO4 1348  15.228   4.720  11.243 -0.2266 -0.1163  0.0942
   85loPI   GL1 1349  15.243   4.925  10.758  0.1969 -0.1679  0.0040
   85loPI   GL2 1350  15.505   4.920  10.646  0.1353 -0.0265 -0.0601
   85loPI   C1A 1351  14.976   4.902  10.416  0.0136 -0.2433 -0.4390
   85loPI   C2A 1352  14.876   4.882  10.056  0.1031 -0.0814 -0.2314
   85loPI   C3A 1353  14.912   4.849   9.640  0.4151  0.1567  0.2229
   85loPI   C4A 1354  14.808   4.829   9.205 -0.2474 -0.0192  0.0639
   85loPI   C5A 1355  14.509   4.589   8.996  0.3789 -0.1616 -0.0683
   85loPI   C6A 1356  14.131   4.473   8.869 -0.1721  0.2416  0.1351
   85loPI   C1B 1357  15.436   4.956  10.214 -0.1160 -0.0771  0.1822
   85loPI   C2B 1358  15.238   5.225   9.928 -0.2287  0.0321  0.0268
   85loPI   C3B 1359  15.193   5.269   9.451 -0.0872 -0.0513  0.0870
   85loPI   C4B 1360  15.201   5.339   9.019  0.0801 -0.2916  0.0526
   86loPI    C1 1361  11.850  15.286  11.470  0.0566  0.1079 -0.0794
   86loPI    C2 1362  11.669  15.625  11.357 -0.0112  0.1468  0.1405
   86loPI    C3 1363  11.820  15.592  11.726  0.2042  0.0212  0.0436
   86loPI   PO4 1364  12.086  15.292  11.274  0.0856  0.1088 -0.0896
   86loPI   GL1 1365  12.027  15.554  10.910 -0.0604 -0.1962 -0.0960
   86loPI   GL2 1366  11.740  15.329  10.849 -0.2990  0.1412 -0.1039
   86loPI   C1A 1367  12.046  15.450  10.429 -0.1426 -0.2356 -0.0431
   86loPI   C2A 1368  12.015  15.529  10.043 -0.0506  0.1631  0.0740
   86loPI   C3A 1369  11.944  15.420   9.636 -0.1041 -0.1066  0.0129
   86loPI   C4A 1370  11.970  15.413   9.193 -0.0962  0.0369 -0.3764
   86loPI   C5A 1371  11.999  15.025   8.863 -0.0550  0.1743  0.1038
   86loPI   C6A 1372  12.123  14.674   8.741 -0.1214 -0.1454  0.1123
   86loPI   C1B 1373  11.570  15.355  10.388 -0.4269  0.3109 -0.0230
   86loPI   C2B 1374  11.580  15.379  10.017  0.0638  0.3066  0.0267
   86loPI   C3B 1375  11.429  15.244   9.634  0.0185 -0.1121  0.0871
   86loPI   C4B 1376  11.588  15.187   9.244 -0.1736  0.0347 -0.0558
   87loPI    C1 1377   9.663  11.281  11.354  0.1190  0.1615  0.1208
   87loPI    C2 1378   9.374  11.480  11.162 -0.2025 -0.3631  0.0429
   87loPI    C3 1379   9.335  11.396  11.551 -0.0394 -0.2235  0.0906
   87loPI   PO4 1380   9.697  11.126  11.199 -0.2505  0.0507  0.0198
   87loPI   GL1 1381   9.965  11.033  10.846 -0.0501 -0.3414  0.2387
   87loPI   GL2 1382   9.735  11.365  10.759 -0.0314 -0.1538  0.1546
   87loPI   C1A 1383  10.026  11.027  10.436 -0.0808 -0.0336 -0.3187
   87loPI   C2A 1384  10.041  11.001   9.886 -0.0215 -0.1405  0.0296
   87loPI   C3A 1385  10.054  11.061   9.440 -0.0054  0.1654  0.1004
   87loPI   C4A 1386  10.076  11.088   8.994 -0.1667  0.0724  0.0941
   87loPI   C5A 1387  10.083  11.123   8.610  0.0104  0.0860  0.1724
   87loPI   C6A 1388   9.865  11.134   8.299  0.2424  0.0368 -0.2669
   87loPI   C1B 1389   9.590  11.368  10.331 -0.2621  0.2059  0.2145
   87loPI   C2B 1390   9.696  11.331   9.958 -0.2359  0.3124  0.1903
   87loPI   C3B 1391   9.669  11.417   9.428 -0.1068  0.2315 -0.0145
   87loPI   C4B 1392   9.664  11.484   8.976  0.0862 -0.0162  0.4386
   88loPI    C1 1393  12.156  11.806  11.533  0.0887 -0.1155  0.0758
   88loPI    C2 1394  12.139  12.133  11.762  0.0723 -0.1681  0.1500
   88loPI    C3 1395  11.839  11.868  11.769 -0.1028  0.0133 -0.2087
   88loPI   PO4 1396  12.270  11.900  11.340 -0.3109  0.1264 -0.2286
   88loPI   GL1 1397  12.054  12.006  11.005 -0.1715  0.2628  0.2970
   88loPI   GL2 1398  11.641  12.039  10.973  0.1410  0.1894 -0.1465
   88loPI   C1A 1399  12.191  12.172  10.623  0.0079 -0.1082  0.1886
   88loPI   C2A 1400  12.307  12.158  10.186  0.2550  0.0256 -0.1620
   88loPI   C3A 1401  12.151  12.258   9.728  0.1646 -0.2924 -0.1275
   88loPI   C4A 1402  12.250  12.163   9.282  0.1862 -0.1550  0.0938
   88loPI   C5A 1403  11.963  12.162   8.969 -0.0116  0.0012  0.3527
   88loPI   C6A 1404  11.576  11.832   8.824 -0.0273 -0.2849  0.0929
   88loPI   C1B 1405  11.587  11.907  10.582  0.1968 -0.3312  0.0536
   88loPI   C2B 1406  11.552  11.938  10.238 -0.2136 -0.1788  0.0555
   88loPI   C3B 1407  11.637  12.069   9.850 -0.1825 -0.0889 -0.0907
   88loPI   C4B 1408  11.689  11.960   9.361  0.1522 -0.0150 -0.0186
   89loPI    C1 1409  15.943  15.155  11.462 -0.1696  0.0072  0.0766
   89loPI    C2 1410  16.201  14.949  11.688  0.3036  0.2025 -0.2688
   89loPI    C3 1411  16.107  15.326  11.784 -0.0636  0.0485  0.0011
   89loPI   PO4 1412  16.070  15.138  11.230 -0.1574  0.1768  0.0999
   89loPI   GL1 1413  16.226  14.959  10.898 -0.5001 -0.0305 -0.2613
   89loPI   GL2 1414  16.499  14.869  10.793  0.0497 -0.1400  0.1060
   89loPI   C1A 1415  16.129  15.156  10.607  0.3953 -0.0914 -0.2066
   89loPI   C2A 1416  16.151  15.204  10.236  0.0075 -0.0717  0.2659
   89loPI   C3A 1417  16.175  15.174   9.822 -0.0850  0.0724  0.0176
   89loPI   C4A 1418  16.178  15.201   9.374  0.2262 -0.2146 -0.0270
   89loPI   C5A 1419  16.215  15.264   8.967  0.3384  0.0648 -0.3156
   89loPI   C6A 1420  16.080  15.217   8.496  0.0298 -0.1036 -0.0350
   89loPI   C1B 1421  16.443  14.785  10.375  0.0411 -0.0103  0.1317
   89loPI   C2B 1422  16.512  14.881   9.942  0.0871 -0.2171  0.3497
   89loPI   C3B 1423  16.532  14.848   9.553 -0.1478  0.1770  0.2796
   89loPI   C4B 1424  16.521  14.906   9.137 -0.2046  0.2342 -0.0540
   90loPI    C1 1425  17.172   5.299  11.522 -0.0332  0.3032  0.0649
   90loPI    C2 1426  16.825   5.444  11.657 -0.1407  0.0427  0.0747
   90loPI    C3 1427  16.881   5.048  11.636  0.0027  0.0798 -0.3173
   90loPI   PO4 1428  17.231   5.480  11.297  0.3323 -0.2605 -0.0173
   90loPI   GL1 1429  17.134   5.584  10.887  0.2481 -0.1474 -0.0255
   90loPI   GL2 1430  17.535   5.574  10.872  0.0126 -0.1452  0.2918
   90loPI   C1A 1431  17.014   5.563  10.458 -0.0354  0.1919 -0.0839
   90loPI   C2A 1432  17.002   5.504  10.122 -0.1572  0.2520  0.0973
   90loPI   C3A 1433  17.109   5.485   9.705  0.0645  0.0030  0.1895
   90loPI   C4A 1434  16.945   5.469   9.275  0.3332 -0.0181 -0.2312
   90loPI   C5A 1435  17.157   5.592   8.984  0.1196  0.2433 -0.1862
   90loPI   C6A 1436  17.358   5.683   8.689  0.0571 -0.2806 -0.2622
   90loPI   C1B 1437  17.458   5.421  10.504  0.1971  0.0658 -0.1235
   90loPI   C2B 1438  17.520   5.646  10.113  0.0911  0.0909  0.0760
   90loPI   C3B 1439  17.589   5.623   9.743 -0.2001  0.0190  0.2469
   90loPI   C4B 1440  17.598   5.543   9.268  0.2256 -0.0342 -0.3976
   91loPI    C1 1441  14.592  10.536  11.441  0.3088 -0.2695 -0.1387
   91loPI    C2 1442  14.571  10.598  11.835 -0.1504 -0.1584 -0.1753
   91loPI    C3 1443  14.899  10.435  11.676  0.1600  0.0689  0.2126
   91loPI   PO4 1444  14.300  10.468  11.428  0.1570  0.0928  0.3503
   91loPI   GL1 1445  14.207  10.320  10.992 -0.0277 -0.0040  0.0551
   91loPI   GL2 1446  13.924  10.279  10.751 -0.1726  0.0744  0.0948
   91loPI   C1A 1447  14.347  10.530  10.621 -0.0432  0.0241 -0.2671
   91loPI   C2A 1448  14.495  10.499  10.243  0.1329 -0.2343  0.3004
   91loPI   C3A 1449  14.502  10.406   9.733 -0.1343  0.1735 -0.1208
   91loPI   C4A 1450  14.472  10.509   9.272 -0.1714 -0.0770 -0.1916
   91loPI   C5A 1451  14.489  10.552   8.832 -0.0605  0.1375 -0.1454
   91loPI   C6A 1452  14.186  10.450   8.529 -0.2209 -0.0180 -0.1904
   91loPI   C1B 1453  13.997  10.355  10.269  0.3222  0.0669  0.3088
   91loPI   C2B 1454  14.027  10.423   9.751 -0.0472  0.2362 -0.0141
   91loPI   C3B 1455  14.019  10.330   9.290 -0.1114  0.0517 -0.2084
   91loPI   C4B 1456  14.003  10.626   8.899  0.1223 -0.1198 -0.2159
   92loPI    C1 1457   4.908  15.243  11.370  0.0992  0.1673 -0.1153
   92loPI    C2 1458   4.916  15.371  11.749  0.0767 -0.2062  0.0156
   92loPI    C3 1459   5.245  15.396  11.522  0.1051 -0.0286  0.0751
   92loPI   PO4 1460   4.717  15.073  11.352  0.0352  0.1153 -0.0415
   92loPI   GL1 1461   4.495  15.307  11.040  0.1773  0.2406  0.0699
   92loPI   GL2 1462   4.182  15.467  11.031 -0.1844  0.0220  0.0415
   92loPI   C1A 1463   4.548  15.090  10.614  0.0687  0.0369  0.0662
   92loPI   C2A 1464   4.504  15.115  10.171  0.0525 -0.0006 -0.0507
   92loPI   C3A 1465   4.633  15.118   9.727  0.5365  0.5099  0.2756
   92loPI   C4A 1466   4.636  15.244   9.391 -0.2046  0.0222 -0.0517
   92loPI   C5A 1467   4.596  15.159   8.977 -0.1533  0.2813  0.0862
   92loPI   C6A 1468   4.719  15.190   8.539  0.0648  0.2001 -0.2191
   92loPI   C1B 1469   4.163  15.458  10.499  0.0771 -0.3890 -0.0377
   92loPI   C2B 1470   4.149  15.402  10.119 -0.2397 -0.1867  0.2802
   92loPI   C3B 1471   4.251  15.499   9.713 -0.2323  0.0825  0.0462
   92loPI   C4B 1472   4.193  15.477   9.146 -0.4147  0.2665 -0.1987
   93loPI    C1 1473  14.659   2.566  11.489  0.2405 -0.2622  0.0390
   93loPI    C2 1474  14.913   2.427  11.765  0.2552  0.0750  0.2011
   93loPI    C3 1475  14.952   2.801  11.629  0.1238 -0.0224 -0.1124
   93loPI   PO4 1476  14.609   2.470  11.337 -0.2432 -0.0833  0.0643
   93loPI   GL1 1477  14.456   2.494  10.895 -0.0604 -0.0531 -0.0194
   93loPI   GL2 1478  14.555   2.220  10.931 -0.2900 -0.1157 -0.2689
   93loPI   C1A 1479  14.563   2.441  10.513  0.1096 -0.0787  0.1517
   93loPI   C2A 1480  14.530   2.247  10.111  0.1359  0.1653  0.2965
   93loPI   C3A 1481  14.494   2.267   9.692  0.0315 -0.1223  0.1423
   93loPI   C4A 1482  14.536   2.250   9.258  0.0189 -0.2050  0.2463
   93loPI   C5A 1483  14.351   2.095   8.840 -0.1126  0.0058 -0.0214
   93loPI   C6A 1484  14.275   2.345   8.483  0.0435  0.2742 -0.3017
   93loPI   C1B 1485  14.492   1.939  10.582 -0.1777  0.1578  0.0556
   93loPI   C2B 1486  14.403   1.762  10.134  0.1228  0.1823  0.0640
   93loPI   C3B 1487  14.342   1.763   9.729  0.2265  0.0531  0.0446
   93loPI   C4B 1488  14.410   1.780   9.335 -0.0292  0.0373 -0.0904
   94loPI    C1 1489  16.217   1.789  11.296  0.1581  0.2960  0.2191
   94loPI    C2 1490  16.522   1.580  11.450  0.0742 -0.0543 -0.0740
   94loPI    C3 1491  16.189   1.637  11.665  0.0075 -0.4271 -0.0721
   94loPI   PO4 1492  16.398   2.034  11.164 -0.0501  0.0236  0.2247
   94loPI   GL1 1493  16.623   2.222  10.843 -0.2190 -0.3203 -0.0341
   94loPI   GL2 1494  16.405   2.468  10.734  0.0134  0.0292 -0.0396
   94loPI   C1A 1495  16.628   2.018  10.442 -0.0419 -0.4441 -0.1318
   94loPI   C2A 1496  16.740   2.087  10.017  0.1861  0.1106  0.0056
   94loPI   C3A 1497  16.832   2.081   9.606 -0.2921 -0.0183  0.0014
   94loPI   C4A 1498  16.906   2.033   9.250  0.1533  0.2954  0.0938
   94loPI   C5A 1499  16.816   1.835   8.815 -0.0586  0.0349  0.1573
   94loPI   C6A 1500  17.021   1.360   8.774  0.0784  0.0531 -0.1773
   94loPI   C1B 1501  16.406   2.395  10.265 -0.0978  0.0308 -0.1046
   94loPI   C2B 1502  16.423   2.384   9.798  0.1776 -0.1988  0.0311
   94loPI   C3B 1503  16.479   2.379   9.431  0.0523 -0.1808 -0.0504
   94loPI   C4B 1504  16.579   2.319   9.045  0.0316 -0.3416  0.0312
   95loPI    C1 1505  15.251  12.882  11.503  0.0696 -0.3045  0.1635
   95loPI    C2 1506  15.086  12.625  11.762  0.0109 -0.2259  0.2044
   95loPI    C3 1507  15.338  12.907  11.893  0.0165 -0.2149  0.1699
   95loPI   PO4 1508  15.091  12.920  11.295  0.1974 -0.2607  0.1501
   95loPI   GL1 1509  14.932  12.975  10.929 -0.4015 -0.0671 -0.0094
   95loPI   GL2 1510  14.667  12.797  10.979 -0.0988 -0.0600 -0.0269
   95loPI   C1A 1511  15.119  13.015  10.577  0.2524  0.1301  0.0891
   95loPI   C2A 1512  15.177  12.994  10.105  0.0872 -0.1258  0.1834
   95loPI   C3A 1513  15.242  13.068   9.643 -0.3281  0.0363 -0.0418
   95loPI   C4A 1514  15.210  12.992   9.228 -0.2499  0.0778 -0.1180
   95loPI   C5A 1515  15.102  12.680   8.859  0.0352 -0.0702 -0.1452
   95loPI   C6A 1516  15.058  12.610   8.420 -0.0515  0.1558 -0.1534
   95loPI   C1B 1517  14.596  12.899  10.582 -0.2006  0.1990 -0.0168
   95loPI   C2B 1518  14.713  12.859  10.226  0.0971 -0.3800 -0.0275
   95loPI   C3B 1519  14.721  12.963   9.725  0.1812  0.1779 -0.0896
   95loPI   C4B 1520  14.694  12.963   9.329 -0.2645  0.1182 -0.0466
   96loPI    C1 1521  10.348   5.164  11.572 -0.0871  0.2457 -0.0462
   96loPI    C2 1522  10.450   4.978  11.911 -0.0612 -0.1666 -0.2732
   96loPI    C3 1523  10.396   5.375  11.909  0.5171 -0.0738  0.0814
   96loPI   PO4 1524  10.568   5.106  11.390 -0.2104 -0.2917 -0.2539
   96loPI   GL1 1525  10.852   5.323  11.241 -0.1443  0.2001 -0.3836
   96loPI   GL2 1526  11.054   5.139  11.085  0.1642 -0.1158 -0.0599
   96loPI   C1A 1527  10.562   5.488  10.850 -0.2551  0.0508 -0.0357
   96loPI   C2A 1528  10.553   5.615  10.367  0.1733  0.0150 -0.2266
   96loPI   C3A 1529  10.485   5.572   9.925 -0.2255 -0.0476 -0.1254
   96loPI   C4A 1530  10.624   5.619   9.576 -0.1919  0.0855  0.0477
   96loPI   C5A 1531  10.624   5.589   9.171  0.0434 -0.1613  0.3020
   96loPI   C6A 1532  10.381   5.506   8.708  0.0800  0.1006 -0.2439
   96loPI   C1B 1533  11.023   5.018  10.720  0.1223 -0.0678  0.2725
   96loPI   C2B 1534  10.976   5.138  10.224 -0.0781 -0.0170 -0.0508
   96loPI   C3B 1535  10.928   5.273   9.832 -0.2240  0.0313 -0.0517
   96loPI   C4B 1536  10.938   5.248   9.368  0.0727 -0.1188  0.2391
   97loPI    C1 1537   3.082  10.991  11.786  0.1131  0.2976  0.0415
   97loPI    C2 1538   2.700  11.036  11.898  0.1027  0.2201  0.0372
   97loPI    C3 1539   2.992  11.056  12.171  0.0583 -0.2399  0.1271
   97loPI   PO4 1540   3.108  11.090  11.552 -0.3716 -0.1469  0.0270
   97loPI   GL1 1541   3.191  10.826  11.142 -0.2605 -0.2126 -0.1286
   97loPI   GL2 1542   3.395  11.043  10.997  0.2706  0.1557 -0.2836
   97loPI   C1A 1543   2.995  10.840  10.716  0.4377  0.0946 -0.4637
   97loPI   C2A 1544   2.963  10.914  10.365 -0.0096  0.0705 -0.2809
   97loPI   C3A 1545   3.014  10.888   9.938  0.0926  0.0191 -0.0885
   97loPI   C4A 1546   3.095  10.921   9.520 -0.1718  0.1366  0.1302
   97loPI   C5A 1547   3.113  11.115   9.165 -0.1774 -0.0339 -0.1874
   97loPI   C6A 1548   3.226  11.583   8.982  0.1634  0.0857 -0.2235
   97loPI   C1B 1549   3.610  11.018  10.510  0.1608 -0.2035 -0.0766
   97loPI   C2B 1550   3.617  11.040  10.053 -0.2296  0.0693  0.2051
   97loPI   C3B 1551   3.558  11.154   9.632 -0.1415  0.1673 -0.1267
   97loPI   C4B 1552   3.585  11.182   9.201  0.1996  0.1333 -0.1789
   98loPI    C1 1553   0.084   1.491  11.661 -0.0656 -0.1525 -0.1463
   98loPI    C2 1554   0.445   1.340  11.740  0.0951  0.0640 -0.4454
   98loPI    C3 1555   0.211   1.465  12.039  0.2310 -0.1541 -0.2439
   98loPI   PO4 1556   0.084   1.500  11.373  0.2434 -0.0497  0.0670
   98loPI   GL1 1557   0.252   1.698  10.965  0.1032  0.0941 -0.1016
   98loPI   GL2 1558   0.351   1.982  10.877  0.1717  0.0439 -0.0101
   98loPI   C1A 1559   0.267   1.533  10.572 -0.0211 -0.0613  0.0513
   98loPI   C2A 1560   0.415   1.465  10.202 -0.0331 -0.1654 -0.1777
   98loPI   C3A 1561   0.478   1.482   9.796 -0.0422 -0.1294  0.2956
   98loPI   C4A 1562   0.494   1.476   9.352  0.2927 -0.0184 -0.0441
   98loPI   C5A 1563   0.437   1.415   8.896 -0.0643 -0.2004  0.0041
   98loPI   C6A 1564   0.647   1.338   8.575  0.0473  0.0104  0.0670
   98loPI   C1B 1565   0.370   1.994  10.432  0.1351 -0.0671  0.3512
   98loPI   C2B 1566   0.435   1.965  10.072  0.2769 -0.2686 -0.0754
   98loPI   C3B 1567   0.592   1.985   9.657  0.1496  0.0637 -0.1117
   98loPI   C4B 1568   0.658   1.995   9.258  0.0392 -0.0935 -0.0484
   99loPI    C1 1569   1.788   2.692  11.437  0.0682  0.1169 -0.1911
   99loPI    C2 1570   1.758   3.071  11.559  0.0767 -0.0004  0.1876
   99loPI    C3 1571   1.495   2.798  11.687  0.1239 -0.1416 -0.0120
   99loPI   PO4 1572   1.926   2.740  11.181  0.3720  0.0862 -0.0959
   99loPI   GL1 1573   1.943   2.627  10.775 -0.2669  0.0448 -0.0013
   99loPI   GL2 1574   2.025   2.331  10.701  0.3703 -0.0019  0.2308
   99loPI   C1A 1575   2.129   2.935  10.429  0.0376 -0.0628  0.0532
   99loPI   C2A 1576   2.142   2.921   9.954 -0.0185 -0.0329 -0.0727
   99loPI   C3A 1577   2.129   2.907   9.595  0.0134  0.0319  0.2980
   99loPI   C4A 1578   2.208   2.975   9.062 -0.0235  0.0626  0.0537
   99loPI   C5A 1579   2.098   3.118   8.670  0.1340 -0.4690  0.0306
   99loPI   C6A 1580   1.774   3.303   8.290 -0.3043  0.0262 -0.4739
   99loPI   C1B 1581   2.021   2.457  10.346  0.0717  0.1126  0.4675
   99loPI   C2B 1582   2.028   2.378   9.906  0.4145 -0.2162 -0.0379
   99loPI   C3B 1583   2.006   2.407   9.427  0.2000  0.0917  0.2995
   99loPI   C4B 1584   2.167   2.392   8.943 -0.1389 -0.2373 -0.3554
  100loPI    C1 1585  13.505  17.314  11.431 -0.2120 -0.0333 -0.2775
  100loPI    C2 1586  13.671  17.499  11.745  0.0149 -0.2308 -0.2786
  100loPI    C3 1587  13.297  17.358  11.771 -0.1522  0.1984 -0.2691
  100loPI   PO4 1588  13.601  17.496  11.265 -0.0973  0.1119  0.1627
  100loPI   GL1 1589  13.513  17.719  10.909 -0.1632  0.2185  0.2840
  100loPI   GL2 1590  13.199  17.919  10.857 -0.3215  0.1120 -0.2399
  100loPI   C1A 1591  13.597  17.784  10.544  0.0830 -0.2112  0.1633
  100loPI   C2A 1592  13.555  17.723  10.039 -0.0705 -0.3859  0.1056
  100loPI   C3A 1593  13.459  17.739   9.561 -0.1496 -0.1525 -0.1014
  100loPI   C4A 1594  13.557  17.656   9.118  0.0641  0.2406 -0.2575
  100loPI   C5A 1595  13.586  17.425   8.717 -0.0787  0.1547  0.2849
  100loPI   C6A 1596  13.318  17.520   8.341  0.0030  0.0498  0.0293
  100loPI   C1B 1597  13.071  18.106  10.450 -0.3812 -0.0716  0.1215
  100loPI   C2B 1598  13.112  18.089  10.121 -0.0810 -0.3776 -0.2299
  100loPI   C3B 1599  13.131  18.105   9.691 -0.0325  0.0626 -0.0029
  100loPI   C4B 1600  13.172  18.052   9.260  0.0618 -0.1217  0.0010
  101loPI    C1 1601   3.738  11.758  11.580 -0.2319 -0.0036 -0.1472
  101loPI    C2 1602   3.442  11.757  11.849 -0.0797  0.1540  0.0233
  101loPI    C3 1603   3.802  11.613  11.947 -0.0494  0.1255 -0.1271
  101loPI   PO4 1604   3.881  11.939  11.412  0.2660  0.0930  0.1674
  101loPI   GL1 1605   4.073  12.024  11.141  0.0732 -0.1519 -0.2062
  101loPI   GL2 1606   4.077  12.387  11.114  0.1254 -0.1159  0.1474
  101loPI   C1A 1607   4.108  11.727  10.867 -0.0155 -0.2520 -0.2428
  101loPI   C2A 1608   4.152  11.744  10.501  0.0716  0.2506  0.0207
  101loPI   C3A 1609   4.184  11.633  10.124  0.1152 -0.0553  0.1803
  101loPI   C4A 1610   4.102  11.660   9.617  0.1822 -0.0177  0.2153
  101loPI   C5A 1611   4.246  11.710   9.207 -0.1165 -0.3497  0.0128
  101loPI   C6A 1612   4.185  11.874   8.789 -0.1418  0.0026 -0.3932
  101loPI   C1B 1613   4.006  12.518  10.668 -0.2073 -0.4439 -0.2184
  101loPI   C2B 1614   3.977  12.562  10.297 -0.0980 -0.5985  0.0085
  101loPI   C3B 1615   3.874  12.539   9.869  0.0556 -0.0041  0.0798
  101loPI   C4B 1616   3.943  12.716   9.462 -0.0147 -0.4124 -0.2503
  102loPI    C1 1617  13.817  14.732  11.692 -0.1086  0.0356 -0.1649
  102loPI    C2 1618  14.076  14.445  11.793  0.1552  0.1900 -0.3898
  102loPI    C3 1619  13.953  14.708  12.067 -0.1407 -0.1715 -0.1651
  102loPI   PO4 1620  13.997  14.811  11.420  0.2315 -0.0750 -0.4024
  102loPI   GL1 1621  14.077  14.923  10.956 -0.3135 -0.2477 -0.1262
  102loPI   GL2 1622  14.124  14.579  10.989  0.1333 -0.1299 -0.0035
  102loPI   C1A 1623  13.766  15.005  10.613  0.0793 -0.2188 -0.0367
  102loPI   C2A 1624  13.710  14.928  10.178 -0.0675  0.0352  0.1430
  102loPI   C3A 1625  13.778  14.938   9.777 -0.0192 -0.1356  0.1227
  102loPI   C4A 1626  13.647  14.965   9.309 -0.0526 -0.1518 -0.1912
  102loPI   C5A 1627  13.414  15.124   8.895  0.2617 -0.0131  0.0655
  102loPI   C6A 1628  13.433  15.534   8.674  0.3094  0.2725  0.0163
  102loPI   C1B 1629  14.071  14.562  10.595  0.1326 -0.0702  0.1924
  102loPI   C2B 1630  14.188  14.531  10.138  0.2032 -0.0075  0.0665
  102loPI   C3B 1631  14.163  14.567   9.641 -0.2049  0.0648 -0.0241
  102loPI   C4B 1632  14.036  14.671   9.265 -0.5500 -0.1406  0.2734
  103loPI    C1 1633   3.185   8.482  11.622 -0.3527 -0.1854 -0.0850
  103loPI    C2 1634   2.952   8.769  11.775  0.1202 -0.0188  0.3544
  103loPI    C3 1635   3.052   8.452  11.998  0.2184 -0.1477  0.1305
  103loPI   PO4 1636   3.374   8.684  11.492  0.0686  0.0121 -0.1618
  103loPI   GL1 1637   3.459   8.897  11.116 -0.0036  0.0458  0.0217
  103loPI   GL2 1638   3.465   9.260  11.053 -0.2517  0.1204  0.1490
  103loPI   C1A 1639   3.510   8.634  10.832  0.1020 -0.3816  0.0393
  103loPI   C2A 1640   3.445   8.678  10.470 -0.2648 -0.1416  0.1518
  103loPI   C3A 1641   3.398   8.675  10.001 -0.0054  0.1327  0.2614
  103loPI   C4A 1642   3.399   8.735   9.598  0.1697  0.2469 -0.0396
  103loPI   C5A 1643   3.462   8.705   9.168 -0.1033  0.0239 -0.1348
  103loPI   C6A 1644   3.494   8.639   8.749  0.2852 -0.0600 -0.4403
  103loPI   C1B 1645   3.503   9.166  10.656 -0.0211  0.0872  0.0976
  103loPI   C2B 1646   3.572   9.086  10.221  0.0212 -0.3520  0.0297
  103loPI   C3B 1647   3.670   9.168   9.886  0.0146 -0.2807 -0.1877
  103loPI   C4B 1648   3.606   9.131   9.422  0.0248  0.2670 -0.2167
  104loPI    C1 1649   3.171  12.163  11.637  0.0088  0.0006 -0.0157
  104loPI    C2 1650   3.438  12.336  11.880 -0.0286 -0.1513  0.1355
  104loPI    C3 1651   3.123  12.143  12.034  0.0085 -0.3473 -0.0305
  104loPI   PO4 1652   3.301  12.028  11.462 -0.0641  0.1990  0.0930
  104loPI   GL1 1653   3.551  12.092  11.026  0.1052  0.0824  0.3689
  104loPI   GL2 1654   3.511  11.828  11.029  0.0845 -0.0894 -0.3341
  104loPI   C1A 1655   3.815  12.077  10.632 -0.0717 -0.1919  0.1993
  104loPI   C2A 1656   3.900  12.021  10.120  0.1908  0.0798 -0.2068
  104loPI   C3A 1657   3.800  12.040   9.639  0.2666 -0.2586 -0.4223
  104loPI   C4A 1658   3.822  12.203   9.212  0.1104 -0.0811 -0.0837
  104loPI   C5A 1659   4.042  12.549   8.950 -0.2235 -0.2710 -0.1114
  104loPI   C6A 1660   3.887  12.903   8.688 -0.2999 -0.0296 -0.1748
  104loPI   C1B 1661   3.668  11.507  10.768  0.2034 -0.1324  0.1229
  104loPI   C2B 1662   3.719  11.461  10.318 -0.0344 -0.0536  0.1712
  104loPI   C3B 1663   3.651  11.602   9.887 -0.1074 -0.0410  0.0102
  104loPI   C4B 1664   3.604  11.606   9.456  0.0355 -0.3022  0.1195
  105loPI    C1 1665   9.358   2.099  11.701  0.1441  0.3459  0.1947
  105loPI    C2 1666   9.524   2.070  12.064  0.0038  0.2965  0.2556
  105loPI    C3 1667   9.127   2.046  12.023  0.0268  0.1892  0.0858
  105loPI   PO4 1668   9.612   1.931  11.591  0.0409  0.0557  0.1833
  105loPI   GL1 1669   9.796   2.133  11.214 -0.1124  0.0450 -0.0082
  105loPI   GL2 1670   9.566   2.307  11.131  0.2191 -0.0488  0.0763
  105loPI   C1A 1671   9.763   1.932  10.914 -0.0580  0.3693 -0.1058
  105loPI   C2A 1672   9.698   1.923  10.493 -0.1255  0.1787 -0.1826
  105loPI   C3A 1673   9.808   1.897  10.131  0.2235 -0.0505  0.4419
  105loPI   C4A 1674   9.857   1.930   9.686 -0.1948  0.0985  0.1852
  105loPI   C5A 1675   9.753   2.012   9.259  0.1991  0.4665 -0.0122
  105loPI   C6A 1676   9.678   2.088   8.905  0.0687 -0.1407  0.0392
  105loPI   C1B 1677   9.445   2.329  10.701  0.0152 -0.1180  0.1199
  105loPI   C2B 1678   9.439   2.273  10.294  0.1118  0.1256  0.2634
  105loPI   C3B 1679   9.424   2.259   9.876 -0.0152  0.0334  0.3459
  105loPI   C4B 1680   9.474   2.419   9.414 -0.1876  0.2962  0.0372
  106loPI    C1 1681   3.639   7.076  11.513 -0.1725  0.1434  0.1499
  106loPI    C2 1682   3.488   7.070  11.884  0.0234 -0.1358  0.2284
  106loPI    C3 1683   3.880   7.132  11.828 -0.0250  0.0277  0.0593
  106loPI   PO4 1684   3.476   7.253  11.268  0.2619  0.1578  0.1418
  106loPI   GL1 1685   3.447   7.215  10.791 -0.2258  0.0987  0.0737
  106loPI   GL2 1686   3.806   7.326  10.896  0.1359 -0.4552  0.0925
  106loPI   C1A 1687   3.687   6.958  10.410 -0.4141  0.0232  0.1416
  106loPI   C2A 1688   3.474   6.702  10.121  0.0758  0.3723  0.0674
  106loPI   C3A 1689   3.321   6.605   9.732 -0.1605 -0.1709  0.0847
  106loPI   C4A 1690   3.117   6.686   9.262 -0.2142  0.2178 -0.0537
  106loPI   C5A 1691   3.326   6.882   8.928 -0.0297  0.2096 -0.3642
  106loPI   C6A 1692   3.665   6.654   8.774 -0.1643 -0.2707  0.1435
  106loPI   C1B 1693   3.916   7.381  10.604  0.2468 -0.1616  0.0937
  106loPI   C2B 1694   3.958   7.346  10.167  0.2791  0.3666 -0.1718
  106loPI   C3B 1695   4.186   7.204   9.915 -0.1558 -0.0303 -0.0827
  106loPI   C4B 1696   4.376   7.018   9.510 -0.2182 -0.0108 -0.4141
  107loPI    C1 1697   1.799   5.069  11.259  0.2619  0.1931  0.0756
  107loPI    C2 1698   1.608   5.418  11.219  0.0824  0.0919  0.0405
  107loPI    C3 1699   1.740   5.303  11.578 -0.0188  0.1132  0.0850
  107loPI   PO4 1700   1.951   4.939  11.045 -0.0669  0.0294 -0.1445
  107loPI   GL1 1701   2.113   4.878  10.675  0.3286  0.0477  0.0156
  107loPI   GL2 1702   2.466   4.782  10.535 -0.1384 -0.1485  0.0053
  107loPI   C1A 1703   2.146   4.792  10.173  0.0040  0.1071 -0.0439
  107loPI   C2A 1704   2.139   4.806   9.660 -0.0200  0.1510  0.0666
  107loPI   C3A 1705   2.419   4.827   9.291  0.1574  0.0837 -0.0073
  107loPI   C4A 1706   2.410   4.573   8.973  0.0815 -0.1188 -0.0090
  107loPI   C5A 1707   2.317   4.352   8.792 -0.3281 -0.2114  0.0296
  107loPI   C6A 1708   2.005   4.590   8.503 -0.1691  0.0035  0.0155
  107loPI   C1B 1709   2.712   4.821  10.135  0.0281  0.0271 -0.0666
  107loPI   C2B 1710   2.808   4.916   9.676 -0.7543 -0.0803  0.0730
  107loPI   C3B 1711   2.939   4.750   9.278  0.0498 -0.0609 -0.1159
  107loPI   C4B 1712   3.184   5.015   8.939  0.1513  0.3641 -0.0061
  108loPI    C1 1713   4.130   2.046  11.573 -0.2079 -0.3573  0.0686
  108loPI    C2 1714   4.316   1.947  11.914 -0.0262 -0.0843  0.0520
  108loPI    C3 1715   3.924   2.029  11.916 -0.0652 -0.2661  0.1597
  108loPI   PO4 1716   4.242   1.809  11.439  0.0833  0.0368  0.0583
  108loPI   GL1 1717   4.328   1.837  10.967 -0.4532 -0.1613 -0.0016
  108loPI   GL2 1718   4.254   2.170  10.704 -0.2358  0.3765  0.0509
  108loPI   C1A 1719   4.170   1.642  10.645 -0.1516 -0.0156 -0.1830
  108loPI   C2A 1720   4.238   1.587  10.148  0.2072 -0.4030  0.1319
  108loPI   C3A 1721   4.215   1.576   9.722 -0.1022 -0.2612 -0.1115
  108loPI   C4A 1722   4.307   1.560   9.335 -0.4055  0.0596  0.0912
  108loPI   C5A 1723   4.248   1.645   8.955 -0.2355 -0.0069 -0.1235
  108loPI   C6A 1724   4.142   2.086   8.785 -0.3288  0.0281 -0.1418
  108loPI   C1B 1725   4.286   2.038  10.297 -0.2739  0.0699  0.3012
  108loPI   C2B 1726   4.311   2.099   9.699 -0.0926 -0.1806 -0.0159
  108loPI   C3B 1727   4.537   2.099   9.380  0.4768 -0.1980 -0.1444
  108loPI   C4B 1728   4.576   1.975   8.934  0.0829 -0.2522 -0.0497
  109loPI    C1 1729   5.215   4.532  11.409  0.0529 -0.0982 -0.1550
  109loPI    C2 1730   5.386   4.198  11.270  0.2383 -0.0368 -0.0779
  109loPI    C3 1731   5.280   4.222  11.654  0.0737 -0.0667 -0.1207
  109loPI   PO4 1732   5.158   4.631  11.165  0.1460  0.2977  0.0542
  109loPI   GL1 1733   5.117   4.428  10.826 -0.0131 -0.2642  0.1156
  109loPI   GL2 1734   5.255   4.222  10.787  0.0884  0.1403 -0.0603
  109loPI   C1A 1735   5.020   4.611  10.434  0.0123  0.0707  0.2561
  109loPI   C2A 1736   5.064   4.434  10.122 -0.1352 -0.2668 -0.3406
  109loPI   C3A 1737   5.187   4.370   9.667 -0.0793  0.0222 -0.3268
  109loPI   C4A 1738   5.280   4.372   9.273 -0.2101  0.2078 -0.0212
  109loPI   C5A 1739   5.489   4.429   8.810  0.0936 -0.0099  0.2418
  109loPI   C6A 1740   5.616   3.974   8.569 -0.0440  0.0533 -0.0372
  109loPI   C1B 1741   5.484   4.429  10.406 -0.0546 -0.2772  0.4467
  109loPI   C2B 1742   5.584   4.390  10.022 -0.0880  0.1410 -0.0435
  109loPI   C3B 1743   5.687   4.515   9.595 -0.0322 -0.0180 -0.3653
  109loPI   C4B 1744   5.762   4.518   9.183 -0.1672  0.0140 -0.2152
  110loPI    C1 1745   1.991  13.720  11.554  0.2986 -0.1042 -0.0419
  110loPI    C2 1746   1.986  13.345  11.415  0.1433 -0.1086 -0.0271
  110loPI    C3 1747   1.736  13.452  11.707  0.1098  0.0358 -0.1076
  110loPI   PO4 1748   2.222  13.777  11.371  0.0717  0.2220 -0.3206
  110loPI   GL1 1749   2.189  13.887  10.866 -0.1075 -0.0031 -0.1775
  110loPI   GL2 1750   1.759  13.948  10.803  0.1334 -0.1928 -0.1142
  110loPI   C1A 1751   2.426  14.052  10.459  0.0300  0.3448 -0.0650
  110loPI   C2A 1752   2.480  14.086  10.067  0.0970  0.2396 -0.2004
  110loPI   C3A 1753   2.426  13.949   9.820  0.2064  0.3558  0.2216
  110loPI   C4A 1754   2.444  14.003   9.388  0.0791  0.1216 -0.0154
  110loPI   C5A 1755   2.716  13.967   8.994 -0.0994  0.2024  0.5020
  110loPI   C6A 1756   2.797  13.736   8.677  0.1547  0.1416  0.0932
  110loPI   C1B 1757   1.896  13.907  10.359  0.0649 -0.2101  0.2350
  110loPI   C2B 1758   1.960  13.830   9.881  0.0982 -0.3000  0.1128
  110loPI   C3B 1759   1.949  13.907   9.437  0.1153  0.1495 -0.1660
  110loPI   C4B 1760   1.974  13.760   9.063 -0.0020 -0.1343 -0.3229
  111loPI    C1 1761   2.128   1.773  11.430  0.1252  0.1149  0.0053
  111loPI    C2 1762   2.324   1.730  11.776 -0.3348  0.0165  0.2623
  111loPI    C3 1763   1.929   1.792  11.777 -0.3435  0.0084 -0.2494
  111loPI   PO4 1764   2.230   1.883  11.276 -0.1719  0.1109  0.0491
  111loPI   GL1 1765   2.248   1.904  10.924 -0.2214 -0.1446  0.0807
  111loPI   GL2 1766   2.186   1.523  10.794 -0.1462 -0.2294 -0.1471
  111loPI   C1A 1767   2.333   2.010  10.493  0.0206  0.1089  0.2981
  111loPI   C2A 1768   2.426   2.059  10.084 -0.1687  0.0973  0.0887
  111loPI   C3A 1769   2.416   2.098   9.668 -0.2537 -0.1617  0.0161
  111loPI   C4A 1770   2.465   2.049   9.204  0.0428  0.1769  0.0167
  111loPI   C5A 1771   2.534   1.986   8.832  0.0788 -0.0344 -0.0847
  111loPI   C6A 1772   2.401   2.160   8.509 -0.2025  0.1761  0.2273
  111loPI   C1B 1773   2.162   1.525  10.326  0.1305 -0.4563  0.0586
  111loPI   C2B 1774   2.270   1.617   9.908 -0.0478  0.1238  0.0465
  111loPI   C3B 1775   2.412   1.617   9.455  0.0676  0.1520 -0.2675
  111loPI   C4B 1776   2.394   1.498   9.022  0.3077  0.0858  0.2192
  112loPI    C1 1777  16.878  15.792  11.496 -0.0866  0.0580 -0.0692
  112loPI    C2 1778  16.936  15.624  11.855  0.1205  0.2726  0.0005
  112loPI    C3 1779  17.156  15.939  11.744  0.1219  0.1513 -0.3534
  112loPI   PO4 1780  16.939  15.548  11.310 -0.0683 -0.2129  0.2350
  112loPI   GL1 1781  16.855  15.240  10.901  0.3720  0.1039 -0.1352
  112loPI   GL2 1782  16.985  14.953  10.713 -0.3944 -0.1529 -0.2776
  112loPI   C1A 1783  17.032  15.427  10.516 -0.3660  0.0351 -0.0950
  112loPI   C2A 1784  17.143  15.502  10.044 -0.4505  0.1121 -0.0938
  112loPI   C3A 1785  17.203  15.552   9.597  0.0046  0.0849 -0.0775
  112loPI   C4A 1786  17.245  15.526   9.180  0.0311 -0.0733 -0.1383
  112loPI   C5A 1787  17.213  15.504   8.742  0.1184  0.3787 -0.1369
  112loPI   C6A 1788  17.111  15.214   8.344  0.2239  0.0100 -0.2297
  112loPI   C1B 1789  16.984  14.988  10.258 -0.1301 -0.1213 -0.0728
  112loPI   C2B 1790  17.008  15.010   9.856  0.2406 -0.0181  0.0402
  112loPI   C3B 1791  17.085  14.918   9.522 -0.0459  0.4723  0.2268
  112loPI   C4B 1792  17.101  15.055   9.085 -0.2544  0.2740 -0.1697
  113loPI    C1 1793  14.693   0.789  11.318  0.0934 -0.1071  0.0659
  113loPI    C2 1794  14.559   0.590  11.638  0.0540  0.1308  0.1996
  113loPI    C3 1795  14.762   0.931  11.685  0.0259  0.1811 -0.0304
  113loPI   PO4 1796  14.564   0.823  11.174  0.2749  0.0631  0.0758
  113loPI   GL1 1797  14.445   1.057  10.832  0.2011  0.2463  0.1200
  113loPI   GL2 1798  14.116   0.974  10.959  0.1409  0.1133 -0.2284
  113loPI   C1A 1799  14.570   0.903  10.393 -0.2144  0.1279 -0.2183
  113loPI   C2A 1800  14.593   0.886   9.932 -0.0608 -0.3416  0.1038
  113loPI   C3A 1801  14.665   0.815   9.471  0.2109 -0.1417 -0.0792
  113loPI   C4A 1802  14.574   0.761   9.041 -0.1721  0.2648 -0.2393
  113loPI   C5A 1803  14.617   0.994   8.669 -0.1370 -0.0103  0.1529
  113loPI   C6A 1804  14.604   1.403   8.373  0.0068 -0.2549  0.0287
  113loPI   C1B 1805  14.052   0.854  10.537 -0.0416  0.3089  0.2016
  113loPI   C2B 1806  14.130   0.743  10.124 -0.1753 -0.5229  0.0095
  113loPI   C3B 1807  14.165   0.729   9.707  0.1040  0.2730  0.0136
  113loPI   C4B 1808  14.129   0.697   9.216  0.1537 -0.2027  0.5121
  114loPI    C1 1809  11.828   5.199  11.549 -0.0681 -0.3249  0.2391
  114loPI    C2 1810  11.644   5.532  11.673  0.0778 -0.1547  0.0079
  114loPI    C3 1811  11.897   5.339  11.917  0.0312 -0.0687  0.1251
  114loPI   PO4 1812  11.853   5.254  11.316  0.0337 -0.1615  0.1889
  114loPI   GL1 1813  11.761   5.005  11.004 -0.0364  0.0337 -0.2024
  114loPI   GL2 1814  11.543   5.164  10.938  0.2821 -0.4632  0.0610
  114loPI   C1A 1815  11.939   4.970  10.662 -0.2990 -0.0004  0.0234
  114loPI   C2A 1816  11.812   4.953  10.218 -0.1047 -0.0272  0.2843
  114loPI   C3A 1817  11.809   5.048   9.778 -0.1327 -0.1087 -0.1099
  114loPI   C4A 1818  11.726   5.019   9.413  0.1633  0.1889  0.2020
  114loPI   C5A 1819  11.816   5.021   8.948  0.0021  0.0238  0.0617
  114loPI   C6A 1820  11.767   5.035   8.546 -0.0810  0.0266 -0.0417
  114loPI   C1B 1821  11.529   5.323  10.524 -0.3104 -0.1730 -0.3150
  114loPI   C2B 1822  11.453   5.305  10.080  0.0584  0.1643  0.0869
  114loPI   C3B 1823  11.371   5.389   9.674 -0.1004 -0.1252  0.3706
  114loPI   C4B 1824  11.371   5.444   9.178  0.0025  0.4052 -0.1947
  115loPI    C1 1825   5.426  16.298  11.657  0.0231  0.1711 -0.0003
  115loPI    C2 1826   5.671  16.459  11.929  0.1702 -0.0781  0.0178
  115loPI    C3 1827   5.525  16.090  11.984 -0.0559 -0.0063 -0.0871
  115loPI   PO4 1828   5.542  16.375  11.368 -0.0782 -0.0816 -0.0175
  115loPI   GL1 1829   5.445  16.482  10.873 -0.0031 -0.2180 -0.1198
  115loPI   GL2 1830   5.311  16.170  10.739  0.0509  0.1732  0.0359
  115loPI   C1A 1831   5.516  16.862  10.645 -0.3431 -0.0373  0.0901
  115loPI   C2A 1832   5.549  16.855  10.241  0.1017 -0.3389 -0.3648
  115loPI   C3A 1833   5.573  16.839   9.754 -0.0576 -0.0089 -0.1159
  115loPI   C4A 1834   5.392  16.911   9.309  0.0708  0.1591  0.2091
  115loPI   C5A 1835   5.184  17.120   9.000  0.2783 -0.2664 -0.2500
  115loPI   C6A 1836   5.033  17.445   8.700 -0.0674 -0.2091 -0.2447
  115loPI   C1B 1837   5.447  16.358  10.367 -0.1742  0.2417 -0.1600
  115loPI   C2B 1838   5.526  16.334   9.981  0.1610 -0.1201  0.1293
  115loPI   C3B 1839   5.407  16.352   9.510 -0.2787  0.0666  0.0344
  115loPI   C4B 1840   5.310  16.315   9.064 -0.0680  0.0880  0.1295
  116loPI    C1 1841   6.999  12.798  11.631  0.1412 -0.1909  0.0398
  116loPI    C2 1842   6.855  12.907  11.988 -0.2687 -0.1416 -0.1357
  116loPI    C3 1843   6.926  12.521  11.910  0.0629 -0.1285  0.0817
  116loPI   PO4 1844   6.862  12.952  11.462  0.0441  0.1799  0.2922
  116loPI   GL1 1845   6.865  13.041  10.965 -0.1611  0.1599 -0.1750
  116loPI   GL2 1846   6.924  12.638  10.889  0.0246  0.1347 -0.0498
  116loPI   C1A 1847   6.824  13.000  10.494  0.0125 -0.0550 -0.2538
  116loPI   C2A 1848   6.845  12.993  10.097 -0.0592  0.1867 -0.2859
  116loPI   C3A 1849   6.880  12.942   9.777  0.2604  0.2212 -0.1998
  116loPI   C4A 1850   6.900  12.848   9.409  0.0276 -0.0836 -0.0509
  116loPI   C5A 1851   6.692  12.962   8.993 -0.1408  0.0549  0.0118
  116loPI   C6A 1852   6.402  13.266   8.741 -0.2742  0.0498 -0.3289
  116loPI   C1B 1853   7.140  12.613  10.476 -0.2342  0.1729 -0.0420
  116loPI   C2B 1854   7.208  12.613  10.164 -0.3095 -0.0745 -0.0843
  116loPI   C3B 1855   7.196  12.519   9.807  0.1338  0.0418 -0.1277
  116loPI   C4B 1856   7.221  12.471   9.388 -0.0844 -0.2226 -0.3290
  117loPI    C1 1857   0.730   9.084  11.452  0.0147 -0.1800 -0.1191
  117loPI    C2 1858   0.581   8.713  11.434 -0.1138 -0.1238 -0.2253
  117loPI    C3 1859   0.361   9.010  11.587 -0.0242 -0.0848 -0.1719
  117loPI   PO4 1860   0.813   9.147  11.211  0.1331  0.0488 -0.2579
  117loPI   GL1 1861   1.070   9.208  10.864 -0.0477 -0.1144  0.0469
  117loPI   GL2 1862   0.822   9.460  10.739 -0.1413  0.2165 -0.3143
  117loPI   C1A 1863   1.202   9.476  10.493 -0.1085 -0.2172 -0.0837
  117loPI   C2A 1864   1.273   9.440  10.110  0.0125  0.1601 -0.1000
  117loPI   C3A 1865   1.281   9.432   9.659 -0.0650 -0.0864 -0.3210
  117loPI   C4A 1866   1.345   9.572   9.183  0.0469 -0.1020  0.0010
  117loPI   C5A 1867   1.317   9.476   8.762 -0.0156  0.0139 -0.3290
  117loPI   C6A 1868   1.188   9.161   8.450 -0.0442 -0.1285 -0.3509
  117loPI   C1B 1869   0.738   9.392  10.360 -0.0034  0.3799  0.1572
  117loPI   C2B 1870   0.707   9.294   9.992  0.0033  0.0679  0.5533
  117loPI   C3B 1871   0.830   9.340   9.549 -0.3618  0.0797 -0.2852
  117loPI   C4B 1872   0.934   9.268   9.143  0.3879  0.1854  0.1316
  118loPI    C1 1873  10.368  15.625  11.411  0.1613  0.2041 -0.0109
  118loPI    C2 1874  10.556  15.504  11.743 -0.1976 -0.2797  0.0275
  118loPI    C3 1875  10.230  15.734  11.770  0.0185  0.0380 -0.0138
  118loPI   PO4 1876  10.243  15.355  11.177  0.0408 -0.1530  0.1567
  118loPI   GL1 1877  10.391  15.367  10.830  0.0138  0.1599 -0.2659
  118loPI   GL2 1878  10.604  15.486  10.680 -0.2446 -0.3807  0.0270
  118loPI   C1A 1879  10.160  15.285  10.456  0.0514 -0.0687  0.1745
  118loPI   C2A 1880  10.133  15.266   9.980 -0.0959  0.3363  0.1481
  118loPI   C3A 1881  10.160  15.322   9.553 -0.2025 -0.0891  0.0142
  118loPI   C4A 1882  10.067  15.384   9.124 -0.2344 -0.2200 -0.1283
  118loPI   C5A 1883  10.312  15.211   8.736 -0.0312 -0.2936  0.1115
  118loPI   C6A 1884  10.457  14.835   8.624  0.0112 -0.1626 -0.0174
  118loPI   C1B 1885  10.558  15.422  10.210 -0.2486 -0.1102  0.0723
  118loPI   C2B 1886  10.550  15.422   9.811  0.1200 -0.0956  0.3046
  118loPI   C3B 1887  10.593  15.505   9.392 -0.0311 -0.1318 -0.0101
  118loPI   C4B 1888  10.472  15.604   8.961  0.0761 -0.0709  0.4011
  119loPI    C1 1889  10.061  14.441  11.500 -0.3312  0.1653  0.0671
  119loPI    C2 1890   9.874  14.694  11.748 -0.1395  0.2206  0.1570
  119loPI    C3 1891  10.130  14.423  11.893  0.1283  0.3870  0.0032
  119loPI   PO4 1892   9.817  14.458  11.273  0.1711  0.1200  0.1998
  119loPI   GL1 1893   9.645  14.728  11.014  0.0374  0.2811 -0.3105
  119loPI   GL2 1894   9.380  14.834  11.064 -0.0817 -0.4030 -0.2804
  119loPI   C1A 1895   9.593  14.680  10.529 -0.0903 -0.1847 -0.2239
  119loPI   C2A 1896   9.564  14.751  10.083 -0.0896  0.1888 -0.2593
  119loPI   C3A 1897   9.599  14.655   9.595 -0.0476 -0.2925  0.1865
  119loPI   C4A 1898   9.501  14.691   9.144 -0.1564 -0.0377  0.2047
  119loPI   C5A 1899   9.700  14.411   8.813  0.2183 -0.3224  0.0603
  119loPI   C6A 1900   9.858  14.642   8.524 -0.2098 -0.0799  0.2571
  119loPI   C1B 1901   9.265  15.025  10.664  0.1001 -0.1018 -0.0452
  119loPI   C2B 1902   9.211  15.075  10.220  0.2530 -0.3050 -0.1878
  119loPI   C3B 1903   9.187  15.095   9.780  0.2471 -0.1691 -0.2079
  119loPI   C4B 1904   9.252  15.093   9.398 -0.0627  0.3695 -0.3675
  120loPI    C1 1905   5.168   3.575  11.530  0.0341 -0.2979 -0.0781
  120loPI    C2 1906   5.317   3.731  11.867  0.2834 -0.2944 -0.1886
  120loPI    C3 1907   5.032   3.451  11.885 -0.0060  0.0066  0.0162
  120loPI   PO4 1908   5.196   3.787  11.312 -0.1730  0.1667  0.3801
  120loPI   GL1 1909   5.546   3.706  10.934  0.2711  0.0565 -0.1733
  120loPI   GL2 1910   5.954   3.587  10.723 -0.2264 -0.3891  0.1454
  120loPI   C1A 1911   5.353   3.510  10.586  0.3452  0.3086  0.0313
  120loPI   C2A 1912   5.589   3.693  10.322 -0.3554 -0.1180  0.2115
  120loPI   C3A 1913   5.652   3.790   9.861 -0.3271 -0.1935 -0.0128
  120loPI   C4A 1914   5.655   4.044   9.448 -0.3071 -0.1931  0.2246
  120loPI   C5A 1915   5.458   3.893   9.082 -0.0189 -0.0093  0.1610
  120loPI   C6A 1916   5.307   3.625   8.808  0.1922  0.0632 -0.2565
  120loPI   C1B 1917   6.089   3.625  10.274 -0.0392  0.1839  0.0876
  120loPI   C2B 1918   6.138   3.652   9.869 -0.1378  0.3917 -0.4480
  120loPI   C3B 1919   6.027   3.577   9.504  0.0992 -0.2810 -0.1798
  120loPI   C4B 1920   5.916   3.746   9.123 -0.1841  0.1464 -0.1960
  121loPI    C1 1921   7.571   3.920  11.672 -0.0367 -0.1468  0.1445
  121loPI    C2 1922   7.361   3.838  12.002  0.0345 -0.0467  0.2155
  121loPI    C3 1923   7.520   4.201  11.951 -0.2777  0.0516 -0.0942
  121loPI   PO4 1924   7.531   3.840  11.436 -0.3422 -0.2676 -0.0796
  121loPI   GL1 1925   7.276   3.793  10.998  0.3586 -0.2996  0.2425
  121loPI   GL2 1926   7.398   3.586  10.897 -0.0248 -0.2756 -0.1281
  121loPI   C1A 1927   7.441   4.042  10.726  0.0465  0.2883  0.1720
  121loPI   C2A 1928   7.438   4.036  10.353 -0.1974  0.3422  0.1118
  121loPI   C3A 1929   7.503   4.034   9.912 -0.0339 -0.0734  0.1760
  121loPI   C4A 1930   7.482   4.152   9.439 -0.0840 -0.1320  0.2073
  121loPI   C5A 1931   7.537   4.326   9.031 -0.1447 -0.0099  0.0052
  121loPI   C6A 1932   7.760   4.645   8.890  0.2485 -0.4071  0.0473
  121loPI   C1B 1933   7.465   3.565  10.505 -0.1258  0.3088  0.2686
  121loPI   C2B 1934   7.408   3.586  10.028 -0.0402  0.0061 -0.1897
  121loPI   C3B 1935   7.436   3.563   9.636  0.1537 -0.2709  0.1011
  121loPI   C4B 1936   7.439   3.675   9.209 -0.1383 -0.0199  0.1076
  122loPI    C1 1937   7.939   5.619  11.334  0.0041  0.1309  0.0610
  122loPI    C2 1938   7.993   5.350  11.625  0.1999 -0.1283 -0.2087
  122loPI    C3 1939   7.961   5.738  11.716 -0.0039 -0.2295  0.1780
  122loPI   PO4 1940   8.176   5.549  11.141  0.3136  0.1661 -0.0287
  122loPI   GL1 1941   8.271   5.658  10.748  0.0117 -0.3246  0.1983
  122loPI   GL2 1942   8.247   5.364  10.635  0.1568 -0.1365  0.0254
  122loPI   C1A 1943   8.338   5.799  10.410 -0.1711 -0.1936 -0.1928
  122loPI   C2A 1944   8.272   5.820   9.918 -0.1758  0.1839 -0.3489
  122loPI   C3A 1945   8.285   5.711   9.468 -0.0694  0.2333  0.1163
  122loPI   C4A 1946   8.372   5.585   9.087  0.1084 -0.0062  0.0045
  122loPI   C5A 1947   8.564   5.148   8.805 -0.1211 -0.3651 -0.4835
  122loPI   C6A 1948   8.834   4.885   8.839 -0.1516  0.0540  0.1186
  122loPI   C1B 1949   8.193   5.369  10.200  0.2132 -0.2067  0.0819
  122loPI   C2B 1950   8.168   5.302   9.858  0.1760 -0.0621 -0.0210
  122loPI   C3B 1951   8.205   5.215   9.469 -0.1434 -0.3497 -0.2477
  122loPI   C4B 1952   8.059   5.203   9.001  0.2224  0.1249 -0.3081
  123loPI    C1 1953   2.682  11.770  11.471 -0.1023 -0.1681 -0.1678
  123loPI    C2 1954   3.023  11.621  11.619 -0.0667  0.0648 -0.0106
  123loPI    C3 1955   2.690  11.619  11.841 -0.0487  0.2806  0.0213
  123loPI   PO4 1956   2.746  12.022  11.378 -0.1742  0.0754  0.0943
  123loPI   GL1 1957   3.033  11.947  10.996  0.2594 -0.3719 -0.2977
  123loPI   GL2 1958   2.999  12.357  10.790  0.0187  0.2268  0.2147
  123loPI   C1A 1959   3.283  11.904  10.593  0.1713  0.1593 -0.1701
  123loPI   C2A 1960   3.429  11.994  10.274  0.3318  0.1808 -0.1101
  123loPI   C3A 1961   3.250  11.920   9.895  0.2514  0.0981  0.0653
  123loPI   C4A 1962   3.299  12.029   9.516 -0.1865 -0.2130  0.2241
  123loPI   C5A 1963   3.402  12.010   9.146 -0.2426  0.0826  0.0841
  123loPI   C6A 1964   3.793  11.709   9.019  0.4312  0.1980 -0.0392
  123loPI   C1B 1965   3.022  12.357  10.315  0.2242  0.0001  0.1308
  123loPI   C2B 1966   2.875  12.241   9.918 -0.1076 -0.2582  0.3372
  123loPI   C3B 1967   2.901  12.289   9.386 -0.0484 -0.1881 -0.0149
  123loPI   C4B 1968   2.976  12.363   9.031  0.1893  0.1152  0.1719
  124loPI    C1 1969  13.534  13.628  11.325 -0.2428 -0.2068 -0.0665
  124loPI    C2 1970  13.526  13.686  11.720  0.3477  0.1774 -0.0987
  124loPI    C3 1971  13.389  13.969  11.474 -0.1741 -0.1294 -0.1755
  124loPI   PO4 1972  13.509  13.298  11.273 -0.1651  0.0312  0.2997
  124loPI   GL1 1973  13.420  12.958  11.016  0.0028  0.0712  0.1668
  124loPI   GL2 1974  13.093  13.044  11.021  0.0445 -0.0113  0.2497
  124loPI   C1A 1975  13.253  12.986  10.524 -0.0017 -0.1489  0.1461
  124loPI   C2A 1976  13.360  12.920  10.103  0.3875  0.2629  0.2217
  124loPI   C3A 1977  13.308  12.949   9.637 -0.1494 -0.1211 -0.0127
  124loPI   C4A 1978  13.487  12.891   9.278  0.0366  0.3784 -0.2247
  124loPI   C5A 1979  13.517  12.754   8.840  0.0962  0.2332  0.1123
  124loPI   C6A 1980  13.294  12.912   8.487  0.0767 -0.0408  0.1090
  124loPI   C1B 1981  12.761  12.879  10.822 -0.0003 -0.1314  0.3017
  124loPI   C2B 1982  12.767  12.880  10.432 -0.2658  0.4192 -0.2508
  124loPI   C3B 1983  12.838  12.834  10.023  0.1172 -0.2917  0.0331
  124loPI   C4B 1984  12.860  12.751   9.557 -0.1452  0.2855  0.3202
  125loPI    C1 1985   3.629   0.201  11.608  0.0320  0.0757 -0.1360
  125loPI    C2 1986   3.467  -0.045  11.879  0.1224 -0.0398 -0.1859
  125loPI    C3 1987   3.779   0.185  11.979 -0.1332  0.2592 -0.0597
  125loPI   PO4 1988   3.453   0.300  11.485  0.1986  0.2694  0.2638
  125loPI   GL1 1989   3.384   0.257  11.072  0.0590 -0.5040  0.0849
  125loPI   GL2 1990   3.546   0.522  10.903  0.3665 -0.0867  0.0845
  125loPI   C1A 1991   3.316   0.029  10.753 -0.1047 -0.1203 -0.0424
  125loPI   C2A 1992   3.371  -0.035  10.382 -0.1953  0.4589  0.0152
  125loPI   C3A 1993   3.267  -0.011   9.834  0.1332 -0.2120  0.1408
  125loPI   C4A 1994   3.417  -0.044   9.472 -0.3418  0.0240 -0.2045
  125loPI   C5A 1995   3.509   0.020   9.030 -0.0919  0.3559 -0.0054
  125loPI   C6A 1996   3.506  -0.260   8.699  0.0335 -0.0436 -0.0693
  125loPI   C1B 1997   3.472   0.435  10.435 -0.4690 -0.0165 -0.0155
  125loPI   C2B 1998   3.368   0.411  10.022 -0.2934 -0.1834  0.0672
  125loPI   C3B 1999   3.427   0.439   9.563 -0.0741 -0.0059  0.1320
  125loPI   C4B 2000   3.613   0.489   9.124 -0.1013 -0.0011 -0.1996
  126loPI    C1 2001  13.140   1.836  11.670 -0.0463 -0.1142  0.1977
  126loPI    C2 2002  12.828   2.085  11.700  0.1908  0.1718  0.3415
  126loPI    C3 2003  13.182   2.187  11.856  0.4043 -0.0730  0.0313
  126loPI   PO4 2004  13.161   1.735  11.382  0.1588 -0.0845  0.0787
  126loPI   GL1 2005  13.021   1.721  10.872  0.4016 -0.2034 -0.0319
  126loPI   GL2 2006  13.104   2.048  10.933  0.1054  0.0902 -0.1910
  126loPI   C1A 2007  13.034   1.850  10.379  0.0433 -0.0680 -0.0700
  126loPI   C2A 2008  13.054   1.771   9.935  0.0425 -0.0491  0.1544
  126loPI   C3A 2009  13.071   1.826   9.448 -0.1946  0.4893  0.2672
  126loPI   C4A 2010  13.035   1.715   9.008  0.0386  0.2695  0.0168
  126loPI   C5A 2011  13.057   1.405   8.788 -0.1689  0.1026  0.0666
  126loPI   C6A 2012  12.937   1.063   8.479 -0.0997 -0.0244  0.0094
  126loPI   C1B 2013  13.073   2.281  10.545  0.2938 -0.0978  0.0935
  126loPI   C2B 2014  13.153   2.363  10.116 -0.0098 -0.2633  0.1568
  126loPI   C3B 2015  13.207   2.289   9.635 -0.3052  0.0493  0.1152
  126loPI   C4B 2016  13.192   2.263   9.213 -0.6139  0.1348 -0.1313
  127loPI    C1 2017  13.607   2.176  11.570 -0.3442 -0.1808 -0.3006
  127loPI    C2 2018  13.617   2.507  11.346  0.4009  0.0639  0.0614
  127loPI    C3 2019  13.539   2.533  11.737 -0.2505 -0.2860 -0.0317
  127loPI   PO4 2020  13.568   2.007  11.400  0.1647  0.0329 -0.0173
  127loPI   GL1 2021  13.647   2.146  10.977 -0.0652 -0.1963  0.0482
  127loPI   GL2 2022  14.004   2.313  10.933 -0.0083 -0.0244 -0.0596
  127loPI   C1A 2023  13.585   2.045  10.597 -0.0661  0.0221  0.0892
  127loPI   C2A 2024  13.536   1.944  10.203  0.2932  0.0543  0.2068
  127loPI   C3A 2025  13.527   1.890   9.713  0.2367 -0.0577 -0.0430
  127loPI   C4A 2026  13.560   1.921   9.294  0.2821  0.1612  0.1614
  127loPI   C5A 2027  13.445   1.903   8.841  0.1725  0.0975 -0.2455
  127loPI   C6A 2028  13.090   1.976   8.554  0.2405  0.2539 -0.3458
  127loPI   C1B 2029  14.106   2.295  10.535 -0.0836 -0.1107  0.2224
  127loPI   C2B 2030  14.010   2.090  10.149 -0.0147  0.0303 -0.0266
  127loPI   C3B 2031  13.986   2.103   9.669  0.1643 -0.1176 -0.4487
  127loPI   C4B 2032  14.050   2.053   9.235  0.0203 -0.0104  0.0849
  128loPI    C1 2033   9.198  13.151  11.702  0.1055  0.0841 -0.1710
  128loPI    C2 2034   9.072  13.452  11.933 -0.0069  0.0402 -0.1746
  128loPI    C3 2035   9.302  13.164  12.088 -0.0800  0.0120 -0.1178
  128loPI   PO4 2036   9.251  13.334  11.464 -0.1687  0.2767  0.0186
  128loPI   GL1 2037   9.187  13.178  11.020  0.0682 -0.0933  0.0044
  128loPI   GL2 2038   9.308  13.024  10.731 -0.1211  0.0378 -0.3486
  128loPI   C1A 2039   9.422  13.435  10.571 -0.0437 -0.2165 -0.0647
  128loPI   C2A 2040   9.373  13.583  10.216 -0.0056 -0.1098 -0.1445
  128loPI   C3A 2041   9.344  13.659   9.888 -0.1521  0.1119  0.1378
  128loPI   C4A 2042   9.329  13.718   9.423 -0.4292 -0.2173  0.2273
  128loPI   C5A 2043   9.246  13.653   9.053 -0.0848  0.0602 -0.0516
  128loPI   C6A 2044   9.301  13.958   8.640 -0.0128 -0.2000  0.3181
  128loPI   C1B 2045   9.266  13.030  10.273  0.1915 -0.2132 -0.1436
  128loPI   C2B 2046   9.165  13.165   9.883 -0.1237 -0.1151  0.2324
  128loPI   C3B 2047   9.201  13.226   9.443 -0.0072 -0.2921 -0.1293
  128loPI   C4B 2048   9.109  13.172   8.960  0.0589  0.1630  0.0649
  129loPI    C1 2049   6.492  11.297  11.844  0.0566 -0.1163 -0.0630
  129loPI    C2 2050   6.680  11.190  12.181  0.0079 -0.0830 -0.0250
  129loPI    C3 2051   6.336  11.393  12.200  0.1073  0.0950 -0.0965
  129loPI   PO4 2052   6.379  11.054  11.699  0.2594  0.1496 -0.0641
  129loPI   GL1 2053   6.300  10.972  11.319 -0.0268  0.2927 -0.1096
  129loPI   GL2 2054   6.338  11.321  11.130  0.1591 -0.1152 -0.2310
  129loPI   C1A 2055   6.336  10.876  10.902 -0.0672 -0.1535 -0.2812
  129loPI   C2A 2056   6.335  10.846  10.373 -0.1899 -0.0818  0.1886
  129loPI   C3A 2057   6.322  10.916   9.963  0.2577  0.2159  0.1520
  129loPI   C4A 2058   6.396  10.913   9.476  0.2703  0.1678 -0.1248
  129loPI   C5A 2059   6.436  10.946   9.059  0.2482  0.1865 -0.0202
  129loPI   C6A 2060   6.265  10.965   8.627 -0.0085  0.1886 -0.1159
  129loPI   C1B 2061   6.458  11.325  10.681 -0.2062  0.2424 -0.0781
  129loPI   C2B 2062   6.428  11.339  10.222 -0.0970  0.0081  0.0609
  129loPI   C3B 2063   6.426  11.358   9.759 -0.2482  0.0545  0.1694
  129loPI   C4B 2064   6.493  11.511   9.229 -0.0286  0.4590 -0.3603
  130loPI    C1 2065   0.987   7.948  11.300  0.0317 -0.0859  0.3480
  130loPI    C2 2066   1.348   7.782  11.253  0.1091  0.1477  0.0914
  130loPI    C3 2067   1.027   7.550  11.304  0.2308 -0.0786 -0.1473
  130loPI   PO4 2068   0.936   8.085  11.171 -0.0562  0.0189  0.1018
  130loPI   GL1 2069   0.875   8.186  10.718  0.1252 -0.2019  0.1922
  130loPI   GL2 2070   1.291   8.062  10.789 -0.1685 -0.0085 -0.0216
  130loPI   C1A 2071   1.249   8.432  10.486 -0.2360 -0.1590 -0.3151
  130loPI   C2A 2072   1.517   8.599  10.170 -0.1936  0.2979  0.1951
  130loPI   C3A 2073   1.659   8.658   9.701  0.1405  0.0348  0.1873
  130loPI   C4A 2074   1.616   8.631   9.323 -0.1862 -0.1301 -0.3073
  130loPI   C5A 2075   1.737   8.694   8.875  0.0861 -0.3563  0.0235
  130loPI   C6A 2076   1.764   9.043   8.655 -0.1201 -0.2375 -0.0754
  130loPI   C1B 2077   1.117   7.958  10.362  0.0412  0.0119 -0.0013
  130loPI   C2B 2078   0.876   7.882   9.960  0.0879 -0.1648  0.2330
  130loPI   C3B 2079   0.623   7.636   9.709 -0.0434  0.0236 -0.1421
  130loPI   C4B 2080   0.541   7.716   9.302  0.0833 -0.2492  0.0457
  131loPI    C1 2081   8.869   9.314  11.680 -0.1100 -0.1551  0.1038
  131loPI    C2 2082   8.925   9.634  11.447  0.0680 -0.1979  0.0864
  131loPI    C3 2083   8.677   9.656  11.760  0.1209 -0.0263  0.1174
  131loPI   PO4 2084   8.862   9.124  11.471  0.1520  0.1770  0.0565
  131loPI   GL1 2085   8.862   9.247  11.008  0.1083  0.0131 -0.0032
  131loPI   GL2 2086   8.729   9.480  10.906 -0.0793 -0.0273 -0.1768
  131loPI   C1A 2087   8.668   9.075  10.582 -0.0114  0.1305 -0.3224
  131loPI   C2A 2088   8.635   9.200  10.132 -0.5769  0.3646 -0.2268
  131loPI   C3A 2089   8.788   9.098   9.685 -0.3516 -0.1515  0.2809
  131loPI   C4A 2090   8.859   9.179   9.197  0.0405  0.1173 -0.0569
  131loPI   C5A 2091   8.682   9.399   8.860  0.1221  0.0015 -0.1306
  131loPI   C6A 2092   8.568   9.371   8.503 -0.1634 -0.0094 -0.0621
  131loPI   C1B 2093   8.730   9.604  10.507 -0.0546  0.1937  0.1079
  131loPI   C2B 2094   8.743   9.704  10.090  0.0587  0.1472 -0.1037
  131loPI   C3B 2095   8.818   9.631   9.704  0.2886  0.1846 -0.0186
  131loPI   C4B 2096   8.922   9.681   9.223 -0.2150 -0.3595  0.0065
  132loPI    C1 2097  13.472   7.896  11.727  0.1272 -0.0264  0.1571
  132loPI    C2 2098  13.160   8.009  11.950 -0.0520  0.2942 -0.2439
  132loPI    C3 2099  13.527   8.139  12.041 -0.0768  0.1714  0.0425
  132loPI   PO4 2100  13.456   7.984  11.525 -0.2169 -0.0721  0.1870
  132loPI   GL1 2101  13.390   8.177  11.117 -0.3070 -0.3029 -0.1904
  132loPI   GL2 2102  13.755   8.330  11.181  0.0312  0.0347  0.0943
  132loPI   C1A 2103  13.253   8.256  10.701 -0.0039 -0.3352 -0.1616
  132loPI   C2A 2104  13.077   8.273  10.344 -0.2648  0.0634  0.2083
  132loPI   C3A 2105  12.987   8.170   9.946 -0.0974  0.1365 -0.2098
  132loPI   C4A 2106  12.921   8.167   9.502 -0.1552 -0.2159 -0.1041
  132loPI   C5A 2107  13.021   8.227   9.156 -0.0527 -0.0087  0.3330
  132loPI   C6A 2108  12.800   8.237   8.759 -0.0888 -0.2301  0.0411
  132loPI   C1B 2109  13.715   8.334  10.706 -0.1795  0.1851  0.1201
  132loPI   C2B 2110  13.603   8.390  10.297 -0.1395 -0.2845  0.1231
  132loPI   C3B 2111  13.477   8.304   9.916 -0.0940 -0.0406 -0.3986
  132loPI   C4B 2112  13.424   8.363   9.471  0.0711  0.0660 -0.1193
  133loPI    C1 2113   7.651   3.048  11.517 -0.0268 -0.0055  0.0094
  133loPI    C2 2114   7.655   3.399  11.709 -0.1898 -0.0752  0.1430
  133loPI    C3 2115   7.751   3.064  11.905  0.1111 -0.0890 -0.0219
  133loPI   PO4 2116   7.733   3.090  11.316 -0.0008 -0.0474 -0.0121
  133loPI   GL1 2117   7.829   3.422  11.145 -0.1543  0.2891 -0.0880
  133loPI   GL2 2118   8.236   3.434  11.057 -0.0198 -0.1674  0.1139
  133loPI   C1A 2119   7.870   3.295  10.731  0.1209 -0.1396 -0.1692
  133loPI   C2A 2120   7.831   3.200  10.290  0.1396 -0.0043  0.2076
  133loPI   C3A 2121   7.888   3.137   9.864  0.1289  0.1042 -0.2074
  133loPI   C4A 2122   7.781   3.232   9.460  0.0088 -0.0085 -0.0144
  133loPI   C5A 2123   7.939   3.358   8.982 -0.0297 -0.1603 -0.2086
  133loPI   C6A 2124   7.947   3.292   8.561 -0.2822 -0.0848  0.1005
  133loPI   C1B 2125   8.312   3.491  10.639  0.0744  0.2700  0.3158
  133loPI   C2B 2126   8.451   3.416  10.301 -0.0693  0.2280 -0.0316
  133loPI   C3B 2127   8.375   3.353   9.852  0.0859 -0.1010  0.1064
  133loPI   C4B 2128   8.307   3.317   9.361  0.0122  0.0718 -0.0475
  134loPI    C1 2129   8.055  11.561  11.775 -0.0225 -0.0450 -0.1460
  134loPI    C2 2130   7.708  11.367  11.820  0.1190 -0.2634  0.0246
  134loPI    C3 2131   8.047  11.206  11.958  0.3088 -0.1115 -0.2539
  134loPI   PO4 2132   8.129  11.562  11.538 -0.1644 -0.0669  0.0929
  134loPI   GL1 2133   8.185  11.517  11.179 -0.4359 -0.2544  0.3572
  134loPI   GL2 2134   8.610  11.607  10.996  0.3830 -0.0691  0.0126
  134loPI   C1A 2135   8.195  11.530  10.698 -0.0665 -0.1082 -0.2092
  134loPI   C2A 2136   8.319  11.415  10.284  0.0330  0.2227 -0.2798
  134loPI   C3A 2137   8.252  11.465   9.904 -0.1678 -0.0908 -0.0417
  134loPI   C4A 2138   8.440  11.359   9.486 -0.2984  0.4052 -0.1341
  134loPI   C5A 2139   8.309  11.218   9.045 -0.1533  0.0160 -0.1369
  134loPI   C6A 2140   8.352  10.906   8.572 -0.1242  0.1218 -0.2091
  134loPI   C1B 2141   8.768  11.604  10.542 -0.0869  0.1487 -0.0622
  134loPI   C2B 2142   8.773  11.591  10.056  0.0982 -0.1785 -0.4197
  134loPI   C3B 2143   8.908  11.562   9.682  0.1441 -0.0083 -0.0926
  134loPI   C4B 2144   8.816  11.554   9.276 -0.3031  0.1889 -0.0255
  135loPI    C1 2145  11.323  12.656  11.281  0.2333  0.1031 -0.0706
  135loPI    C2 2146  11.437  12.685  11.663  0.0361  0.0869 -0.0093
  135loPI    C3 2147  11.603  12.921  11.386  0.0034  0.2730  0.1271
  135loPI   PO4 2148  11.269  12.394  11.259 -0.3171 -0.3923 -0.0667
  135loPI   GL1 2149  11.230  12.352  10.861 -0.0389 -0.1830  0.0855
  135loPI   GL2 2150  11.231  12.675  10.774 -0.0523 -0.0716 -0.1814
  135loPI   C1A 2151  11.122  12.303  10.481  0.0488  0.3147  0.2725
  135loPI   C2A 2152  11.266  12.323  10.004 -0.1886 -0.0767 -0.2624
  135loPI   C3A 2153  11.229  12.403   9.534  0.0772 -0.2025  0.3102
  135loPI   C4A 2154  11.452  12.392   9.160 -0.0165  0.0171 -0.0435
  135loPI   C5A 2155  11.485  12.361   8.755 -0.1752  0.3422 -0.2708
  135loPI   C6A 2156  11.256  12.510   8.345 -0.0021 -0.0153 -0.2162
  135loPI   C1B 2157  11.332  12.728  10.416 -0.2485 -0.1275 -0.0931
  135loPI   C2B 2158  11.406  12.913   9.982  0.0873  0.0549  0.0234
  135loPI   C3B 2159  11.433  12.875   9.545  0.4113 -0.0094 -0.0355
  135loPI   C4B 2160  11.661  12.871   9.056  0.0612  0.0133  0.1623
  136loPI    C1 2161  13.840  15.288  11.614  0.0172 -0.0515  0.2676
  136loPI    C2 2162  14.174  15.496  11.687 -0.0439  0.1426  0.0063
  136loPI    C3 2163  14.141  15.120  11.817  0.2901  0.1102  0.0063
  136loPI   PO4 2164  13.778  15.242  11.307 -0.1863 -0.1733 -0.1118
  136loPI   GL1 2165  13.934  15.424  10.893  0.5009  0.3260  0.2526
  136loPI   GL2 2166  14.048  15.623  11.194  0.2901  0.1192 -0.3238
  136loPI   C1A 2167  13.871  15.466  10.403  0.0996  0.2765  0.1332
  136loPI   C2A 2168  13.905  15.408   9.953  0.2612 -0.2182  0.1150
  136loPI   C3A 2169  13.862  15.390   9.554  0.2903  0.1502 -0.0888
  136loPI   C4A 2170  13.848  15.358   9.094  0.2195  0.0242  0.2938
  136loPI   C5A 2171  13.924  15.102   8.849  0.1311 -0.3432  0.1227
  136loPI   C6A 2172  13.894  14.814   8.418 -0.3046  0.0399 -0.0934
  136loPI   C1B 2173  14.039  15.941  10.719  0.1246 -0.1409  0.0903
  136loPI   C2B 2174  14.108  15.967  10.304  0.0694 -0.3191  0.3182
  136loPI   C3B 2175  14.100  15.962   9.882  0.0548  0.3700 -0.0637
  136loPI   C4B 2176  14.008  15.957   9.516 -0.1069 -0.0184 -0.2631
  137loPI    C1 2177   1.259   9.512  11.451 -0.0453  0.0705 -0.0409
  137loPI    C2 2178   0.953   9.559  11.705  0.0055 -0.1523  0.0646
  137loPI    C3 2179   1.285   9.776  11.750 -0.0976  0.0191  0.0097
  137loPI   PO4 2180   1.171   9.540  11.224 -0.1171 -0.1468 -0.1458
  137loPI   GL1 2181   1.121   9.856  10.931 -0.0890  0.1550 -0.1551
  137loPI   GL2 2182   1.396   9.978  10.878 -0.2518 -0.2487 -0.0031
  137loPI   C1A 2183   0.936   9.898  10.521 -0.1927  0.2586  0.1772
  137loPI   C2A 2184   0.857   9.803  10.026  0.0430  0.0518  0.1023
  137loPI   C3A 2185   0.979   9.811   9.580 -0.1350 -0.0306 -0.1656
  137loPI   C4A 2186   0.924   9.778   9.075  0.0470 -0.2919 -0.0045
  137loPI   C5A 2187   0.895   9.672   8.640 -0.2081  0.0889 -0.2082
  137loPI   C6A 2188   0.775   9.887   8.324  0.3706 -0.1374 -0.1891
  137loPI   C1B 2189   1.493   9.959  10.333  0.2038  0.1637 -0.1206
  137loPI   C2B 2190   1.423   9.970   9.936  0.1937 -0.3050 -0.1683
  137loPI   C3B 2191   1.505   9.947   9.418 -0.0965 -0.1603 -0.1132
  137loPI   C4B 2192   1.400  10.052   9.048 -0.0847 -0.2145 -0.1060
  138loPI    C1 2193  12.480  15.582  11.330 -0.0202  0.0068  0.0341
  138loPI    C2 2194  12.152  15.807  11.371  0.1559  0.2710  0.0145
  138loPI    C3 2195  12.295  15.603  11.684 -0.0939  0.0578 -0.0071
  138loPI   PO4 2196  12.502  15.494  11.111 -0.1103 -0.1206 -0.1343
  138loPI   GL1 2197  12.524  15.701  10.726  0.1507 -0.1613  0.1275
  138loPI   GL2 2198  12.657  16.023  10.603  0.0097  0.3420 -0.0023
  138loPI   C1A 2199  12.542  15.583  10.288 -0.1397 -0.1720  0.1489
  138loPI   C2A 2200  12.467  15.508   9.791  0.0608  0.0781  0.1029
  138loPI   C3A 2201  12.437  15.604   9.377 -0.1339  0.0656 -0.3580
  138loPI   C4A 2202  12.174  15.816   9.078 -0.1908  0.2037 -0.3927
  138loPI   C5A 2203  12.148  16.036   8.712  0.0813  0.0422 -0.0206
  138loPI   C6A 2204  11.832  16.112   8.465 -0.1900  0.1794 -0.2500
  138loPI   C1B 2205  12.740  16.053  10.192  0.1224  0.0660  0.0839
  138loPI   C2B 2206  12.690  16.032   9.770 -0.3110  0.0300  0.0096
  138loPI   C3B 2207  12.540  16.054   9.375 -0.1360  0.2223 -0.2125
  138loPI   C4B 2208  12.661  15.871   9.023  0.0727 -0.2549 -0.1252
  139loPI    C1 2209   4.681   8.609  11.855  0.0112 -0.0277 -0.1112
  139loPI    C2 2210   4.443   8.335  12.022  0.0937 -0.1354 -0.1692
  139loPI    C3 2211   4.285   8.665  11.861  0.0004 -0.1106 -0.0286
  139loPI   PO4 2212   4.856   8.391  11.623  0.1555  0.0305  0.4056
  139loPI   GL1 2213   4.970   8.469  11.192 -0.0205  0.1231  0.1588
  139loPI   GL2 2214   5.242   8.554  11.208 -0.1500 -0.1424 -0.3958
  139loPI   C1A 2215   5.152   8.089  10.949 -0.1236 -0.0235 -0.1773
  139loPI   C2A 2216   5.184   8.197  10.486 -0.0741 -0.2556 -0.1605
  139loPI   C3A 2217   5.173   8.126  10.085  0.2629 -0.0567  0.0409
  139loPI   C4A 2218   5.114   8.130   9.661 -0.1672 -0.0492  0.0826
  139loPI   C5A 2219   5.300   8.213   9.265  0.1486 -0.1418 -0.1593
  139loPI   C6A 2220   5.712   8.279   9.113  0.2021  0.1825  0.2482
  139loPI   C1B 2221   5.248   8.591  10.779 -0.0545 -0.1284 -0.0692
  139loPI   C2B 2222   5.251   8.693  10.305 -0.1000 -0.0264 -0.1467
  139loPI   C3B 2223   5.234   8.600   9.967  0.2410  0.0988 -0.3118
  139loPI   C4B 2224   5.263   8.661   9.517  0.2735 -0.0570  0.2397
  140loPI    C1 2225   2.799   3.371  11.568 -0.1312  0.0418 -0.0799
  140loPI    C2 2226   3.131   3.195  11.433 -0.0853  0.0084  0.0744
  140loPI    C3 2227   3.150   3.562  11.591 -0.1245  0.0129  0.0686
  140loPI   PO4 2228   2.672   3.413  11.425 -0.1068  0.4732 -0.1526
  140loPI   GL1 2229   2.760   3.146  11.105 -0.0203  0.4021 -0.1188
  140loPI   GL2 2230   2.999   3.144  10.967 -0.0189  0.2474  0.1836
  140loPI   C1A 2231   2.620   3.139  10.658 -0.0385  0.0027 -0.1463
  140loPI   C2A 2232   2.636   3.083  10.209  0.2601 -0.4898  0.2948
  140loPI   C3A 2233   2.598   3.028   9.835 -0.0286 -0.1815  0.0592
  140loPI   C4A 2234   2.540   3.084   9.396  0.0304 -0.0487 -0.4478
  140loPI   C5A 2235   2.736   3.000   8.958 -0.0484  0.4993 -0.1984
  140loPI   C6A 2236   3.039   2.764   8.664  0.2222 -0.0956 -0.0017
  140loPI   C1B 2237   3.175   3.199  10.630 -0.1318 -0.0540  0.2203
  140loPI   C2B 2238   3.140   3.168  10.219 -0.0400 -0.0054 -0.0319
  140loPI   C3B 2239   3.103   3.090   9.804 -0.0706 -0.0378 -0.1553
  140loPI   C4B 2240   3.014   3.076   9.372 -0.0952 -0.0062  0.1798
  141loPI    C1 2241  10.484   4.150  11.636 -0.1426 -0.0215 -0.1373
  141loPI    C2 2242  10.451   3.999  12.005  0.0162 -0.0356 -0.1281
  141loPI    C3 2243  10.303   4.362  11.923 -0.0382 -0.0413 -0.0562
  141loPI   PO4 2244  10.439   4.054  11.498 -0.0844  0.1390  0.0492
  141loPI   GL1 2245  10.066   3.953  11.253 -0.0840 -0.0951  0.0257
  141loPI   GL2 2246   9.890   3.785  11.091 -0.2718  0.0243  0.1044
  141loPI   C1A 2247  10.169   3.969  10.724  0.2209  0.0176 -0.2643
  141loPI   C2A 2248  10.296   3.961  10.318 -0.2281 -0.1040  0.2393
  141loPI   C3A 2249  10.263   4.044   9.921  0.0643 -0.2996  0.1352
  141loPI   C4A 2250  10.317   4.047   9.457 -0.1912  0.2381  0.0706
  141loPI   C5A 2251  10.305   4.126   9.060 -0.3322  0.1873  0.0452
  141loPI   C6A 2252  10.111   4.485   8.837 -0.1137 -0.0740  0.0578
  141loPI   C1B 2253   9.731   3.740  10.684 -0.1899 -0.1718  0.0717
  141loPI   C2B 2254   9.765   3.775  10.250 -0.0858 -0.1439 -0.1447
  141loPI   C3B 2255   9.729   3.834   9.823 -0.1673  0.0205  0.1189
  141loPI   C4B 2256   9.791   3.884   9.342 -0.1373  0.0455 -0.0827
  142loPI    C1 2257   2.188   5.487  11.189  0.2502  0.2091 -0.1447
  142loPI    C2 2258   2.226   5.210  11.475  0.4212  0.1725 -0.2014
  142loPI    C3 2259   2.126   5.585  11.572  0.0482  0.0608 -0.1380
  142loPI   PO4 2260   2.102   5.388  11.033 -0.0223 -0.3871 -0.1527
  142loPI   GL1 2261   2.185   5.359  10.596  0.0359  0.2962 -0.1084
  142loPI   GL2 2262   2.264   5.588  10.586 -0.3083  0.1428  0.0599
  142loPI   C1A 2263   1.984   5.358  10.219 -0.0913 -0.0930 -0.1529
  142loPI   C2A 2264   1.868   5.172   9.870 -0.1909 -0.1362 -0.0672
  142loPI   C3A 2265   1.732   5.097   9.510  0.0163 -0.1138 -0.0134
  142loPI   C4A 2266   1.827   5.052   9.113  0.0977 -0.1336 -0.3128
  142loPI   C5A 2267   2.118   4.952   8.847  0.1817  0.2751  0.0162
  142loPI   C6A 2268   2.406   4.916   8.485 -0.0632  0.0366 -0.0604
  142loPI   C1B 2269   2.250   5.763  10.149  0.2409 -0.1526  0.2166
  142loPI   C2B 2270   1.924   5.658   9.777 -0.3050 -0.0571 -0.0064
  142loPI   C3B 2271   1.833   5.599   9.266  0.0698 -0.1915 -0.0884
  142loPI   C4B 2272   1.874   5.483   8.861 -0.2594  0.0351  0.0271
  143loPI    C1 2273   1.195  17.252  11.717  0.0994 -0.0422 -0.0403
  143loPI    C2 2274   0.942  17.176  12.018  0.1131  0.0415 -0.0074
  143loPI    C3 2275   1.310  17.313  12.095  0.0907  0.1358 -0.0654
  143loPI   PO4 2276   1.167  17.078  11.543  0.1134 -0.0603 -0.1196
  143loPI   GL1 2277   1.160  16.955  11.064 -0.1863 -0.0275 -0.0996
  143loPI   GL2 2278   0.902  17.177  10.926 -0.1933  0.1596 -0.1278
  143loPI   C1A 2279   1.277  16.904  10.638 -0.3933 -0.2095 -0.1200
  143loPI   C2A 2280   1.333  16.956  10.089  0.1390 -0.1839 -0.1812
  143loPI   C3A 2281   1.292  16.946   9.609  0.3840  0.1093  0.3561
  143loPI   C4A 2282   1.393  16.922   9.285  0.0841  0.0347  0.1194
  143loPI   C5A 2283   1.449  16.849   8.872 -0.1176  0.1254 -0.0599
  143loPI   C6A 2284   1.408  17.176   8.541 -0.1275 -0.2801  0.0491
  143loPI   C1B 2285   0.931  17.262  10.529 -0.1286 -0.0395  0.1531
  143loPI   C2B 2286   0.922  17.303  10.132  0.2597  0.0316  0.0217
  143loPI   C3B 2287   0.949  17.319   9.698  0.3659  0.2615  0.0963
  143loPI   C4B 2288   0.941  17.251   9.317 -0.1429 -0.3173 -0.1749
  144loPI    C1 2289  12.700  15.248  11.606 -0.0535 -0.3233  0.1379
  144loPI    C2 2290  12.755  15.575  11.830 -0.0577 -0.2503  0.0339
  144loPI    C3 2291  12.611  15.240  11.995 -0.0837 -0.1898  0.1343
  144loPI   PO4 2292  12.903  15.311  11.414  0.1498  0.2037 -0.3222
  144loPI   GL1 2293  12.985  15.499  10.933  0.3241  0.0522 -0.0401
  144loPI   GL2 2294  12.881  15.178  10.910  0.1259 -0.0190 -0.1233
  144loPI   C1A 2295  12.901  15.272  10.434  0.2059  0.0058 -0.1843
  144loPI   C2A 2296  12.906  15.131  10.110 -0.3856 -0.2562  0.0470
  144loPI   C3A 2297  12.862  15.203   9.690 -0.0497 -0.1098 -0.3681
  144loPI   C4A 2298  12.881  15.309   9.366 -0.1784 -0.2685 -0.1518
  144loPI   C5A 2299  12.807  15.349   8.985 -0.3008 -0.2564  0.3473
  144loPI   C6A 2300  12.953  15.148   8.661 -0.0663 -0.0125  0.2298
  144loPI   C1B 2301  13.119  14.876  10.612  0.1016  0.1458  0.2849
  144loPI   C2B 2302  13.248  14.812  10.217  0.0051 -0.1290 -0.1482
  144loPI   C3B 2303  13.325  14.767   9.804  0.0098 -0.0289  0.2231
  144loPI   C4B 2304  13.215  14.893   9.494  0.2378  0.0277 -0.0454
  145loPI    C1 2305   5.626   8.645  11.548  0.2252  0.3280 -0.0741
  145loPI    C2 2306   5.268   8.693  11.720  0.1075  0.1531 -0.2652
  145loPI    C3 2307   5.559   8.500  11.915 -0.0080  0.0027 -0.2398
  145loPI   PO4 2308   5.647   8.859  11.443  0.0718 -0.0334  0.1754
  145loPI   GL1 2309   5.857   9.011  11.181 -0.1517 -0.0559 -0.0618
  145loPI   GL2 2310   5.749   9.311  11.064  0.0923  0.2095 -0.1249
  145loPI   C1A 2311   5.739   8.829  10.753 -0.0484 -0.1419  0.0207
  145loPI   C2A 2312   5.764   8.874  10.410 -0.1259  0.0446  0.2433
  145loPI   C3A 2313   5.693   8.902   9.980  0.0628  0.0735 -0.0802
  145loPI   C4A 2314   5.706   8.858   9.536 -0.0903  0.1807 -0.2840
  145loPI   C5A 2315   5.801   8.831   9.107  0.2620 -0.1299 -0.3255
  145loPI   C6A 2316   5.831   8.577   8.727 -0.0065 -0.1565  0.2618
  145loPI   C1B 2317   5.852   9.398  10.572 -0.1656  0.0315  0.1186
  145loPI   C2B 2318   5.890   9.335  10.219 -0.2055 -0.2239  0.0330
  145loPI   C3B 2319   5.932   9.324   9.758  0.3299  0.2729  0.2333
  145loPI   C4B 2320   5.997   9.472   9.289  0.2251 -0.1277  0.1080
  146loPI    C1 2321   8.655   6.176  11.689  0.1807 -0.0109  0.0350
  146loPI    C2 2322   8.400   5.936  11.883  0.0592 -0.1212 -0.2544
  146loPI    C3 2323   8.321   6.327  11.850  0.1023 -0.0936 -0.0488
  146loPI   PO4 2324   8.694   6.071  11.444  0.1387  0.0438 -0.2439
  146loPI   GL1 2325   8.682   5.780  11.076 -0.1119 -0.0276  0.0468
  146loPI   GL2 2326   8.653   5.371  11.072  0.0448 -0.2472  0.1453
  146loPI   C1A 2327   8.807   5.968  10.726 -0.0707 -0.0622 -0.2818
  146loPI   C2A 2328   8.817   5.903  10.297  0.3719  0.0217 -0.0907
  146loPI   C3A 2329   8.847   5.893   9.828  0.1199 -0.2153 -0.0034
  146loPI   C4A 2330   8.778   5.863   9.380 -0.1741  0.1908 -0.3939
  146loPI   C5A 2331   8.828   5.985   8.900 -0.3808  0.2797  0.2409
  146loPI   C6A 2332   8.756   6.055   8.432  0.2582 -0.0404 -0.3469
  146loPI   C1B 2333   8.717   5.416  10.570  0.0800 -0.2883  0.0758
  146loPI   C2B 2334   8.758   5.447  10.148 -0.0993 -0.2881 -0.1126
  146loPI   C3B 2335   8.611   5.479   9.721  0.1023 -0.1370  0.0864
  146loPI   C4B 2336   8.760   5.326   9.360 -0.1341 -0.0052  0.2630
  147loPI    C1 2337   3.079   7.471  11.094  0.1461 -0.2419 -0.2080
  147loPI    C2 2338   3.153   7.610  11.462  0.1086 -0.1141 -0.2482
  147loPI    C3 2339   2.782   7.502  11.360  0.1386 -0.2490 -0.2156
  147loPI   PO4 2340   3.208   7.738  10.973 -0.2814  0.0055  0.0050
  147loPI   GL1 2341   2.999   7.719  10.535  0.0702 -0.2438 -0.1489
  147loPI   GL2 2342   2.837   7.454  10.669 -0.1559  0.1488  0.1297
  147loPI   C1A 2343   2.863   7.773  10.149 -0.0272  0.0767  0.1015
  147loPI   C2A 2344   2.663   7.823   9.775  0.0565 -0.1440  0.0324
  147loPI   C3A 2345   2.622   7.491   9.470 -0.0513  0.1447  0.2640
  147loPI   C4A 2346   2.461   7.302   8.983 -0.0657 -0.0248 -0.3229
  147loPI   C5A 2347   2.008   7.173   8.732  0.0196 -0.3683 -0.1827
  147loPI   C6A 2348   1.743   7.239   8.330 -0.0229 -0.2194  0.0973
  147loPI   C1B 2349   2.806   7.258  10.240  0.0139 -0.1390 -0.2931
  147loPI   C2B 2350   2.899   7.306   9.817 -0.0916 -0.1105 -0.2729
  147loPI   C3B 2351   3.109   7.503   9.497  0.3457 -0.0287 -0.0351
  147loPI   C4B 2352   3.467   7.791   9.384 -0.0638 -0.1064  0.2273
  148loPI    C1 2353   3.680  14.826  11.613  0.0786 -0.0075  0.0156
  148loPI    C2 2354   3.459  15.135  11.488 -0.0733 -0.1437 -0.0566
  148loPI    C3 2355   3.331  14.907  11.791  0.0637 -0.1053  0.0312
  148loPI   PO4 2356   3.708  14.715  11.427 -0.2396 -0.0199 -0.0648
  148loPI   GL1 2357   3.711  14.904  11.042  0.1657 -0.1805  0.4305
  148loPI   GL2 2358   3.377  15.007  10.962 -0.0887  0.0879  0.3562
  148loPI   C1A 2359   4.099  15.031  10.842  0.0683 -0.2164  0.1198
  148loPI   C2A 2360   4.012  14.941  10.345  0.1108 -0.4576  0.0598
  148loPI   C3A 2361   4.097  14.930   9.868 -0.2566 -0.1535  0.0612
  148loPI   C4A 2362   4.171  15.039   9.418 -0.0398  0.0473  0.2582
  148loPI   C5A 2363   3.992  15.035   9.046  0.4790 -0.0473  0.2282
  148loPI   C6A 2364   3.646  14.995   8.786 -0.3777  0.0834  0.0245
  148loPI   C1B 2365   3.521  14.925  10.559  0.4088  0.1334  0.0734
  148loPI   C2B 2366   3.518  14.851  10.117  0.2788 -0.2356 -0.0450
  148loPI   C3B 2367   3.620  14.827   9.718 -0.3409  0.0564  0.1369
  148loPI   C4B 2368   3.682  14.819   9.318 -0.1431  0.1135  0.2040
  149loPI    C1 2369  10.007   4.821  12.006  0.0539 -0.0311  0.2596
  149loPI    C2 2370   9.663   4.619  12.023 -0.1053  0.2231  0.1237
  149loPI    C3 2371   9.760   4.874  12.316 -0.1127  0.2768  0.0796
  149loPI   PO4 2372  10.040   4.803  11.746 -0.2656  0.0871  0.0821
  149loPI   GL1 2373  10.116   4.937  11.210 -0.1846  0.0689 -0.1832
  149loPI   GL2 2374  10.123   5.274  11.147 -0.2508 -0.1908 -0.1417
  149loPI   C1A 2375  10.031   4.742  10.820  0.0035 -0.1523 -0.0359
  149loPI   C2A 2376   9.985   4.858  10.454 -0.0598  0.1449  0.1723
  149loPI   C3A 2377   9.997   4.836   9.979  0.0208 -0.0709  0.4214
  149loPI   C4A 2378  10.010   4.856   9.585  0.1999 -0.2454  0.4368
  149loPI   C5A 2379   9.927   4.982   9.174  0.0266 -0.3428  0.3595
  149loPI   C6A 2380   9.999   5.385   8.993 -0.1639 -0.1907  0.0995
  149loPI   C1B 2381  10.088   5.322  10.742 -0.0351  0.5191 -0.1340
  149loPI   C2B 2382  10.096   5.399  10.283  0.2894  0.0852 -0.2559
  149loPI   C3B 2383  10.108   5.303   9.851 -0.1047 -0.0650  0.0658
  149loPI   C4B 2384  10.081   5.443   9.505 -0.0841  0.0665  0.0590
  150loPI    C1 2385  11.170  13.153  11.615 -0.0246  0.2967  0.1308
  150loPI    C2 2386  11.174  12.973  11.972  0.0357  0.1846  0.0746
  150loPI    C3 2387  11.107  13.367  11.946 -0.2464  0.1467  0.1881
  150loPI   PO4 2388  11.029  13.123  11.407  0.3077 -0.1934 -0.1920
  150loPI   GL1 2389  11.047  13.125  10.986  0.0544  0.1466 -0.0865
  150loPI   GL2 2390  10.951  13.493  10.942 -0.1248 -0.1456  0.1185
  150loPI   C1A 2391  11.094  13.148  10.616 -0.2884 -0.0402  0.0597
  150loPI   C2A 2392  11.073  13.172  10.208  0.2127  0.1527  0.1562
  150loPI   C3A 2393  11.091  13.236   9.709  0.4394  0.1636 -0.1721
  150loPI   C4A 2394  11.144  13.300   9.251 -0.3455 -0.0057  0.1901
  150loPI   C5A 2395  10.905  13.281   8.915 -0.0032 -0.1759  0.0130
  150loPI   C6A 2396  10.664  13.293   8.591  0.2559  0.0815 -0.0102
  150loPI   C1B 2397  10.724  13.670  10.585 -0.0754  0.0183 -0.2705
  150loPI   C2B 2398  10.706  13.597  10.162 -0.3274 -0.3221 -0.1848
  150loPI   C3B 2399  10.663  13.478   9.814  0.0365 -0.3091 -0.3498
  150loPI   C4B 2400  10.737  13.535   9.419  0.1076 -0.0407 -0.0029
  151loPI    C1 2401  16.919  13.771  11.377 -0.0797 -0.1159  0.2000
  151loPI    C2 2402  16.663  13.795  11.072  0.0717 -0.1241  0.0710
  151loPI    C3 2403  16.541  13.882  11.442 -0.0662  0.0640 -0.0170
  151loPI   PO4 2404  17.141  13.935  11.204 -0.1405 -0.2011 -0.3173
  151loPI   GL1 2405  17.205  13.898  10.865 -0.0913  0.0646  0.0663
  151loPI   GL2 2406  17.192  13.590  10.896 -0.1198  0.0246 -0.0400
  151loPI   C1A 2407  16.824  13.962  10.599  0.1480 -0.0347  0.0241
  151loPI   C2A 2408  16.695  13.982  10.208 -0.2001  0.2840 -0.1907
  151loPI   C3A 2409  16.831  14.048   9.830 -0.0000 -0.1244 -0.2473
  151loPI   C4A 2410  16.682  13.949   9.402 -0.1007 -0.0480  0.0754
  151loPI   C5A 2411  16.734  14.092   8.963  0.0887  0.2382  0.0675
  151loPI   C6A 2412  16.816  14.043   8.440 -0.1434  0.6163 -0.1429
  151loPI   C1B 2413  17.156  13.676  10.422 -0.0076 -0.2991  0.0912
  151loPI   C2B 2414  17.132  13.693   9.955 -0.1813  0.0724  0.0848
  151loPI   C3B 2415  17.101  13.663   9.474 -0.0199  0.2326  0.0417
  151loPI   C4B 2416  17.081  13.726   8.990 -0.4308 -0.1780 -0.3108
  152loPI    C1 2417  17.485  14.171  11.704  0.3990 -0.2891 -0.1447
  152loPI    C2 2418  17.346  14.394  11.402  0.3116  0.0195  0.1176
  152loPI    C3 2419  17.091  14.204  11.644  0.3653  0.0982  0.2371
  152loPI   PO4 2420  17.683  14.008  11.591 -0.4508  0.1408  0.1704
  152loPI   GL1 2421  17.671  14.059  11.223  0.0191 -0.0176 -0.0439
  152loPI   GL2 2422  17.752  13.824  11.013 -0.1569  0.3681 -0.3431
  152loPI   C1A 2423  17.825  14.361  10.831  0.0942 -0.1327 -0.0051
  152loPI   C2A 2424  17.795  14.356  10.375 -0.1886  0.1399  0.3480
  152loPI   C3A 2425  17.737  14.304   9.928 -0.0413  0.1480 -0.1006
  152loPI   C4A 2426  17.717  14.269   9.462  0.0282  0.0190  0.0082
  152loPI   C5A 2427  17.543  14.216   8.953  0.1818  0.3095 -0.0194
  152loPI   C6A 2428  17.216  14.254   8.773 -0.2763  0.0597  0.2743
  152loPI   C1B 2429  17.601  13.882  10.560  0.2455 -0.2624  0.2377
  152loPI   C2B 2430  17.688  13.789  10.132  0.0411  0.0545 -0.2093
  152loPI   C3B 2431  17.618  13.721   9.742 -0.0432 -0.0954  0.2209
  152loPI   C4B 2432  17.628  13.773   9.191 -0.0977 -0.1285 -0.2834
  153loPI    C1 2433  13.520  10.912  11.260  0.0948 -0.0415  0.0010
  153loPI    C2 2434  13.277  11.135  11.485  0.0690 -0.0211 -0.0469
  153loPI    C3 2435  13.611  10.983  11.643  0.0573  0.0034  0.0017
  153loPI   PO4 2436  13.592  11.127  11.066 -0.0589 -0.0547 -0.2658
  153loPI   GL1 2437  13.604  11.316  10.695 -0.0173 -0.0719 -0.2616
  153loPI   GL2 2438  13.723  11.215  10.559 -0.2149  0.0307 -0.0278
  153loPI   C1A 2439  13.455  11.556  10.328 -0.0158 -0.1794  0.0873
  153loPI   C2A 2440  13.385  11.672   9.900  0.0974 -0.0355 -0.0386
  153loPI   C3A 2441  13.426  11.554   9.515  0.3093  0.0868  0.1676
  153loPI   C4A 2442  13.456  11.503   9.099 -0.4816  0.0953  0.1247
  153loPI   C5A 2443  13.387  11.293   8.641  0.3855 -0.0427  0.4564
  153loPI   C6A 2444  13.625  11.240   8.251  0.0775 -0.1601 -0.0592
  153loPI   C1B 2445  13.756  11.186  10.102  0.2473  0.0963 -0.2584
  153loPI   C2B 2446  13.853  11.302   9.616  0.2059 -0.1650  0.2819
  153loPI   C3B 2447  13.827  11.212   9.286 -0.1492 -0.0701 -0.1133
  153loPI   C4B 2448  13.805  11.080   8.901  0.3951 -0.2376  0.0897
  154loPI    C1 2449  16.030  10.679  11.487  0.0562 -0.2423  0.0848
  154loPI    C2 2450  16.009  10.910  11.813 -0.0994  0.0162 -0.1047
  154loPI    C3 2451  16.297  10.635  11.782  0.1134  0.2099  0.1086
  154loPI   PO4 2452  16.143  10.924  11.200 -0.3301  0.1810  0.0616
  154loPI   GL1 2453  16.003  11.014  10.801  0.1954  0.0590 -0.3006
  154loPI   GL2 2454  15.827  11.227  10.890  0.0036 -0.2737  0.3259
  154loPI   C1A 2455  16.037  11.016  10.354 -0.1842  0.2309 -0.0226
  154loPI   C2A 2456  16.061  10.992   9.908 -0.0661  0.0629  0.1648
  154loPI   C3A 2457  16.124  11.010   9.437  0.1576  0.2103 -0.1966
  154loPI   C4A 2458  16.145  11.054   9.002  0.0620  0.3290 -0.1932
  154loPI   C5A 2459  16.245  11.211   8.668  0.3175 -0.1379 -0.0108
  154loPI   C6A 2460  16.395  11.402   8.338 -0.1430 -0.0931 -0.0322
  154loPI   C1B 2461  15.689  11.297  10.523  0.0127 -0.1455 -0.0257
  154loPI   C2B 2462  15.635  11.403  10.177  0.0566  0.3139  0.2754
  154loPI   C3B 2463  15.674  11.332   9.710  0.2716  0.1087 -0.1801
  154loPI   C4B 2464  15.750  11.326   9.330  0.2745  0.0922  0.1733
  155loPI    C1 2465   0.124  11.420  11.456 -0.2022  0.1463  0.1696
  155loPI    C2 2466   0.023  11.249  11.803 -0.3719 -0.1022  0.0013
  155loPI    C3 2467  -0.262  11.379  11.554 -0.2482  0.2180  0.0226
  155loPI   PO4 2468   0.226  11.259  11.265  0.1491  0.0084  0.0509
  155loPI   GL1 2469   0.414  10.941  10.917  0.0776 -0.0636 -0.0872
  155loPI   GL2 2470   0.632  11.312  10.976  0.2871  0.0366 -0.3401
  155loPI   C1A 2471   0.242  11.137  10.577  0.3811 -0.1037  0.0335
  155loPI   C2A 2472   0.276  11.117  10.194 -0.0756 -0.1677 -0.0552
  155loPI   C3A 2473   0.301  11.089   9.853 -0.1055 -0.1993  0.0576
  155loPI   C4A 2474   0.256  11.051   9.435 -0.3122 -0.0222 -0.0344
  155loPI   C5A 2475   0.475  11.111   9.003 -0.2029 -0.1216 -0.1624
  155loPI   C6A 2476   0.817  10.871   8.882 -0.1896 -0.1621 -0.0438
  155loPI   C1B 2477   0.780  11.224  10.566 -0.2897  0.0337  0.2066
  155loPI   C2B 2478   0.784  11.206  10.176 -0.0197  0.3835 -0.0595
  155loPI   C3B 2479   0.796  11.240   9.782  0.3061 -0.0098  0.0531
  155loPI   C4B 2480   0.798  11.111   9.361 -0.1767 -0.0231 -0.0175
  156loPI    C1 2481   5.948   4.917  11.186  0.0484 -0.0977  0.0259
  156loPI    C2 2482   5.575   4.872  11.322  0.0145  0.2260  0.0480
  156loPI    C3 2483   5.854   4.601  11.412 -0.1790  0.0594  0.1552
  156loPI   PO4 2484   5.981   4.960  10.910  0.1980 -0.1207  0.1942
  156loPI   GL1 2485   6.231   5.014  10.658 -0.0435 -0.0265  0.2352
  156loPI   GL2 2486   6.480   4.761  10.600 -0.1300 -0.0099  0.0915
  156loPI   C1A 2487   6.274   5.239  10.283  0.0977 -0.3824  0.1155
  156loPI   C2A 2488   6.307   5.313   9.815 -0.0231  0.1775  0.1873
  156loPI   C3A 2489   6.291   5.171   9.387 -0.4156  0.2523 -0.3509
  156loPI   C4A 2490   6.278   5.186   9.029 -0.3146 -0.2101  0.0355
  156loPI   C5A 2491   6.133   5.451   8.686 -0.4050  0.0766 -0.0203
  156loPI   C6A 2492   6.082   5.366   8.239  0.1008 -0.1730 -0.3192
  156loPI   C1B 2493   6.691   4.829  10.208  0.0001 -0.4196 -0.0467
  156loPI   C2B 2494   6.766   4.923   9.757  0.1553  0.2100 -0.0143
  156loPI   C3B 2495   6.712   4.918   9.369  0.2156  0.0967 -0.1290
  156loPI   C4B 2496   6.737   5.108   8.973 -0.2402  0.1987 -0.2176
  157loPI    C1 2497   7.149   0.174  11.864 -0.0403 -0.1668  0.2152
  157loPI    C2 2498   6.897   0.449  12.008  0.1350  0.1419 -0.0547
  157loPI    C3 2499   7.055   0.176  12.253 -0.0709  0.2564  0.2108
  157loPI   PO4 2500   7.001   0.225  11.583 -0.3530 -0.3267 -0.0073
  157loPI   GL1 2501   6.661   0.140  11.311  0.0543  0.0715  0.2358
  157loPI   GL2 2502   6.373   0.296  11.200  0.3598 -0.4157 -0.3686
  157loPI   C1A 2503   6.980   0.188  10.937 -0.2242 -0.0651 -0.0607
  157loPI   C2A 2504   7.074   0.184  10.613  0.1895  0.2296 -0.2087
  157loPI   C3A 2505   7.106   0.164  10.149  0.0305 -0.2980  0.1315
  157loPI   C4A 2506   7.110   0.149   9.848 -0.1475  0.0325 -0.0041
  157loPI   C5A 2507   7.154   0.105   9.368 -0.0590 -0.0433 -0.3355
  157loPI   C6A 2508   7.170   0.030   8.915  0.2724 -0.0620  0.2383
  157loPI   C1B 2509   6.268   0.264  10.830  0.2864  0.0861  0.0060
  157loPI   C2B 2510   6.212   0.376  10.429  0.2040  0.2457  0.1208
  157loPI   C3B 2511   6.244   0.404   9.940 -0.2250  0.1047  0.1774
  157loPI   C4B 2512   6.322   0.323   9.594  0.0674  0.1988  0.0732
  158loPI    C1 2513  10.093  12.298  11.409  0.0582  0.1834  0.1017
  158loPI    C2 2514   9.869  12.235  11.735 -0.1978 -0.0553 -0.1151
  158loPI    C3 2515  10.266  12.186  11.753 -0.2027 -0.0071  0.1743
  158loPI   PO4 2516  10.058  12.186  11.190  0.1032  0.0595  0.1642
  158loPI   GL1 2517  10.210  12.028  10.865  0.2395 -0.0755 -0.2781
  158loPI   GL2 2518  10.411  11.861  10.843 -0.1115  0.1741 -0.1188
  158loPI   C1A 2519  10.234  11.986  10.388 -0.1371 -0.1284  0.0163
  158loPI   C2A 2520  10.257  11.916   9.936  0.0348 -0.0072  0.0909
  158loPI   C3A 2521  10.271  11.991   9.575 -0.3338 -0.3144  0.2989
  158loPI   C4A 2522  10.345  12.107   9.155 -0.0172 -0.0305  0.2120
  158loPI   C5A 2523  10.596  11.997   8.876  0.2704  0.1906 -0.0198
  158loPI   C6A 2524  10.878  11.702   8.770  0.2478 -0.1563 -0.0422
  158loPI   C1B 2525  10.652  11.668  10.504 -0.0998 -0.0512  0.2235
  158loPI   C2B 2526  10.607  11.605  10.147  0.2083  0.0431 -0.2080
  158loPI   C3B 2527  10.677  11.699   9.730  0.1986  0.3320 -0.0250
  158loPI   C4B 2528  10.702  11.720   9.266  0.1718 -0.1779 -0.2145
  159loPI    C1 2529   6.514  12.674  11.214 -0.0885 -0.0118 -0.0120
  159loPI    C2 2530   6.543  12.547  11.592  0.1775 -0.0473 -0.0420
  159loPI    C3 2531   6.814  12.431  11.322  0.1493  0.2023 -0.1795
  159loPI   PO4 2532   6.195  12.738  11.195 -0.0908  0.0032  0.0395
  159loPI   GL1 2533   6.041  12.964  10.967  0.2344  0.2115  0.1129
  159loPI   GL2 2534   6.429  12.860  10.783  0.0595 -0.3630 -0.3292
  159loPI   C1A 2535   6.043  13.250  10.662  0.0181  0.0563 -0.3193
  159loPI   C2A 2536   6.050  13.315  10.271 -0.0001  0.0557 -0.3238
  159loPI   C3A 2537   5.961  13.298   9.864 -0.3313  0.1772  0.1361
  159loPI   C4A 2538   6.020  13.124   9.429 -0.2109 -0.0012 -0.1083
  159loPI   C5A 2539   5.839  13.094   9.047  0.1359  0.0408 -0.0173
  159loPI   C6A 2540   5.758  13.142   8.601 -0.2391  0.0165 -0.0673
  159loPI   C1B 2541   6.398  12.978  10.370 -0.1968  0.1909 -0.2126
  159loPI   C2B 2542   6.244  12.911  10.007 -0.1768  0.4877  0.4239
  159loPI   C3B 2543   6.275  12.691   9.664  0.3217  0.2233  0.1982
  159loPI   C4B 2544   6.361  12.723   9.259 -0.3024 -0.0407 -0.0823
  160loPI    C1 2545  13.512  13.083  11.759 -0.4667 -0.1886 -0.2609
  160loPI    C2 2546  13.209  13.342  11.796 -0.0658  0.2658 -0.0453
  160loPI    C3 2547  13.334  13.133  12.114 -0.1233  0.1103 -0.1239
  160loPI   PO4 2548  13.469  12.870  11.547  0.1179 -0.2591 -0.0179
  160loPI   GL1 2549  13.446  12.503  11.183  0.0500 -0.2861 -0.1021
  160loPI   GL2 2550  13.756  12.604  11.131  0.1337 -0.0037  0.1441
  160loPI   C1A 2551  13.216  12.525  10.830 -0.0156  0.3127  0.0655
  160loPI   C2A 2552  13.242  12.488  10.392 -0.0127 -0.0483  0.2223
  160loPI   C3A 2553  13.221  12.359   9.955 -0.3308 -0.0730  0.1662
  160loPI   C4A 2554  13.224  12.448   9.422 -0.0373 -0.2103  0.0253
  160loPI   C5A 2555  13.072  12.745   9.099  0.0821  0.0346  0.1838
  160loPI   C6A 2556  12.913  12.953   8.741  0.1598 -0.0186  0.2295
  160loPI   C1B 2557  13.744  12.617  10.644 -0.2391 -0.0284  0.1452
  160loPI   C2B 2558  13.771  12.568  10.151  0.1175 -0.1444  0.2188
  160loPI   C3B 2559  13.690  12.601   9.685 -0.0266  0.0203  0.1699
  160loPI   C4B 2560  13.745  12.432   9.339  0.1001 -0.0388 -0.1673
  161loPI    C1 2561   9.361   4.463  11.648  0.1905 -0.2603 -0.0481
  161loPI    C2 2562   9.238   4.217  11.938  0.2124 -0.0442  0.1478
  161loPI    C3 2563   9.132   4.602  11.945  0.1764 -0.0460 -0.1576
  161loPI   PO4 2564   9.375   4.317  11.474  0.1070  0.0267  0.0064
  161loPI   GL1 2565   9.541   4.218  11.164  0.3867  0.2113  0.2836
  161loPI   GL2 2566   9.808   4.331  11.036 -0.1889  0.3970 -0.1542
  161loPI   C1A 2567   9.468   4.112  10.754  0.0120 -0.2137  0.2346
  161loPI   C2A 2568   9.418   4.234  10.346 -0.1861  0.1707 -0.0789
  161loPI   C3A 2569   9.416   4.255   9.950  0.0029 -0.4526  0.2998
  161loPI   C4A 2570   9.333   4.231   9.538 -0.1288  0.0880  0.0765
  161loPI   C5A 2571   9.461   4.288   9.098 -0.0774  0.6097 -0.0819
  161loPI   C6A 2572   9.740   4.192   8.816  0.4380 -0.0586  0.1843
  161loPI   C1B 2573   9.836   4.364  10.606  0.1095  0.3882  0.2958
  161loPI   C2B 2574   9.902   4.265  10.138  0.2236 -0.2350  0.1011
  161loPI   C3B 2575   9.853   4.296   9.688 -0.3168  0.0428  0.1065
  161loPI   C4B 2576   9.905   4.440   9.296  0.0509  0.1862 -0.1299
  162loPI    C1 2577  10.650   0.595  11.778  0.0694  0.0430 -0.0049
  162loPI    C2 2578  10.911   0.777  12.019  0.1243 -0.0261 -0.0117
  162loPI    C3 2579  10.523   0.770  12.114  0.0957  0.2452 -0.0987
  162loPI   PO4 2580  10.691   0.772  11.489 -0.0645  0.0879 -0.1648
  162loPI   GL1 2581  10.682   0.945  11.160 -0.2159 -0.0115  0.3202
  162loPI   GL2 2582  10.447   1.060  10.968  0.1029 -0.3837  0.2557
  162loPI   C1A 2583  10.932   0.887  10.742  0.2768  0.0020  0.0335
  162loPI   C2A 2584  10.839   0.828  10.342 -0.3509 -0.0244  0.1421
  162loPI   C3A 2585  10.821   0.816   9.879 -0.0327  0.0958  0.0297
  162loPI   C4A 2586  10.993   0.795   9.455  0.1091  0.4685 -0.0314
  162loPI   C5A 2587  10.887   0.755   9.045 -0.0308  0.0734  0.0710
  162loPI   C6A 2588  10.669   0.462   8.637 -0.0567  0.1592  0.1252
  162loPI   C1B 2589  10.491   1.228  10.599  0.2262 -0.0523  0.0859
  162loPI   C2B 2590  10.514   1.222  10.161  0.2014  0.3042  0.0944
  162loPI   C3B 2591  10.576   1.217   9.760  0.0229 -0.2610 -0.3602
  162loPI   C4B 2592  10.703   1.135   9.364  0.0615  0.0236 -0.3913
  163loPI    C1 2593   4.867   7.587  11.656  0.0262 -0.1987  0.0584
  163loPI    C2 2594   4.736   7.260  11.845 -0.0465 -0.0399  0.2865
  163loPI    C3 2595   4.753   7.610  12.039  0.1442  0.0676  0.0798
  163loPI   PO4 2596   4.747   7.601  11.365  0.1084  0.1361 -0.1566
  163loPI   GL1 2597   4.786   7.324  10.929 -0.0441  0.1798  0.1195
  163loPI   GL2 2598   4.845   7.695  10.883  0.1819 -0.1121  0.0268
  163loPI   C1A 2599   4.572   7.439  10.492 -0.0083  0.0696  0.1185
  163loPI   C2A 2600   4.389   7.680  10.148  0.1564 -0.1297  0.0714
  163loPI   C3A 2601   4.219   7.854   9.836 -0.1716  0.2149 -0.0954
  163loPI   C4A 2602   4.138   7.800   9.407 -0.1637 -0.2225  0.0826
  163loPI   C5A 2603   4.164   7.969   9.018 -0.0604  0.1041  0.1887
  163loPI   C6A 2604   3.936   7.998   8.677 -0.2199  0.1149  0.2602
  163loPI   C1B 2605   5.024   7.636  10.439 -0.0377  0.1082 -0.0678
  163loPI   C2B 2606   5.050   7.660  10.016  0.0184 -0.0235  0.1794
  163loPI   C3B 2607   5.157   7.614   9.661  0.2430  0.1469 -0.1265
  163loPI   C4B 2608   5.081   7.711   9.205  0.1594  0.0103  0.0939
  164loPI    C1 2609   4.962  10.224  11.782  0.2203 -0.0507 -0.0780
  164loPI    C2 2610   4.821   9.899  11.595  0.0350  0.0760 -0.1613
  164loPI    C3 2611   4.859   9.901  11.994  0.1325 -0.0827 -0.1690
  164loPI   PO4 2612   4.890  10.375  11.684  0.2604  0.0037  0.4281
  164loPI   GL1 2613   5.007  10.474  11.228  0.0364  0.1035  0.0856
  164loPI   GL2 2614   4.779  10.248  11.186  0.0580  0.3141 -0.1048
  164loPI   C1A 2615   4.894  10.880  10.969  0.1433 -0.0150 -0.0863
  164loPI   C2A 2616   4.872  10.922  10.548 -0.1201 -0.0179  0.3006
  164loPI   C3A 2617   4.817  10.952  10.113 -0.2751 -0.0155  0.0766
  164loPI   C4A 2618   4.935  10.943   9.709 -0.0864 -0.0674 -0.1402
  164loPI   C5A 2619   5.030  11.038   9.292  0.2363  0.2413 -0.0370
  164loPI   C6A 2620   5.236  11.437   9.067 -0.2786  0.2736 -0.0415
  164loPI   C1B 2621   4.829  10.327  10.719  0.3425 -0.2203  0.0311
  164loPI   C2B 2622   4.756  10.443  10.268 -0.1068  0.0943  0.0914
  164loPI   C3B 2623   4.788  10.450   9.825 -0.0872  0.0063  0.0899
  164loPI   C4B 2624   4.809  10.506   9.408 -0.2496  0.0742 -0.2089
  165loPI    C1 2625  15.827   5.145  11.066 -0.2141  0.1459  0.1577
  165loPI    C2 2626  15.637   5.416  10.842 -0.1603  0.1744  0.1464
  165loPI    C3 2627  15.446   5.239  11.145 -0.1896  0.2400  0.1667
  165loPI   PO4 2628  16.046   5.257  11.021  0.0277  0.1783 -0.2789
  165loPI   GL1 2629  16.084   5.462  10.645 -0.2058 -0.2044  0.1942
  165loPI   GL2 2630  16.142   5.797  10.621  0.2271 -0.0871 -0.1748
  165loPI   C1A 2631  15.893   5.287  10.396 -0.2188 -0.1493 -0.0708
  165loPI   C2A 2632  16.006   5.238   9.925 -0.0009  0.2003  0.0192
  165loPI   C3A 2633  15.958   5.081   9.543  0.2272 -0.1136 -0.0935
  165loPI   C4A 2634  15.784   4.922   9.168  0.1229 -0.2051 -0.1200
  165loPI   C5A 2635  15.522   4.977   8.772 -0.0817 -0.2401 -0.0888
  165loPI   C6A 2636  15.778   4.985   8.390 -0.1772 -0.0204 -0.0189
  165loPI   C1B 2637  16.128   5.691  10.176  0.2166  0.2759  0.1214
  165loPI   C2B 2638  16.150   5.766   9.796  0.4439 -0.0375 -0.0637
  165loPI   C3B 2639  16.136   5.618   9.485 -0.1053 -0.1184  0.0261
  165loPI   C4B 2640  16.234   5.701   9.089 -0.0037  0.0478 -0.0878
  166loPI    C1 2641  13.618   5.559  11.505 -0.0833  0.1493  0.2596
  166loPI    C2 2642  13.761   5.922  11.595 -0.0978  0.2087  0.0485
  166loPI    C3 2643  13.611   5.689  11.884  0.1228  0.2768  0.2216
  166loPI   PO4 2644  13.547   5.600  11.200 -0.0446 -0.0186 -0.1935
  166loPI   GL1 2645  13.684   5.822  10.915 -0.1556 -0.1518  0.3614
  166loPI   GL2 2646  13.540   6.087  11.066 -0.1173 -0.0481 -0.2366
  166loPI   C1A 2647  13.435   5.922  10.535  0.1093 -0.0523  0.0329
  166loPI   C2A 2648  13.475   5.888  10.133 -0.2601  0.0736  0.4471
  166loPI   C3A 2649  13.489   6.044   9.723  0.1321  0.2350  0.0920
  166loPI   C4A 2650  13.362   6.025   9.306 -0.0946  0.1752  0.1006
  166loPI   C5A 2651  13.054   6.014   9.042  0.1513  0.3094 -0.0804
  166loPI   C6A 2652  13.012   6.297   8.650 -0.1447 -0.1689  0.0151
  166loPI   C1B 2653  13.591   6.413  10.719 -0.3242  0.2288  0.0267
  166loPI   C2B 2654  13.571   6.366  10.322 -0.1050  0.1430 -0.0534
  166loPI   C3B 2655  13.507   6.511   9.954 -0.1324 -0.1512 -0.0216
  166loPI   C4B 2656  13.535   6.522   9.538  0.2958  0.0249  0.3509
  167loPI    C1 2657  13.877   7.018  11.818 -0.1019  0.1680  0.2011
  167loPI    C2 2658  14.236   7.162  11.921 -0.2232  0.4283  0.2678
  167loPI    C3 2659  14.053   6.894  12.155 -0.0111  0.1849  0.1603
  167loPI   PO4 2660  13.955   6.902  11.521  0.1197 -0.0494  0.0967
  167loPI   GL1 2661  13.999   7.022  11.107  0.4127  0.1114  0.0719
  167loPI   GL2 2662  13.697   6.724  11.118 -0.0491 -0.0258 -0.0839
  167loPI   C1A 2663  14.227   7.077  10.690 -0.2775 -0.0667  0.1803
  167loPI   C2A 2664  14.249   7.080  10.197 -0.0064  0.0338 -0.4242
  167loPI   C3A 2665  14.241   7.078   9.768 -0.1817 -0.1049  0.1347
  167loPI   C4A 2666  14.166   7.029   9.344  0.1612 -0.1105  0.1642
  167loPI   C5A 2667  13.997   6.967   8.908  0.0839 -0.3738 -0.1442
  167loPI   C6A 2668  13.825   7.236   8.627  0.0531  0.0785 -0.1260
  167loPI   C1B 2669  13.773   6.869  10.657  0.2602  0.1407  0.4874
  167loPI   C2B 2670  13.597   7.020  10.245 -0.0077  0.1335 -0.0041
  167loPI   C3B 2671  13.625   7.028   9.825  0.0358 -0.1225  0.2415
  167loPI   C4B 2672  13.525   6.965   9.312 -0.3677  0.0235 -0.0003
  168loPI    C1 2673   6.722   7.650  11.478 -0.0986 -0.0984  0.1739
  168loPI    C2 2674   6.979   7.948  11.408  0.0818 -0.2858  0.0242
  168loPI    C3 2675   6.768   7.942  11.748 -0.3050  0.2806 -0.1887
  168loPI   PO4 2676   6.884   7.459  11.281 -0.1064 -0.0354  0.2729
  168loPI   GL1 2677   7.055   7.491  10.931  0.0369 -0.0003 -0.3660
  168loPI   GL2 2678   6.821   7.766  10.919  0.0385 -0.2899  0.0490
  168loPI   C1A 2679   6.878   7.174  10.648  0.3714  0.0126  0.1952
  168loPI   C2A 2680   6.789   7.173  10.293 -0.1248  0.0805  0.1595
  168loPI   C3A 2681   6.782   7.257   9.863  0.1304 -0.0074 -0.4504
  168loPI   C4A 2682   6.853   7.277   9.454  0.3923  0.0355 -0.1456
  168loPI   C5A 2683   6.877   7.252   9.075  0.0456  0.0066 -0.0878
  168loPI   C6A 2684   6.895   7.439   8.756 -0.3325  0.2168  0.1006
  168loPI   C1B 2685   6.864   7.709  10.463 -0.1017 -0.0797 -0.2205
  168loPI   C2B 2686   6.985   7.785  10.031 -0.2952  0.2434  0.3353
  168loPI   C3B 2687   6.963   7.834   9.655 -0.0021  0.0259  0.1701
  168loPI   C4B 2688   7.150   7.984   9.304  0.3465  0.2724  0.0284
  169loPI    C1 2689   2.698   4.480  11.434  0.0039  0.0107 -0.0225
  169loPI    C2 2690   2.531   4.838  11.371  0.1074  0.0772  0.0763
  169loPI    C3 2691   2.925   4.809  11.437  0.1544 -0.0883 -0.2563
  169loPI   PO4 2692   2.680   4.319  11.237 -0.3623 -0.2682 -0.1500
  169loPI   GL1 2693   2.799   4.171  10.955  0.3208  0.3015  0.1106
  169loPI   GL2 2694   3.042   4.233  10.821 -0.2127 -0.3656 -0.2290
  169loPI   C1A 2695   2.651   4.319  10.552  0.0425 -0.2116  0.1180
  169loPI   C2A 2696   2.666   4.295  10.131  0.1337  0.3367 -0.1111
  169loPI   C3A 2697   2.585   4.418   9.739  0.3470 -0.5384 -0.1243
  169loPI   C4A 2698   2.570   4.336   9.357  0.2816 -0.0474  0.0818
  169loPI   C5A 2699   2.829   4.149   9.010  0.0274  0.1177 -0.2991
  169loPI   C6A 2700   3.216   4.268   8.777  0.1274  0.2781 -0.1608
  169loPI   C1B 2701   3.121   4.165  10.409 -0.1186  0.0774  0.1449
  169loPI   C2B 2702   3.007   3.950   9.970  0.0747  0.2126 -0.0381
  169loPI   C3B 2703   2.882   3.984   9.517 -0.0892  0.0534  0.2565
  169loPI   C4B 2704   2.749   3.709   9.136  0.2755 -0.0416  0.0961
  170loPI    C1 2705   0.240   5.475  11.256  0.0023 -0.1037 -0.1243
  170loPI    C2 2706   0.393   5.357  11.606  0.0202 -0.0511 -0.1143
  170loPI    C3 2707   0.061   5.185  11.464 -0.1222  0.0904  0.0425
  170loPI   PO4 2708   0.446   5.474  11.119 -0.1738  0.2296 -0.0569
  170loPI   GL1 2709   0.448   5.429  10.682 -0.0173  0.1073  0.0228
  170loPI   GL2 2710   0.698   5.528  10.479 -0.1457 -0.0278 -0.0571
  170loPI   C1A 2711   0.292   5.203  10.397 -0.2955  0.1502  0.0865
  170loPI   C2A 2712   0.358   5.201   9.988 -0.4355  0.1200 -0.0586
  170loPI   C3A 2713   0.335   5.306   9.599  0.3968 -0.0894  0.0862
  170loPI   C4A 2714   0.384   5.243   9.224  0.0233 -0.3248  0.1166
  170loPI   C5A 2715   0.664   5.277   8.779 -0.1335 -0.0832  0.0010
  170loPI   C6A 2716   0.789   4.736   8.548 -0.4783  0.0035 -0.1066
  170loPI   C1B 2717   0.740   5.094  10.250 -0.2490  0.3665  0.0452
  170loPI   C2B 2718   0.652   4.711   9.959 -0.3926 -0.0769 -0.1426
  170loPI   C3B 2719   0.591   4.351   9.609  0.0895  0.1117  0.2049
  170loPI   C4B 2720   0.608   4.420   9.228 -0.0097  0.1243 -0.4162
  171loPI    C1 2721   3.756   5.168  11.572  0.2120  0.1312 -0.1482
  171loPI    C2 2722   3.741   5.539  11.722  0.1055 -0.0114  0.2043
  171loPI    C3 2723   3.580   5.234  11.925  0.0929 -0.2365 -0.1345
  171loPI   PO4 2724   3.893   5.092  11.377  0.1900 -0.2102 -0.1974
  171loPI   GL1 2725   3.759   5.060  10.922 -0.1106  0.1280  0.0552
  171loPI   GL2 2726   3.787   5.415  10.788  0.0615  0.0153  0.1840
  171loPI   C1A 2727   3.787   4.986  10.507  0.1607 -0.1679 -0.2235
  171loPI   C2A 2728   3.779   4.739  10.136  0.4842  0.0369 -0.0481
  171loPI   C3A 2729   3.763   4.568   9.698 -0.0627 -0.0952 -0.2100
  171loPI   C4A 2730   3.900   4.341   9.382  0.1135 -0.1013 -0.2296
  171loPI   C5A 2731   4.149   4.099   8.979  0.3012 -0.0165  0.1290
  171loPI   C6A 2732   4.100   3.774   8.700 -0.0931  0.0453  0.1052
  171loPI   C1B 2733   3.695   5.424  10.338  0.1386 -0.1946 -0.1226
  171loPI   C2B 2734   3.816   5.229  10.037 -0.1117  0.2702  0.2025
  171loPI   C3B 2735   4.086   5.284   9.657 -0.1295 -0.1297  0.1143
  171loPI   C4B 2736   4.422   5.115   9.391  0.1626 -0.3170  0.0262
  172loPI    C1 2737   7.422   1.903  11.454 -0.0698 -0.1342 -0.1522
  172loPI    C2 2738   7.149   1.637  11.332 -0.1580 -0.0979 -0.0350
  172loPI    C3 2739   7.538   1.569  11.266 -0.1887 -0.1940 -0.1201
  172loPI   PO4 2740   7.266   2.127  11.388  0.2207  0.0137  0.0529
  172loPI   GL1 2741   7.041   2.041  10.932 -0.0220 -0.1001  0.3025
  172loPI   GL2 2742   7.295   1.820  10.856 -0.0748 -0.1918  0.1002
  172loPI   C1A 2743   7.080   2.057  10.468 -0.0310  0.2651  0.2744
  172loPI   C2A 2744   7.076   2.090  10.086  0.0851  0.0313  0.1538
  172loPI   C3A 2745   7.013   2.017   9.600 -0.0779  0.1954 -0.0566
  172loPI   C4A 2746   7.115   1.880   9.212 -0.2491  0.3929  0.2336
  172loPI   C5A 2747   6.992   1.963   8.792 -0.0513 -0.1979 -0.0941
  172loPI   C6A 2748   6.595   2.012   8.509  0.0734 -0.0256  0.0900
  172loPI   C1B 2749   7.414   1.665  10.608  0.0610  0.0175  0.1141
  172loPI   C2B 2750   7.487   1.657  10.241  0.0037  0.3024 -0.1108
  172loPI   C3B 2751   7.376   1.720   9.823  0.0128  0.1826 -0.3712
  172loPI   C4B 2752   7.464   1.546   9.364 -0.0250  0.0549 -0.1398
  173loPI    C1 2753  11.015  10.035  11.783 -0.1327  0.1233 -0.0492
  173loPI    C2 2754  11.307  10.019  12.056 -0.0639 -0.1371 -0.1346
  173loPI    C3 2755  10.927   9.952  12.164 -0.1172  0.3548  0.0061
  173loPI   PO4 2756  11.054   9.904  11.550 -0.1959  0.0288  0.5015
  173loPI   GL1 2757  11.199   9.777  11.169  0.0323  0.3376  0.1104
  173loPI   GL2 2758  11.390   9.556  11.087  0.0182  0.1172  0.0135
  173loPI   C1A 2759  11.181   9.853  10.712 -0.0780  0.0521 -0.1922
  173loPI   C2A 2760  11.159   9.865  10.373 -0.1560  0.0727  0.2071
  173loPI   C3A 2761  11.160   9.909   9.882  0.2196  0.0080  0.0369
  173loPI   C4A 2762  11.108  10.007   9.519  0.2304  0.1671  0.0910
  173loPI   C5A 2763  11.184   9.984   9.061  0.3160  0.0567  0.6315
  173loPI   C6A 2764  11.070  10.070   8.560 -0.2578  0.1088 -0.3224
  173loPI   C1B 2765  11.537   9.497  10.718 -0.0513 -0.1156  0.1641
  173loPI   C2B 2766  11.511   9.547  10.202 -0.0724 -0.0104  0.1159
  173loPI   C3B 2767  11.531   9.564   9.755 -0.2232 -0.0313 -0.1717
  173loPI   C4B 2768  11.462   9.647   9.331 -0.2389 -0.1271  0.1728
  174loPI    C1 2769   7.807   2.186  11.712  0.1342  0.1566 -0.0554
  174loPI    C2 2770   7.730   2.521  11.918  0.1168  0.0353  0.1378
  174loPI    C3 2771   7.433   2.268  11.829  0.1254  0.0835 -0.0313
  174loPI   PO4 2772   7.893   2.240  11.498 -0.3580  0.0322  0.0726
  174loPI   GL1 2773   7.747   2.072  11.144  0.1008 -0.1943  0.0213
  174loPI   GL2 2774   7.542   2.227  10.995  0.1494 -0.1019  0.0351
  174loPI   C1A 2775   7.968   1.862  10.838 -0.3210  0.0461  0.2253
  174loPI   C2A 2776   8.001   1.698  10.441 -0.1337 -0.3201  0.1882
  174loPI   C3A 2777   7.958   1.795   9.974 -0.1164 -0.1110 -0.1435
  174loPI   C4A 2778   7.887   1.812   9.635 -0.1611  0.1599  0.0452
  174loPI   C5A 2779   8.041   1.787   9.307 -0.1036  0.1693  0.2138
  174loPI   C6A 2780   8.195   1.485   9.118  0.2903 -0.0480  0.0841
  174loPI   C1B 2781   7.574   2.234  10.576  0.1667  0.0328  0.0627
  174loPI   C2B 2782   7.535   2.247  10.140  0.0500  0.0533 -0.1352
  174loPI   C3B 2783   7.464   2.206   9.730  0.1857  0.0501  0.1236
  174loPI   C4B 2784   7.617   2.163   9.389 -0.2219  0.2280 -0.0122
  175loPI    C1 2785   8.245   8.363  11.660  0.1032  0.0317  0.0366
  175loPI    C2 2786   8.338   8.723  11.808 -0.0208  0.0115  0.1660
  175loPI    C3 2787   8.097   8.478  12.013 -0.0398 -0.0946  0.0190
  175loPI   PO4 2788   8.249   8.403  11.380 -0.0795 -0.2202 -0.1686
  175loPI   GL1 2789   8.444   8.364  10.990 -0.0079  0.1179 -0.1207
  175loPI   GL2 2790   8.471   8.695  10.865 -0.1391 -0.1940 -0.2413
  175loPI   C1A 2791   8.377   8.151  10.563  0.0683  0.2045 -0.2210
  175loPI   C2A 2792   8.395   8.107  10.151 -0.2776 -0.3568  0.0136
  175loPI   C3A 2793   8.446   8.176   9.700  0.2525 -0.0649 -0.0386
  175loPI   C4A 2794   8.394   8.313   9.285 -0.0469 -0.1835  0.2886
  175loPI   C5A 2795   8.179   8.589   8.853  0.3081 -0.1138  0.0538
  175loPI   C6A 2796   7.876   8.605   8.558  0.0403  0.1377 -0.0778
  175loPI   C1B 2797   8.489   8.600  10.449 -0.0966  0.3049  0.0523
  175loPI   C2B 2798   8.546   8.574  10.047 -0.0691 -0.0644 -0.1662
  175loPI   C3B 2799   8.555   8.653   9.641 -0.1149 -0.3220  0.0951
  175loPI   C4B 2800   8.633   8.721   9.228  0.1853  0.3714  0.0661
  176loPI    C1 2801   7.149  10.254  11.494 -0.0136 -0.0274  0.1033
  176loPI    C2 2802   7.433  10.392  11.739 -0.0880  0.0415  0.1516
  176loPI    C3 2803   7.055  10.366  11.867 -0.1303  0.0945  0.0383
  176loPI   PO4 2804   7.168  10.307  11.259  0.3758  0.2715  0.0279
  176loPI   GL1 2805   7.099  10.210  10.887  0.1285 -0.1592 -0.0012
  176loPI   GL2 2806   7.188  10.541  10.814 -0.1428  0.0202  0.4426
  176loPI   C1A 2807   7.026  10.159  10.499  0.0295  0.1792  0.0153
  176loPI   C2A 2808   6.963  10.100  10.106  0.2668  0.2921  0.0628
  176loPI   C3A 2809   7.089  10.169   9.658 -0.0522 -0.0994 -0.3595
  176loPI   C4A 2810   7.003  10.070   9.200 -0.3623  0.0058  0.0235
  176loPI   C5A 2811   6.862  10.209   8.730 -0.2238  0.0348  0.4326
  176loPI   C6A 2812   6.749  10.089   8.410 -0.0855 -0.2466  0.3687
  176loPI   C1B 2813   7.177  10.629  10.384  0.0552  0.2622  0.0661
  176loPI   C2B 2814   7.135  10.582   9.951  0.1306 -0.2086  0.0012
  176loPI   C3B 2815   7.220  10.706   9.541  0.1830  0.0817 -0.0962
  176loPI   C4B 2816   7.214  10.611   9.123  0.3828 -0.0387 -0.2856
  177loPI    C1 2817  12.135  10.906  11.722 -0.1321  0.1073  0.1604
  177loPI    C2 2818  12.491  10.802  11.873 -0.0513  0.1357 -0.0081
  177loPI    C3 2819  12.273  11.086  12.051 -0.0411  0.0398  0.1598
  177loPI   PO4 2820  12.148  10.954  11.390 -0.1358 -0.0492 -0.0255
  177loPI   GL1 2821  12.209  10.929  10.977 -0.1673 -0.0367  0.0576
  177loPI   GL2 2822  12.279  10.676  10.918  0.1500  0.1935  0.1283
  177loPI   C1A 2823  11.846  11.028  10.729 -0.1135  0.2769 -0.0305
  177loPI   C2A 2824  11.860  11.091  10.323 -0.0460 -0.2520 -0.0694
  177loPI   C3A 2825  11.934  11.144   9.903 -0.0370  0.2851 -0.0682
  177loPI   C4A 2826  11.944  11.141   9.478  0.1658 -0.1601  0.0705
  177loPI   C5A 2827  12.068  11.031   9.074  0.1943  0.2403  0.1264
  177loPI   C6A 2828  12.335  10.942   8.699  0.0243 -0.0978  0.0954
  177loPI   C1B 2829  12.169  10.666  10.483  0.1989 -0.2952 -0.3342
  177loPI   C2B 2830  12.152  10.737  10.113 -0.1114 -0.1165 -0.1389
  177loPI   C3B 2831  12.294  10.740   9.606 -0.1899  0.4653 -0.3196
  177loPI   C4B 2832  12.451  10.643   9.143 -0.1513 -0.4918  0.1678
  178loPI    C1 2833  16.165   8.152  11.325 -0.0481 -0.1786  0.1480
  178loPI    C2 2834  15.960   7.895  11.097  0.2159 -0.0909 -0.1964
  178loPI    C3 2835  16.064   7.793  11.470  0.0398 -0.3550 -0.2171
  178loPI   PO4 2836  16.291   8.254  11.219 -0.2506 -0.0635 -0.1971
  178loPI   GL1 2837  16.089   8.347  10.827 -0.1654 -0.1117 -0.0112
  178loPI   GL2 2838  16.222   8.000  10.756  0.1015 -0.0180  0.1159
  178loPI   C1A 2839  16.156   8.620  10.520 -0.0687 -0.2281 -0.0813
  178loPI   C2A 2840  16.368   8.579  10.198  0.1318 -0.4489 -0.0560
  178loPI   C3A 2841  16.527   8.663   9.712  0.2045 -0.3962  0.1005
  178loPI   C4A 2842  16.485   8.401   9.281 -0.0776  0.1281 -0.0839
  178loPI   C5A 2843  16.358   8.339   8.803 -0.1690 -0.2706  0.0696
  178loPI   C6A 2844  16.601   8.266   8.537  0.1200 -0.1431 -0.1067
  178loPI   C1B 2845  16.280   8.085  10.350 -0.0252 -0.1826 -0.1658
  178loPI   C2B 2846  16.314   8.191   9.926 -0.0961 -0.7383 -0.0528
  178loPI   C3B 2847  16.243   8.066   9.519 -0.0443 -0.0882 -0.0471
  178loPI   C4B 2848  16.258   7.963   9.084 -0.0637  0.0264 -0.0601
  179loPI    C1 2849   1.408  11.788  11.797 -0.0844 -0.0422 -0.1464
  179loPI    C2 2850   1.410  11.465  12.033 -0.0149  0.1072  0.0601
  179loPI    C3 2851   1.749  11.587  11.857 -0.0118  0.1482  0.0943
  179loPI   PO4 2852   1.173  11.737  11.604 -0.0459  0.0392 -0.0906
  179loPI   GL1 2853   1.164  11.804  11.229 -0.2362  0.0046 -0.0318
  179loPI   GL2 2854   1.390  12.006  11.101 -0.2055 -0.0532 -0.0063
  179loPI   C1A 2855   0.941  11.761  10.803 -0.2263  0.1012 -0.1290
  179loPI   C2A 2856   1.001  11.684  10.416 -0.0813  0.0325 -0.0620
  179loPI   C3A 2857   0.964  11.708   9.927 -0.1062 -0.1457  0.0933
  179loPI   C4A 2858   0.956  11.575   9.463 -0.2863 -0.0772  0.4035
  179loPI   C5A 2859   1.009  11.510   9.013  0.2147 -0.0913  0.0462
  179loPI   C6A 2860   0.985  11.214   8.622 -0.1504 -0.0517  0.1635
  179loPI   C1B 2861   1.450  11.804  10.692 -0.0656  0.1988 -0.1339
  179loPI   C2B 2862   1.473  11.815  10.226  0.0527  0.2299  0.0097
  179loPI   C3B 2863   1.485  11.788   9.884 -0.0428  0.2444  0.1784
  179loPI   C4B 2864   1.391  11.823   9.503  0.0341  0.2857 -0.0417
  180loPI    C1 2865   3.456   0.761  11.361 -0.1860 -0.0738  0.0500
  180loPI    C2 2866   3.402   1.067  11.614 -0.0537  0.0445 -0.0634
  180loPI    C3 2867   3.582   0.733  11.740  0.0684  0.1272 -0.0173
  180loPI   PO4 2868   3.178   0.691  11.292 -0.0112  0.3127 -0.3862
  180loPI   GL1 2869   3.025   0.770  10.904 -0.0190 -0.2303  0.0089
  180loPI   GL2 2870   2.946   0.428  10.797 -0.1285  0.1228 -0.1534
  180loPI   C1A 2871   3.081   0.825  10.470  0.0931  0.1047 -0.0216
  180loPI   C2A 2872   3.053   0.869  10.032 -0.2555  0.1206  0.2429
  180loPI   C3A 2873   3.061   0.743   9.650 -0.0946 -0.0332 -0.2234
  180loPI   C4A 2874   3.248   0.843   9.266  0.1898  0.3163  0.1620
  180loPI   C5A 2875   3.456   0.912   8.918  0.3931  0.0385  0.2044
  180loPI   C6A 2876   3.723   0.677   8.536  0.2801  0.0608  0.0695
  180loPI   C1B 2877   2.908   0.365  10.357  0.1164  0.1895 -0.0534
  180loPI   C2B 2878   2.893   0.389   9.959 -0.2057  0.1618 -0.2756
  180loPI   C3B 2879   2.939   0.290   9.588 -0.0109 -0.0170 -0.0564
  180loPI   C4B 2880   3.114   0.304   9.196  0.0035  0.0480  0.0171
  181loPI    C1 2881   3.005   2.663  11.465  0.1063 -0.1793  0.1728
  181loPI    C2 2882   2.625   2.774  11.410  0.1745  0.0063  0.0660
  181loPI    C3 2883   2.836   2.925  11.715  0.2459  0.1173 -0.0375
  181loPI   PO4 2884   3.112   2.723  11.223  0.1698  0.2044  0.1323
  181loPI   GL1 2885   3.223   2.735  10.843  0.0754  0.0462 -0.1174
  181loPI   GL2 2886   3.523   2.941  10.833 -0.0866  0.1545  0.0011
  181loPI   C1A 2887   2.973   2.704  10.456  0.1954 -0.1044 -0.1198
  181loPI   C2A 2888   3.001   2.679  10.057 -0.4866 -0.0613 -0.3708
  181loPI   C3A 2889   3.051   2.620   9.621 -0.2629 -0.0054 -0.1061
  181loPI   C4A 2890   3.031   2.577   9.215  0.1232 -0.0130 -0.2303
  181loPI   C5A 2891   3.329   2.442   8.856  0.0737  0.2603  0.1368
  181loPI   C6A 2892   3.276   2.377   8.418  0.2570  0.1999 -0.2790
  181loPI   C1B 2893   3.524   2.819  10.371 -0.0107  0.5001 -0.3049
  181loPI   C2B 2894   3.537   2.715  10.015 -0.1250  0.3697 -0.0222
  181loPI   C3B 2895   3.593   2.738   9.582  0.0966 -0.0781 -0.0542
  181loPI   C4B 2896   3.424   2.842   9.186 -0.1083 -0.2129 -0.3048
  182loPI    C1 2897   4.387   2.860  11.448  0.0763 -0.0177 -0.1732
  182loPI    C2 2898   4.250   2.560  11.674  0.2495 -0.1258 -0.2101
  182loPI    C3 2899   3.999   2.844  11.546  0.0667 -0.3014 -0.2481
  182loPI   PO4 2900   4.499   2.784  11.211 -0.1922  0.0267  0.0104
  182loPI   GL1 2901   4.693   2.858  10.799 -0.2406 -0.1033 -0.0564
  182loPI   GL2 2902   4.386   2.846  10.680  0.1019  0.0985  0.1225
  182loPI   C1A 2903   4.871   2.839  10.485  0.1733 -0.0344  0.1914
  182loPI   C2A 2904   4.906   2.829  10.084  0.2081 -0.0528 -0.1512
  182loPI   C3A 2905   5.021   2.883   9.620 -0.0275  0.3058  0.0967
  182loPI   C4A 2906   4.982   2.841   9.208 -0.1242 -0.0478 -0.2130
  182loPI   C5A 2907   4.830   2.955   8.828 -0.0528  0.2234 -0.0797
  182loPI   C6A 2908   4.446   2.892   8.622 -0.3323 -0.0503 -0.0454
  182loPI   C1B 2909   4.425   2.620  10.371  0.1153  0.2100  0.2979
  182loPI   C2B 2910   4.425   2.554   9.961  0.1974 -0.3202 -0.4023
  182loPI   C3B 2911   4.542   2.716   9.494 -0.1421 -0.1247 -0.2638
  182loPI   C4B 2912   4.581   2.577   9.066  0.0183  0.0161 -0.1521
  183loPI    C1 2913   5.921  15.996  11.709  0.1154 -0.0338 -0.0015
  183loPI    C2 2914   6.273  16.104  11.866  0.0850 -0.2023  0.1864
  183loPI    C3 2915   6.038  15.846  12.061 -0.0077 -0.3232 -0.0815
  183loPI   PO4 2916   5.946  15.987  11.481 -0.0625 -0.2398  0.0776
  183loPI   GL1 2917   5.824  16.080  11.065  0.0484  0.1485 -0.0201
  183loPI   GL2 2918   6.163  16.094  10.893 -0.2249  0.1022 -0.0122
  183loPI   C1A 2919   5.675  15.864  10.752 -0.1199  0.0926  0.1941
  183loPI   C2A 2920   5.719  15.881  10.315  0.1534 -0.0437 -0.0701
  183loPI   C3A 2921   5.723  15.875   9.857 -0.0687  0.1416  0.0014
  183loPI   C4A 2922   5.717  15.962   9.410 -0.0194 -0.2656  0.2086
  183loPI   C5A 2923   5.721  15.912   9.101  0.0422  0.0804  0.0324
  183loPI   C6A 2924   5.444  15.827   8.772 -0.2712  0.0642  0.0650
  183loPI   C1B 2925   6.142  16.121  10.478  0.4113  0.0467 -0.0853
  183loPI   C2B 2926   6.248  16.033  10.051 -0.3578 -0.1249 -0.0994
  183loPI   C3B 2927   6.259  16.014   9.616 -0.1214  0.0770 -0.0051
  183loPI   C4B 2928   6.138  16.140   9.230 -0.1227  0.0655  0.2679
  184loPI    C1 2929   4.712  16.825  11.504  0.2444 -0.0456  0.0864
  184loPI    C2 2930   4.824  16.444  11.550  0.0598 -0.1015  0.0814
  184loPI    C3 2931   4.652  16.640  11.853  0.1051 -0.0390  0.0668
  184loPI   PO4 2932   4.599  16.751  11.245  0.0392  0.1409 -0.4117
  184loPI   GL1 2933   4.410  16.541  11.003  0.1583  0.2471 -0.0910
  184loPI   GL2 2934   4.120  16.718  11.058  0.0884  0.0401  0.1459
  184loPI   C1A 2935   4.414  16.442  10.534 -0.0206 -0.2159 -0.1537
  184loPI   C2A 2936   4.508  16.548  10.077 -0.1450 -0.2456  0.2234
  184loPI   C3A 2937   4.492  16.560   9.628 -0.2135  0.0115 -0.0431
  184loPI   C4A 2938   4.447  16.470   9.225 -0.3126  0.0890 -0.0640
  184loPI   C5A 2939   4.466  16.482   8.781 -0.1373 -0.0914  0.0566
  184loPI   C6A 2940   4.316  16.895   8.715 -0.4116 -0.0781  0.1453
  184loPI   C1B 2941   4.032  16.900  10.664 -0.2440 -0.0724 -0.1116
  184loPI   C2B 2942   4.126  16.938  10.169  0.2525 -0.1177 -0.2704
  184loPI   C3B 2943   4.174  16.876   9.752  0.3082  0.0565 -0.2641
  184loPI   C4B 2944   4.104  16.871   9.265  0.1125 -0.1263  0.1912
  185loPI    C1 2945   7.638   4.936  11.532  0.1661 -0.1451 -0.0347
  185loPI    C2 2946   7.741   5.025  11.909  0.2224  0.1406 -0.1148
  185loPI    C3 2947   7.574   4.671  11.825  0.1018  0.1210  0.1965
  185loPI   PO4 2948   7.852   4.898  11.351  0.0588  0.0675  0.0673
  185loPI   GL1 2949   8.119   4.908  10.926  0.1148 -0.0048 -0.2465
  185loPI   GL2 2950   7.890   5.176  10.899 -0.2808 -0.2233  0.0353
  185loPI   C1A 2951   8.114   4.798  10.608  0.3375  0.2537 -0.0089
  185loPI   C2A 2952   8.079   4.758  10.167 -0.0582  0.2398 -0.0771
  185loPI   C3A 2953   8.122   4.788   9.774 -0.4154 -0.1697  0.1840
  185loPI   C4A 2954   8.055   4.683   9.402 -0.1211 -0.1407 -0.0823
  185loPI   C5A 2955   8.065   4.350   9.141 -0.4099  0.3160  0.2423
  185loPI   C6A 2956   8.374   3.908   9.134  0.0289  0.2254  0.2702
  185loPI   C1B 2957   7.689   5.076  10.556 -0.2033 -0.1492  0.1722
  185loPI   C2B 2958   7.712   5.082  10.084  0.1601 -0.0075 -0.1239
  185loPI   C3B 2959   7.729   5.114   9.682  0.0375 -0.1605  0.1996
  185loPI   C4B 2960   7.626   5.064   9.261  0.0382  0.3992 -0.0879
  186loPI    C1 2961   1.631  17.374  11.513  0.0416 -0.1213 -0.1541
  186loPI    C2 2962   1.623  17.063  11.764 -0.0556  0.1330  0.1642
  186loPI    C3 2963   1.833  17.391  11.858 -0.1615  0.2634 -0.0488
  186loPI   PO4 2964   1.554  17.258  11.250 -0.0080  0.2354 -0.0371
  186loPI   GL1 2965   1.810  17.073  11.036 -0.0346 -0.0986 -0.0483
  186loPI   GL2 2966   1.690  16.823  10.862  0.2143 -0.0959  0.0802
  186loPI   C1A 2967   1.868  17.216  10.581  0.0638  0.2895 -0.1558
  186loPI   C2A 2968   1.840  17.065  10.126  0.2011  0.0924 -0.0207
  186loPI   C3A 2969   1.753  17.069   9.779 -0.2004  0.3009 -0.2710
  186loPI   C4A 2970   1.950  17.091   9.342  0.0314  0.2262  0.1119
  186loPI   C5A 2971   2.002  17.197   8.946  0.0446  0.2135 -0.0068
  186loPI   C6A 2972   1.922  17.056   8.439 -0.2630  0.1730  0.5203
  186loPI   C1B 2973   1.715  16.637  10.482  0.0470 -0.0600 -0.2021
  186loPI   C2B 2974   1.654  16.548  10.008  0.1687 -0.2474  0.2919
  186loPI   C3B 2975   1.717  16.625   9.602 -0.0290 -0.1661 -0.1417
  186loPI   C4B 2976   1.823  16.594   9.246  0.0102 -0.1323 -0.0730
  187loPI    C1 2977   9.160   4.952  11.603 -0.3140  0.0306  0.1098
  187loPI    C2 2978   8.885   5.228  11.513 -0.0554  0.2410 -0.0490
  187loPI    C3 2979   9.177   5.314  11.773  0.0164  0.1119 -0.0861
  187loPI   PO4 2980   9.029   4.717  11.364  0.0841  0.1367 -0.1640
  187loPI   GL1 2981   9.275   4.624  11.028 -0.2115 -0.0092 -0.1755
  187loPI   GL2 2982   9.081   4.399  11.017 -0.0745 -0.4466  0.0262
  187loPI   C1A 2983   9.453   4.660  10.654 -0.1444  0.0866 -0.0036
  187loPI   C2A 2984   9.487   4.757  10.290 -0.3061 -0.1176 -0.2167
  187loPI   C3A 2985   9.528   4.765   9.792  0.4916  0.0777 -0.2106
  187loPI   C4A 2986   9.514   4.794   9.367 -0.0186 -0.1645  0.1756
  187loPI   C5A 2987   9.315   5.002   9.040  0.0210 -0.0184 -0.0525
  187loPI   C6A 2988   9.565   5.351   8.774 -0.0948  0.3463 -0.1712
  187loPI   C1B 2989   8.897   4.573  10.613 -0.1285 -0.4583 -0.1190
  187loPI   C2B 2990   9.046   4.543  10.187 -0.1503 -0.1857  0.0634
  187loPI   C3B 2991   8.883   4.596   9.803  0.0312  0.2967 -0.1102
  187loPI   C4B 2992   8.982   4.607   9.327  0.2977 -0.0399 -0.1174
  188loPI    C1 2993  11.978   5.957  11.724  0.0075  0.1023 -0.0063
  188loPI    C2 2994  11.779   6.175  11.995 -0.0313 -0.0210  0.0652
  188loPI    C3 2995  11.890   5.801  12.082  0.1762  0.0246  0.0019
  188loPI   PO4 2996  11.971   5.988  11.451  0.2147  0.2538  0.0402
  188loPI   GL1 2997  12.167   6.259  11.146  0.0464  0.2682  0.0292
  188loPI   GL2 2998  12.284   5.933  11.037  0.2116 -0.1352 -0.3554
  188loPI   C1A 2999  12.220   6.527  10.856  0.0592  0.0348 -0.0505
  188loPI   C2A 3000  12.157   6.486  10.385 -0.2400 -0.1239 -0.1860
  188loPI   C3A 3001  12.131   6.454   9.928 -0.1587  0.0767 -0.3427
  188loPI   C4A 3002  12.141   6.509   9.452 -0.0733  0.2889 -0.1171
  188loPI   C5A 3003  12.162   6.289   8.976 -0.2038 -0.0784 -0.0440
  188loPI   C6A 3004  12.329   6.179   8.616 -0.1832 -0.0992  0.0679
  188loPI   C1B 3005  12.043   6.013  10.707 -0.0993 -0.2520  0.1408
  188loPI   C2B 3006  12.048   6.005  10.205 -0.1219  0.1392 -0.0005
  188loPI   C3B 3007  11.978   6.038   9.807  0.1219  0.1064  0.1736
  188loPI   C4B 3008  12.108   5.929   9.366 -0.3825  0.1597 -0.0005
  189loPI    C1 3009   8.679   4.813  11.919  0.1398  0.0721  0.0207
  189loPI    C2 3010   8.498   5.152  11.810 -0.0794 -0.0995 -0.1604
  189loPI    C3 3011   8.809   5.163  12.061 -0.2560  0.2116  0.0521
  189loPI   PO4 3012   8.573   4.675  11.622  0.1668  0.2498 -0.0272
  189loPI   GL1 3013   8.564   4.636  11.249  0.0384 -0.2198  0.1506
  189loPI   GL2 3014   8.751   4.923  11.044 -0.3078 -0.1097  0.0541
  189loPI   C1A 3015   8.456   4.502  10.808  0.1460  0.1276 -0.1882
  189loPI   C2A 3016   8.505   4.413  10.361  0.2479  0.2064 -0.0661
  189loPI   C3A 3017   8.404   4.437   9.957  0.2415 -0.0646  0.1183
  189loPI   C4A 3018   8.475   4.394   9.575  0.2878  0.0549 -0.3858
  189loPI   C5A 3019   8.566   4.433   9.180  0.0909  0.5142 -0.0134
  189loPI   C6A 3020   8.296   4.709   8.879 -0.1047  0.2596  0.1135
  189loPI   C1B 3021   8.623   4.983  10.757 -0.1586 -0.3301 -0.1406
  189loPI   C2B 3022   8.527   4.973  10.374 -0.1239  0.2626 -0.0129
  189loPI   C3B 3023   8.540   5.008   9.871  0.1839 -0.0527 -0.0443
  189loPI   C4B 3024   8.597   4.858   9.432 -0.1994  0.1019  0.0276
  190loPI    C1 3025  14.719  14.027  11.551 -0.0084 -0.0875 -0.0518
  190loPI    C2 3026  15.067  14.213  11.619 -0.0581 -0.0311  0.0517
  190loPI    C3 3027  14.858  14.062  11.925 -0.2478  0.1571  0.0173
  190loPI   PO4 3028  14.758  13.822  11.405 -0.0848 -0.2137 -0.0346
  190loPI   GL1 3029  14.831  13.834  11.021  0.2282  0.1651 -0.0111
  190loPI   GL2 3030  14.795  13.495  10.816  0.3040 -0.1869  0.3812
  190loPI   C1A 3031  14.816  13.934  10.683 -0.2417 -0.1768  0.0626
  190loPI   C2A 3032  14.862  13.832  10.298 -0.0181  0.4140 -0.1282
  190loPI   C3A 3033  14.943  13.943   9.843  0.0250  0.0374  0.0297
  190loPI   C4A 3034  14.934  13.949   9.396  0.1226  0.0756 -0.0426
  190loPI   C5A 3035  15.024  13.949   8.831  0.1917 -0.0806 -0.0178
  190loPI   C6A 3036  15.082  13.680   8.365 -0.1717  0.0595 -0.0416
  190loPI   C1B 3037  14.725  13.332  10.453  0.0187  0.0783 -0.0505
  190loPI   C2B 3038  14.817  13.427   9.913 -0.1286  0.3464  0.3324
  190loPI   C3B 3039  14.814  13.451   9.485 -0.2486  0.1755 -0.1499
  190loPI   C4B 3040  14.861  13.315   9.003  0.0767  0.1606 -0.0953
  191loPI    C1 3041  11.432  14.046  11.706  0.2464 -0.0497 -0.1043
  191loPI    C2 3042  11.169  14.197  11.967  0.1707  0.1883 -0.3145
  191loPI    C3 3043  11.323  13.833  12.027  0.0127  0.1642 -0.0383
  191loPI   PO4 3044  11.316  14.015  11.469  0.2936 -0.1762 -0.1696
  191loPI   GL1 3045  11.265  13.852  11.139  0.3519 -0.1027  0.0085
  191loPI   GL2 3046  11.571  13.958  11.026  0.1664 -0.1151 -0.3484
  191loPI   C1A 3047  11.195  13.917  10.668  0.2873  0.1687  0.1956
  191loPI   C2A 3048  11.159  13.793  10.204 -0.2563 -0.1264 -0.1836
  191loPI   C3A 3049  11.191  13.769   9.845 -0.1347  0.0659 -0.0614
  191loPI   C4A 3050  11.177  13.754   9.473  0.0427 -0.0157  0.2809
  191loPI   C5A 3051  11.324  13.787   9.087  0.1478  0.2023  0.2828
  191loPI   C6A 3052  11.409  13.470   8.732 -0.0843  0.2435  0.0965
  191loPI   C1B 3053  11.663  13.955  10.632 -0.0798 -0.1370 -0.0369
  191loPI   C2B 3054  11.644  13.923  10.281 -0.1352 -0.0120 -0.4305
  191loPI   C3B 3055  11.652  13.855   9.795 -0.0845  0.1676 -0.2071
  191loPI   C4B 3056  11.748  13.846   9.372  0.0968 -0.0368 -0.1103
  192loPI    C1 3057   0.028   8.926  11.271 -0.3939 -0.0782 -0.1207
  192loPI    C2 3058   0.226   8.667  11.038 -0.2458 -0.0241 -0.0558
  192loPI    C3 3059   0.108   8.557  11.404 -0.0597  0.0437  0.0260
  192loPI   PO4 3060  -0.076   9.128  11.094 -0.2420  0.3056 -0.0386
  192loPI   GL1 3061  -0.123   8.895  10.719  0.0793  0.3853 -0.0228
  192loPI   GL2 3062   0.069   9.101  10.563 -0.0573 -0.3739  0.0437
  192loPI   C1A 3063   0.006   8.675  10.325 -0.1458  0.3872  0.2010
  192loPI   C2A 3064   0.296   8.428  10.115 -0.0646 -0.0163  0.0784
  192loPI   C3A 3065   0.636   8.376   9.788 -0.0974  0.4529 -0.0765
  192loPI   C4A 3066   0.705   8.207   9.389 -0.3375 -0.0515  0.2928
  192loPI   C5A 3067   0.779   8.314   8.964  0.1263 -0.5767 -0.2451
  192loPI   C6A 3068   0.791   8.289   8.437 -0.2329  0.0583  0.2314
  192loPI   C1B 3069   0.237   9.243  10.197 -0.2708  0.1283 -0.1802
  192loPI   C2B 3070   0.252   9.197   9.655  0.2539 -0.0940  0.1416
  192loPI   C3B 3071   0.437   9.078   9.265 -0.0376  0.1381 -0.1467
  192loPI   C4B 3072   0.487   9.118   8.788 -0.0440  0.2031 -0.2709
  193loPI    C1 3073   9.015  10.523  11.631 -0.1833  0.0199 -0.0562
  193loPI    C2 3074   8.943  10.131  11.664  0.0233 -0.0119  0.0342
  193loPI    C3 3075   8.984  10.355  11.993  0.1899  0.0311 -0.0149
  193loPI   PO4 3076   9.150  10.498  11.406 -0.0123  0.0907 -0.1299
  193loPI   GL1 3077   9.111  10.536  10.982  0.0717 -0.1560  0.0773
  193loPI   GL2 3078   8.896  10.793  10.970 -0.0187  0.5365  0.4221
  193loPI   C1A 3079   9.364  10.297  10.616 -0.1986  0.0633 -0.2022
  193loPI   C2A 3080   9.472  10.368  10.189 -0.1944  0.0054  0.0660
  193loPI   C3A 3081   9.462  10.329   9.828 -0.1540  0.1655 -0.1402
  193loPI   C4A 3082   9.534  10.359   9.389 -0.0214  0.0768  0.0791
  193loPI   C5A 3083   9.431  10.409   8.949 -0.0287 -0.1536  0.0577
  193loPI   C6A 3084   9.330  10.587   8.574  0.0157 -0.2010  0.2818
  193loPI   C1B 3085   8.967  10.713  10.555 -0.0260 -0.1581 -0.2146
  193loPI   C2B 3086   9.046  10.697  10.223 -0.3984 -0.0203 -0.1777
  193loPI   C3B 3087   9.095  10.702   9.756 -0.0389  0.0722 -0.0503
  193loPI   C4B 3088   9.174  10.729   9.279  0.1156 -0.0389  0.1524
  194loPI    C1 3089  14.786   7.035  11.279 -0.0451 -0.2459 -0.2791
  194loPI    C2 3090  14.459   7.239  11.174  0.1090  0.1446 -0.0228
  194loPI    C3 3091  14.428   6.925  11.420 -0.0634  0.2409  0.0812
  194loPI   PO4 3092  15.007   7.190  11.095 -0.2333  0.0328  0.0594
  194loPI   GL1 3093  15.140   7.389  10.774 -0.0713 -0.0853 -0.2942
  194loPI   GL2 3094  15.203   7.079  10.591 -0.2354  0.1285  0.2058
  194loPI   C1A 3095  15.275   7.596  10.485 -0.3236  0.0309  0.0553
  194loPI   C2A 3096  15.277   7.837  10.067 -0.0183 -0.2848 -0.4109
  194loPI   C3A 3097  14.912   7.842   9.854 -0.1417  0.0781 -0.1768
  194loPI   C4A 3098  14.719   7.829   9.465 -0.0804  0.0342 -0.1859
  194loPI   C5A 3099  14.828   7.986   9.069 -0.1330 -0.0340  0.1141
  194loPI   C6A 3100  14.955   8.169   8.714 -0.2153 -0.4123 -0.0686
  194loPI   C1B 3101  15.537   6.987  10.240 -0.1335 -0.1912 -0.2983
  194loPI   C2B 3102  15.496   6.884   9.761 -0.4737  0.1119  0.2664
  194loPI   C3B 3103  15.184   7.020   9.465  0.2344 -0.0418  0.0789
  194loPI   C4B 3104  14.942   7.281   9.116  0.4802  0.0193  0.0606
  195loPI    C1 3105   3.940  15.583  11.614 -0.0230 -0.0704 -0.0630
  195loPI    C2 3106   4.008  15.223  11.453  0.0901 -0.0400 -0.0841
  195loPI    C3 3107   3.882  15.253  11.832  0.2912 -0.0946 -0.0116
  195loPI   PO4 3108   4.102  15.804  11.426 -0.0511  0.0734  0.1658
  195loPI   GL1 3109   3.965  16.136  11.182  0.0853 -0.0902 -0.3164
  195loPI   GL2 3110   3.838  15.858  10.931  0.2983 -0.1068  0.0486
  195loPI   C1A 3111   3.946  16.312  10.762  0.3372  0.1236 -0.0345
  195loPI   C2A 3112   3.940  16.358  10.327 -0.1668 -0.0169 -0.0652
  195loPI   C3A 3113   3.957  16.351   9.917 -0.0509  0.0277 -0.1154
  195loPI   C4A 3114   4.006  16.390   9.507  0.0406  0.1838 -0.4381
  195loPI   C5A 3115   3.858  16.420   9.125  0.5024 -0.1417  0.1505
  195loPI   C6A 3116   3.532  16.448   8.810 -0.0890 -0.2181  0.4975
  195loPI   C1B 3117   3.802  15.772  10.403  0.0083  0.0903 -0.1112
  195loPI   C2B 3118   3.877  15.852   9.938 -0.2131  0.1603  0.1572
  195loPI   C3B 3119   3.904  15.815   9.547  0.1819  0.0171 -0.3332
  195loPI   C4B 3120   3.909  15.903   9.123 -0.1900  0.2607 -0.0232
  196loPI    C1 3121  14.009  11.691  11.569  0.0461 -0.0338 -0.0533
  196loPI    C2 3122  14.168  11.744  11.932  0.1688 -0.1745 -0.0855
  196loPI    C3 3123  13.896  12.002  11.793  0.0846 -0.1477  0.1261
  196loPI   PO4 3124  14.208  11.680  11.358 -0.1511  0.1970  0.0423
  196loPI   GL1 3125  14.235  11.840  10.963  0.0563  0.1178 -0.2205
  196loPI   GL2 3126  14.046  12.224  10.839 -0.1388  0.1110  0.0345
  196loPI   C1A 3127  14.437  11.883  10.534 -0.1789 -0.0655  0.1059
  196loPI   C2A 3128  14.504  11.906  10.118  0.0140  0.1116  0.3593
  196loPI   C3A 3129  14.500  11.901   9.697 -0.0773 -0.0942 -0.2538
  196loPI   C4A 3130  14.547  11.891   9.361 -0.0174 -0.0186 -0.0762
  196loPI   C5A 3131  14.729  11.726   8.859 -0.2002  0.0961  0.1255
  196loPI   C6A 3132  15.038  11.448   8.557  0.2354 -0.1760 -0.0194
  196loPI   C1B 3133  14.112  12.169  10.359 -0.1792 -0.2495 -0.1530
  196loPI   C2B 3134  14.106  12.197   9.971 -0.0081 -0.1693 -0.1543
  196loPI   C3B 3135  14.123  12.292   9.585 -0.0555  0.0232 -0.0610
  196loPI   C4B 3136  14.196  12.200   9.106  0.0627  0.3165 -0.3226
  197loPI    C1 3137  12.694   9.875  11.600  0.1065 -0.0642  0.0379
  197loPI    C2 3138  12.524   9.536  11.474  0.0050  0.0358 -0.0977
  197loPI    C3 3139  12.589   9.594  11.865 -0.3363  0.0245 -0.0360
  197loPI   PO4 3140  12.750   9.989  11.282  0.5523 -0.0401  0.0219
  197loPI   GL1 3141  12.812   9.876  10.878  0.3830  0.1851  0.2084
  197loPI   GL2 3142  12.918   9.622  10.942  0.3119  0.2738 -0.3824
  197loPI   C1A 3143  12.898   9.982  10.570  0.0657  0.2919 -0.0786
  197loPI   C2A 3144  12.977  10.094  10.179 -0.0836 -0.1334 -0.0668
  197loPI   C3A 3145  13.047  10.128   9.727  0.1675 -0.4359 -0.0653
  197loPI   C4A 3146  13.043   9.997   9.321 -0.2632  0.1770  0.3725
  197loPI   C5A 3147  13.100   9.922   8.845  0.1345 -0.0110 -0.1743
  197loPI   C6A 3148  13.214  10.148   8.551  0.0989 -0.2505 -0.0928
  197loPI   C1B 3149  12.955   9.523  10.520 -0.1070  0.0700 -0.0959
  197loPI   C2B 3150  12.890   9.616  10.119 -0.0011  0.2146 -0.1025
  197loPI   C3B 3151  12.929   9.668   9.682  0.0565 -0.0624 -0.0466
  197loPI   C4B 3152  12.953   9.526   9.218 -0.3315 -0.2262 -0.0876
  198loPI    C1 3153  11.682   8.333  11.780 -0.0059 -0.2084  0.3835
  198loPI    C2 3154  11.939   8.031  11.723  0.2361  0.0353  0.1572
  198loPI    C3 3155  12.019   8.313  11.995  0.1227  0.0192  0.2077
  198loPI   PO4 3156  11.600   8.315  11.494 -0.0501 -0.1211 -0.1104
  198loPI   GL1 3157  11.260   8.043  11.199  0.1824 -0.2778 -0.2790
  198loPI   GL2 3158  11.324   8.393  11.075 -0.2235 -0.1152 -0.1979
  198loPI   C1A 3159  11.119   8.009  10.760  0.3114 -0.1461  0.1106
  198loPI   C2A 3160  11.145   8.081  10.342 -0.1272  0.1032  0.0579
  198loPI   C3A 3161  11.148   8.058  10.025  0.2011  0.2461 -0.1844
  198loPI   C4A 3162  11.182   8.103   9.601 -0.1306  0.0251  0.3581
  198loPI   C5A 3163  11.138   8.109   9.187 -0.2721  0.1491 -0.0987
  198loPI   C6A 3164  11.017   7.970   8.733 -0.0513 -0.1685 -0.0050
  198loPI   C1B 3165  11.247   8.488  10.657 -0.0569 -0.3499 -0.1897
  198loPI   C2B 3166  11.328   8.586  10.230 -0.2071  0.1141  0.2322
  198loPI   C3B 3167  11.226   8.609   9.732 -0.2499  0.0070 -0.0740
  198loPI   C4B 3168  11.340   8.558   9.324 -0.1258  0.0723 -0.0100
  199loPI    C1 3169   9.697  11.757  11.606  0.0336 -0.0565 -0.2091
  199loPI    C2 3170  10.009  11.768  11.856 -0.0890  0.2477 -0.0648
  199loPI    C3 3171   9.711  11.509  11.920 -0.0554  0.2311  0.0261
  199loPI   PO4 3172   9.812  11.785  11.386 -0.0740  0.1660 -0.1364
  199loPI   GL1 3173   9.703  11.860  11.032 -0.2805 -0.2461 -0.2092
  199loPI   GL2 3174   9.461  12.147  10.885  0.2097 -0.2673  0.0395
  199loPI   C1A 3175   9.773  11.912  10.582  0.4172  0.1955 -0.4051
  199loPI   C2A 3176   9.793  11.824  10.200  0.2216 -0.1626  0.2801
  199loPI   C3A 3177   9.749  11.824   9.806 -0.0758 -0.1264  0.0264
  199loPI   C4A 3178   9.844  11.928   9.312 -0.2962 -0.2129  0.0200
  199loPI   C5A 3179   9.775  12.025   8.845  0.0266  0.4046 -0.1635
  199loPI   C6A 3180   9.789  12.245   8.389  0.1190  0.2028  0.2263
  199loPI   C1B 3181   9.412  12.240  10.451 -0.1642 -0.1030 -0.1458
  199loPI   C2B 3182   9.396  12.193   9.979 -0.0057 -0.1556  0.1839
  199loPI   C3B 3183   9.461  12.288   9.552  0.2708  0.0015  0.2571
  199loPI   C4B 3184   9.364  12.286   9.114 -0.4219  0.0408 -0.2304
  200loPI    C1 3185   7.760  13.802  11.268 -0.1602 -0.0246  0.1165
  200loPI    C2 3186   8.098  13.690  11.451 -0.1380 -0.0702  0.0478
  200loPI    C3 3187   7.761  13.735  11.663 -0.0455  0.1615  0.1492
  200loPI   PO4 3188   7.752  13.710  11.105  0.0097  0.2425 -0.1368
  200loPI   GL1 3189   7.509  13.486  10.781 -0.3500 -0.0192  0.0556
  200loPI   GL2 3190   7.897  13.597  10.632  0.0073  0.1040  0.1055
  200loPI   C1A 3191   7.458  13.586  10.319  0.2556 -0.0427 -0.1595
  200loPI   C2A 3192   7.415  13.579   9.819  0.2066  0.0280 -0.0176
  200loPI   C3A 3193   7.524  13.561   9.394 -0.0803  0.1698  0.0127
  200loPI   C4A 3194   7.485  13.529   8.962  0.1591 -0.0427  0.0240
  200loPI   C5A 3195   7.393  13.252   8.617 -0.2588 -0.2341 -0.3942
  200loPI   C6A 3196   7.401  13.160   8.194  0.2687 -0.1550  0.2644
  200loPI   C1B 3197   7.998  13.745  10.221  0.2616 -0.1119 -0.0044
  200loPI   C2B 3198   7.857  13.697   9.847  0.2264 -0.3160 -0.1812
  200loPI   C3B 3199   7.992  13.674   9.460  0.1895  0.0338 -0.0883
  200loPI   C4B 3200   7.887  13.792   9.013 -0.1484 -0.0072 -0.0872
  201loPI    C1 3201   6.531  16.481  11.690  0.1133  0.2418 -0.0044
  201loPI    C2 3202   6.428  16.865  11.732  0.0957  0.2218  0.1397
  201loPI    C3 3203   6.738  16.717  11.938  0.1580  0.1804  0.0170
  201loPI   PO4 3204   6.413  16.325  11.461  0.1154 -0.1059 -0.0161
  201loPI   GL1 3205   6.506  16.397  11.054  0.0574  0.0745  0.0898
  201loPI   GL2 3206   6.763  16.265  10.835  0.2237  0.1553 -0.0065
  201loPI   C1A 3207   6.365  16.648  10.722 -0.0243 -0.1248  0.3897
  201loPI   C2A 3208   6.389  16.689  10.260 -0.2263 -0.1147 -0.1352
  201loPI   C3A 3209   6.361  16.524   9.884  0.0155  0.0076  0.0362
  201loPI   C4A 3210   6.367  16.576   9.420  0.3148  0.3241 -0.2409
  201loPI   C5A 3211   6.241  16.608   9.024 -0.0615  0.1741 -0.0736
  201loPI   C6A 3212   5.836  16.329   8.775  0.0820 -0.0607 -0.0216
  201loPI   C1B 3213   6.596  16.241  10.461 -0.0191 -0.0177  0.2268
  201loPI   C2B 3214   6.701  16.281  10.083 -0.1759 -0.2686  0.0022
  201loPI   C3B 3215   6.793  16.242   9.642  0.0660 -0.0762 -0.3408
  201loPI   C4B 3216   6.660  16.210   9.183 -0.2978  0.0718 -0.1575
  202loPI    C1 3217   1.767  12.148  11.797  0.0262  0.0491 -0.1496
  202loPI    C2 3218   1.997  12.466  11.717  0.0945  0.0187 -0.0755
  202loPI    C3 3219   1.985  12.316  12.088 -0.1833  0.1303 -0.0371
  202loPI   PO4 3220   1.731  12.049  11.570 -0.4036 -0.0447  0.1021
  202loPI   GL1 3221   1.873  12.184  11.156  0.0468  0.3252 -0.3045
  202loPI   GL2 3222   1.995  11.910  10.988 -0.1306  0.0682  0.4499
  202loPI   C1A 3223   1.713  12.346  10.804  0.0906  0.3118 -0.1082
  202loPI   C2A 3224   1.533  12.298  10.427  0.1259 -0.0059 -0.0107
  202loPI   C3A 3225   1.546  12.335  10.058 -0.1410  0.0113 -0.0056
  202loPI   C4A 3226   1.573  12.414   9.621 -0.1494 -0.3623 -0.2624
  202loPI   C5A 3227   1.511  12.327   9.213  0.0104 -0.2424 -0.2258
  202loPI   C6A 3228   1.582  12.283   8.791  0.0172  0.0475  0.0236
  202loPI   C1B 3229   1.942  11.916  10.482 -0.1354 -0.0210  0.0295
  202loPI   C2B 3230   1.933  12.039  10.138 -0.3992 -0.1512  0.1196
  202loPI   C3B 3231   1.855  12.037   9.698 -0.1594 -0.0869 -0.1213
  202loPI   C4B 3232   1.898  11.945   9.316  0.0615 -0.0923 -0.0160
  203loPI    C1 3233   5.225   9.191  11.657  0.0182  0.0810  0.2763
  203loPI    C2 3234   4.991   9.461  11.837 -0.0016  0.1302  0.1773
  203loPI    C3 3235   4.981   9.078  11.953 -0.1112  0.1372  0.1919
  203loPI   PO4 3236   5.318   9.227  11.460 -0.2308  0.0116  0.0905
  203loPI   GL1 3237   5.277   9.033  11.138 -0.2420 -0.1224 -0.0001
  203loPI   GL2 3238   4.962   8.989  10.966 -0.1494  0.1001  0.1246
  203loPI   C1A 3239   5.364   9.222  10.615  0.1735  0.2940  0.3206
  203loPI   C2A 3240   5.382   9.218  10.232 -0.3085  0.4231 -0.0054
  203loPI   C3A 3241   5.283   9.149   9.836  0.0751  0.1205  0.0493
  203loPI   C4A 3242   5.480   9.209   9.314 -0.1151  0.0628  0.0026
  203loPI   C5A 3243   5.510   9.210   8.814  0.2545 -0.0827  0.0556
  203loPI   C6A 3244   5.619   9.433   8.441 -0.0159  0.0260  0.0797
  203loPI   C1B 3245   4.873   9.102  10.581  0.0249 -0.0268 -0.1217
  203loPI   C2B 3246   4.857   9.061  10.140 -0.1359 -0.0946 -0.1641
  203loPI   C3B 3247   4.884   9.030   9.682 -0.0168 -0.1388  0.0793
  203loPI   C4B 3248   4.978   8.982   9.255  0.0603  0.3984  0.1088
  204loPI    C1 3249  12.720   7.900  11.726 -0.2221 -0.1338  0.0063
  204loPI    C2 3250  12.429   8.167  11.661 -0.0678  0.0662  0.1277
  204loPI    C3 3251  12.725   8.251  11.918  0.1759 -0.0752 -0.1016
  204loPI   PO4 3252  12.814   7.804  11.523 -0.2778  0.1599  0.0549
  204loPI   GL1 3253  12.741   7.948  11.157  0.0932 -0.2306 -0.2526
  204loPI   GL2 3254  13.064   7.835  11.081  0.2165 -0.2068  0.0783
  204loPI   C1A 3255  12.527   7.985  10.704 -0.1704 -0.0428  0.1757
  204loPI   C2A 3256  12.624   8.095  10.303  0.0248  0.4059  0.2018
  204loPI   C3A 3257  12.536   7.994   9.949  0.0841  0.2311  0.4285
  204loPI   C4A 3258  12.490   7.930   9.506 -0.1000  0.3850  0.1283
  204loPI   C5A 3259  12.589   7.874   9.005  0.0251 -0.0213 -0.1047
  204loPI   C6A 3260  12.855   7.673   8.808  0.2455  0.1439 -0.2330
  204loPI   C1B 3261  12.937   7.752  10.670  0.0354 -0.0576 -0.0588
  204loPI   C2B 3262  12.827   7.656  10.296 -0.4332  0.0363 -0.0295
  204loPI   C3B 3263  12.884   7.559   9.841 -0.0465 -0.0216 -0.0994
  204loPI   C4B 3264  12.811   7.594   9.370 -0.1929 -0.0368 -0.1296
  205loPI    C1 3265   3.136   9.183  11.663  0.2956 -0.1826 -0.1594
  205loPI    C2 3266   2.931   9.477  11.840 -0.2235 -0.3741 -0.4220
  205loPI    C3 3267   3.054   9.162  12.054  0.2096 -0.0442 -0.1695
  205loPI   PO4 3268   3.078   9.140  11.397 -0.3815 -0.0242  0.3341
  205loPI   GL1 3269   2.779   9.159  11.182  0.3153 -0.0176  0.0450
  205loPI   GL2 3270   2.677   9.401  10.990 -0.0572  0.2089 -0.2319
  205loPI   C1A 3271   3.036   9.115  10.722 -0.0534 -0.1211 -0.0213
  205loPI   C2A 3272   3.092   9.049  10.339 -0.0035  0.1687  0.0743
  205loPI   C3A 3273   3.088   9.045   9.895 -0.1403 -0.1521 -0.0684
  205loPI   C4A 3274   3.087   9.034   9.453 -0.2531 -0.2088 -0.1229
  205loPI   C5A 3275   3.136   9.210   8.959 -0.0664 -0.0403 -0.1245
  205loPI   C6A 3276   3.442   9.138   8.768  0.1678 -0.0784  0.1322
  205loPI   C1B 3277   2.648   9.428  10.635 -0.0991  0.2442  0.1050
  205loPI   C2B 3278   2.686   9.380  10.174  0.0190 -0.1203  0.0897
  205loPI   C3B 3279   2.816   9.420   9.738  0.2060 -0.0706  0.0510
  205loPI   C4B 3280   2.712   9.382   9.333 -0.3242 -0.2415 -0.1114
  206loPI    C1 3281  12.233  10.362  11.971  0.1176 -0.1779 -0.0724
  206loPI    C2 3282  12.527  10.112  12.075  0.0642 -0.1868  0.0595
  206loPI    C3 3283  12.206  10.152  12.310 -0.0063 -0.1222 -0.0471
  206loPI   PO4 3284  12.226  10.381  11.600  0.2746 -0.1327 -0.1699
  206loPI   GL1 3285  12.249  10.175  11.228  0.1774  0.2494 -0.1011
  206loPI   GL2 3286  12.310   9.938  11.110 -0.1164 -0.1795  0.2868
  206loPI   C1A 3287  12.057  10.193  10.733  0.1127  0.0581  0.1041
  206loPI   C2A 3288  12.157  10.177  10.295  0.1475 -0.2010 -0.3602
  206loPI   C3A 3289  12.143  10.300   9.866  0.1707 -0.2809 -0.1587
  206loPI   C4A 3290  12.137  10.326   9.407  0.0380 -0.1391  0.1044
  206loPI   C5A 3291  12.267  10.143   9.044 -0.2297 -0.1700 -0.0052
  206loPI   C6A 3292  12.033   9.967   8.690  0.3546 -0.0212  0.4092
  206loPI   C1B 3293  12.361   9.855  10.677  0.1048  0.1263  0.4825
  206loPI   C2B 3294  12.529   9.907  10.283  0.0446 -0.1406 -0.1972
  206loPI   C3B 3295  12.546   9.959   9.911  0.0352 -0.1950 -0.1239
  206loPI   C4B 3296  12.556   9.948   9.443  0.1170  0.1254 -0.2305
  207loPI    C1 3297  13.189   0.156  11.453  0.0019  0.0340  0.0378
  207loPI    C2 3298  13.033   0.189  11.820  0.0533 -0.0542  0.0680
  207loPI    C3 3299  13.409   0.307  11.751  0.0607 -0.0855  0.0554
  207loPI   PO4 3300  13.113   0.016  11.268 -0.1400 -0.1745  0.0498
  207loPI   GL1 3301  13.062  -0.219  10.919  0.0723  0.0174  0.1444
  207loPI   GL2 3302  12.982  -0.561  10.870  0.2871 -0.0746 -0.1696
  207loPI   C1A 3303  12.993   0.004  10.557 -0.0113  0.0720  0.0164
  207loPI   C2A 3304  12.985   0.033  10.196  0.2160 -0.1378  0.1670
  207loPI   C3A 3305  13.035   0.018   9.712 -0.0919  0.2156  0.1636
  207loPI   C4A 3306  13.018  -0.057   9.319 -0.3552 -0.1349 -0.2273
  207loPI   C5A 3307  13.039   0.040   8.836 -0.0755  0.3146 -0.1705
  207loPI   C6A 3308  13.242   0.252   8.645  0.3082 -0.3573 -0.1359
  207loPI   C1B 3309  12.949  -0.602  10.512  0.1108 -0.1433 -0.1698
  207loPI   C2B 3310  12.824  -0.452  10.169  0.0278 -0.3823 -0.0967
  207loPI   C3B 3311  12.876  -0.461   9.764  0.1002  0.0752 -0.3073
  207loPI   C4B 3312  12.836  -0.562   9.311  0.2648  0.0808 -0.1990
  208loPI    C1 3313   3.965  16.914  11.490  0.2277 -0.2950 -0.1493
  208loPI    C2 3314   4.265  17.135  11.343  0.1345  0.0075  0.1045
  208loPI    C3 3315   4.297  16.971  11.707  0.0521 -0.0871  0.0697
  208loPI   PO4 3316   3.758  16.955  11.331 -0.1859 -0.2184  0.0591
  208loPI   GL1 3317   3.663  17.094  10.947  0.3459  0.0860  0.0496
  208loPI   GL2 3318   3.981  17.261  10.956 -0.0638  0.2148  0.4328
  208loPI   C1A 3319   3.661  17.214  10.532 -0.1082  0.2713  0.1680
  208loPI   C2A 3320   3.787  17.205  10.013 -0.3115  0.0894 -0.1409
  208loPI   C3A 3321   3.789  17.157   9.589  0.2999 -0.1423 -0.0292
  208loPI   C4A 3322   3.712  17.167   9.127 -0.0465  0.2259  0.0213
  208loPI   C5A 3323   3.860  16.904   8.756 -0.0800 -0.2536  0.1773
  208loPI   C6A 3324   3.910  16.521   8.552 -0.0235  0.0409  0.2240
  208loPI   C1B 3325   4.233  17.314  10.482  0.0848  0.4858  0.1463
  208loPI   C2B 3326   4.216  17.409  10.068 -0.2048  0.1027  0.0393
  208loPI   C3B 3327   4.250  17.387   9.589  0.1970 -0.1887 -0.2906
  208loPI   C4B 3328   4.289  17.325   9.234 -0.0742  0.0779  0.2112
  209loPI    C1 3329  11.920  12.697  11.891 -0.0662 -0.0730  0.0812
  209loPI    C2 3330  11.735  12.360  12.000 -0.0136 -0.0774  0.1576
  209loPI    C3 3331  11.624  12.710  12.159 -0.0850 -0.0552  0.0598
  209loPI   PO4 3332  11.967  12.699  11.618  0.1912 -0.0731  0.0049
  209loPI   GL1 3333  12.082  12.854  11.118  0.0522  0.1007  0.1823
  209loPI   GL2 3334  11.824  12.621  11.023  0.2038 -0.1049  0.1886
  209loPI   C1A 3335  12.295  12.798  10.654  0.0227 -0.0967 -0.0985
  209loPI   C2A 3336  12.272  12.641  10.317  0.0872 -0.0758  0.1311
  209loPI   C3A 3337  12.265  12.743   9.886  0.0627 -0.1755 -0.0486
  209loPI   C4A 3338  12.374  12.659   9.423  0.0919  0.0519  0.4684
  209loPI   C5A 3339  12.144  12.640   8.964  0.1667 -0.1820  0.0671
  209loPI   C6A 3340  11.926  12.629   8.655  0.0462 -0.0028  0.4250
  209loPI   C1B 3341  11.747  12.404  10.599 -0.1658  0.2760  0.1261
  209loPI   C2B 3342  11.820  12.382  10.219 -0.0649 -0.3212  0.1043
  209loPI   C3B 3343  11.737  12.545   9.771  0.2320 -0.1937  0.0513
  209loPI   C4B 3344  11.836  12.498   9.428 -0.1412 -0.2548 -0.4323
  210loPI    C1 3345   3.897  12.937  11.583  0.1606 -0.0809 -0.1766
  210loPI    C2 3346   4.008  12.595  11.758 -0.1015 -0.0833 -0.0088
  210loPI    C3 3347   3.695  12.800  11.900  0.0052  0.1871 -0.1564
  210loPI   PO4 3348   3.925  12.792  11.325 -0.2079 -0.2607  0.0104
  210loPI   GL1 3349   3.942  12.955  10.984 -0.2583  0.1963 -0.0356
  210loPI   GL2 3350   4.187  13.070  10.764 -0.0337 -0.0385 -0.1722
  210loPI   C1A 3351   3.687  12.931  10.517  0.1375 -0.2204 -0.1017
  210loPI   C2A 3352   3.614  12.974  10.094  0.1803 -0.1348 -0.2038
  210loPI   C3A 3353   3.569  13.002   9.692 -0.1627  0.1238 -0.2012
  210loPI   C4A 3354   3.557  13.005   9.255  0.0570  0.2388 -0.0005
  210loPI   C5A 3355   3.390  13.148   8.887  0.4065  0.1256 -0.1768
  210loPI   C6A 3356   3.434  13.005   8.511  0.3235  0.1458  0.1254
  210loPI   C1B 3357   4.100  13.087  10.293 -0.2236  0.1964  0.1657
  210loPI   C2B 3358   4.125  13.083   9.869  0.2072  0.0809  0.2877
  210loPI   C3B 3359   4.029  13.204   9.436  0.1765 -0.1069 -0.0462
  210loPI   C4B 3360   3.912  13.287   8.976 -0.0353 -0.0490 -0.1397
  211loPI    C1 3361   6.664  10.592  11.600  0.1585  0.1798  0.0439
  211loPI    C2 3362   6.569  10.599  11.989 -0.1322  0.0200 -0.0212
  211loPI    C3 3363   6.817  10.874  11.839  0.0696  0.0174  0.2976
  211loPI   PO4 3364   6.475  10.515  11.496 -0.1225  0.1838 -0.2957
  211loPI   GL1 3365   6.597  10.443  11.076 -0.0942  0.1616  0.0119
  211loPI   GL2 3366   6.785  10.750  11.132 -0.2004 -0.2129 -0.0790
  211loPI   C1A 3367   6.641  10.464  10.644  0.1041 -0.0705 -0.0231
  211loPI   C2A 3368   6.589  10.482  10.167 -0.3068  0.0154 -0.0939
  211loPI   C3A 3369   6.630  10.391   9.792  0.1467 -0.1654 -0.0204
  211loPI   C4A 3370   6.803  10.498   9.335 -0.3044 -0.0422 -0.2529
  211loPI   C5A 3371   6.730  10.557   8.985  0.1700 -0.0632 -0.0776
  211loPI   C6A 3372   6.545  10.580   8.606  0.2443  0.3546 -0.2165
  211loPI   C1B 3373   6.830  10.932  10.686  0.3809  0.0300 -0.1328
  211loPI   C2B 3374   6.834  10.916  10.249  0.0259 -0.0051  0.1529
  211loPI   C3B 3375   6.796  10.974   9.817 -0.1081 -0.2266 -0.2161
  211loPI   C4B 3376   6.822  11.146   9.380 -0.1758 -0.0748 -0.2972
  212loPI    C1 3377  17.332   8.548  11.100 -0.0439  0.1340 -0.2321
  212loPI    C2 3378  17.074   8.853  11.118  0.0542  0.1993  0.1411
  212loPI    C3 3379  17.154   8.638  11.446  0.0101 -0.2116 -0.1109
  212loPI   PO4 3380  17.267   8.447  10.832  0.0772  0.3369  0.0336
  212loPI   GL1 3381  16.978   8.596  10.613 -0.2997 -0.2436  0.0223
  212loPI   GL2 3382  17.132   8.295  10.423 -0.2484  0.0592  0.0730
  212loPI   C1A 3383  17.122   8.849  10.268  0.0718  0.1095 -0.0746
  212loPI   C2A 3384  17.386   9.039  10.036  0.1600  0.0505  0.0630
  212loPI   C3A 3385  17.676   8.729   9.820 -0.2765  0.0959 -0.0218
  212loPI   C4A 3386  17.874   8.572   9.518  0.1389  0.2452 -0.1092
  212loPI   C5A 3387  17.921   8.616   9.050 -0.2018 -0.2470 -0.1255
  212loPI   C6A 3388  18.001   8.591   8.705  0.0419  0.1210  0.1947
  212loPI   C1B 3389  17.042   7.972  10.042 -0.0246 -0.3287 -0.2945
  212loPI   C2B 3390  17.206   7.905   9.564  0.1167  0.5255 -0.1466
  212loPI   C3B 3391  17.162   7.949   9.197  0.0648 -0.1448 -0.0894
  212loPI   C4B 3392  17.299   8.091   8.811 -0.1260 -0.3485 -0.0924
  213loPI    C1 3393  12.670   2.581  11.638 -0.2128  0.0072  0.1789
  213loPI    C2 3394  12.970   2.610  11.901 -0.0794  0.0263  0.0268
  213loPI    C3 3395  12.626   2.802  11.968  0.0132  0.1659  0.1053
  213loPI   PO4 3396  12.744   2.573  11.380  0.2494 -0.2000 -0.0284
  213loPI   GL1 3397  12.800   2.423  11.052 -0.1612 -0.1741  0.1646
  213loPI   GL2 3398  12.821   2.779  10.858 -0.0588 -0.1193 -0.1421
  213loPI   C1A 3399  12.569   2.234  10.687  0.2787 -0.0294  0.1769
  213loPI   C2A 3400  12.639   2.175  10.252 -0.0045 -0.0927 -0.2413
  213loPI   C3A 3401  12.711   2.212   9.888 -0.0504 -0.1470 -0.0353
  213loPI   C4A 3402  12.723   2.212   9.558  0.1360 -0.0163  0.1247
  213loPI   C5A 3403  12.706   2.277   9.174 -0.0007 -0.1760  0.0505
  213loPI   C6A 3404  12.759   2.255   8.822 -0.1584 -0.0410 -0.0261
  213loPI   C1B 3405  12.870   2.841  10.420  0.0530  0.1227 -0.0011
  213loPI   C2B 3406  12.818   2.732   9.987 -0.0031 -0.0357  0.0421
  213loPI   C3B 3407  12.815   2.706   9.469  0.1126  0.2041 -0.0883
  213loPI   C4B 3408  12.588   2.940   9.198 -0.0892  0.0136  0.1534
  214loPI    C1 3409  10.680  14.578  11.367 -0.3973  0.0250 -0.3490
  214loPI    C2 3410  10.463  14.690  11.683  0.2786  0.1750  0.0835
  214loPI    C3 3411  10.574  14.961  11.410 -0.1277  0.0833 -0.1830
  214loPI   PO4 3412  10.516  14.399  11.192 -0.2676 -0.0737  0.1384
  214loPI   GL1 3413  10.214  14.507  10.846 -0.0250 -0.0934  0.0968
  214loPI   GL2 3414  10.046  14.885  10.726  0.3049 -0.3075  0.0762
  214loPI   C1A 3415  10.384  14.426  10.484  0.0089 -0.0498 -0.0316
  214loPI   C2A 3416  10.419  14.440  10.026 -0.1357 -0.0881  0.2229
  214loPI   C3A 3417  10.475  14.459   9.675 -0.0265 -0.1821  0.1361
  214loPI   C4A 3418  10.430  14.402   9.284  0.3127 -0.0368  0.1288
  214loPI   C5A 3419  10.543  14.381   8.907  0.2092  0.2910 -0.1939
  214loPI   C6A 3420  10.276  14.277   8.523 -0.1862  0.2232  0.2723
  214loPI   C1B 3421  10.042  14.750  10.315 -0.5167  0.0032 -0.0607
  214loPI   C2B 3422   9.996  14.771   9.925 -0.1356 -0.0163 -0.2294
  214loPI   C3B 3423  10.052  14.807   9.451 -0.2810 -0.0587 -0.2422
  214loPI   C4B 3424  10.032  14.762   9.003  0.0956 -0.0527 -0.2517
  215loPI    C1 3425  10.504   6.128  11.638 -0.0635 -0.0099  0.0066
  215loPI    C2 3426  10.575   6.424  11.898 -0.1503  0.2410 -0.2497
  215loPI    C3 3427  10.283   6.160  11.969 -0.1286  0.2665 -0.0615
  215loPI   PO4 3428  10.812   6.097  11.559  0.0365 -0.1538  0.1436
  215loPI   GL1 3429  10.980   5.878  11.208 -0.0013  0.1639 -0.0996
  215loPI   GL2 3430  11.142   6.205  11.178  0.0520 -0.0563  0.2390
  215loPI   C1A 3431  10.767   5.898  10.854 -0.2060 -0.2202  0.0679
  215loPI   C2A 3432  10.733   6.055  10.306 -0.1357 -0.0432 -0.1929
  215loPI   C3A 3433  10.579   6.096   9.992  0.0040 -0.0434  0.1388
  215loPI   C4A 3434  10.671   6.075   9.560 -0.3922  0.0805  0.2914
  215loPI   C5A 3435  10.633   6.209   9.118 -0.1727  0.2058  0.0695
  215loPI   C6A 3436  10.364   6.080   8.789  0.1014  0.3013 -0.2214
  215loPI   C1B 3437  11.198   6.230  10.710 -0.1935  0.0189 -0.0310
  215loPI   C2B 3438  11.190   6.198  10.235 -0.0255 -0.4608 -0.0815
  215loPI   C3B 3439  11.224   6.239   9.803 -0.2625  0.0539 -0.0396
  215loPI   C4B 3440  11.178   6.261   9.344  0.0229 -0.0260 -0.0857
  216loPI    C1 3441  12.300   4.034  11.395  0.1642  0.1276 -0.0536
  216loPI    C2 3442  12.698   4.006  11.360  0.1710  0.1500  0.0067
  216loPI    C3 3443  12.515   3.865  11.687  0.1227  0.0818 -0.0495
  216loPI   PO4 3444  12.301   4.314  11.226 -0.2663  0.1248 -0.0753
  216loPI   GL1 3445  11.924   4.546  10.928 -0.0122 -0.3538  0.0539
  216loPI   GL2 3446  12.227   4.586  10.785  0.1085  0.0133 -0.1299
  216loPI   C1A 3447  11.762   4.402  10.405 -0.1128 -0.0431 -0.2106
  216loPI   C2A 3448  11.801   4.533   9.943 -0.1633  0.0267  0.0001
  216loPI   C3A 3449  11.657   4.461   9.528  0.0841  0.2032  0.0615
  216loPI   C4A 3450  11.628   4.096   9.321  0.1788  0.0602 -0.4138
  216loPI   C5A 3451  11.546   3.749   8.919 -0.2442  0.1858 -0.3009
  216loPI   C6A 3452  11.743   3.535   8.560  0.1956 -0.2557  0.0652
  216loPI   C1B 3453  12.214   4.635  10.319  0.1103 -0.1211  0.2143
  216loPI   C2B 3454  12.290   4.673   9.897 -0.0359 -0.0317 -0.0591
  216loPI   C3B 3455  12.074   4.638   9.563  0.1916  0.0082  0.0093
  216loPI   C4B 3456  11.990   4.555   9.136  0.0049  0.0334  0.0067
  217loPI    C1 3457  11.906  17.059  11.409  0.4461  0.0356  0.0369
  217loPI    C2 3458  11.962  16.747  11.653 -0.1234 -0.0058  0.1280
  217loPI    C3 3459  12.103  17.107  11.755 -0.0893 -0.0853  0.3703
  217loPI   PO4 3460  11.998  16.921  11.146  0.0488  0.1035  0.0664
  217loPI   GL1 3461  11.874  16.846  10.773 -0.3289 -0.0741 -0.2339
  217loPI   GL2 3462  11.560  16.815  10.843 -0.1408  0.0843  0.1165
  217loPI   C1A 3463  11.917  16.892  10.384  0.0912  0.1469 -0.4033
  217loPI   C2A 3464  11.892  16.888   9.896  0.2343 -0.0655 -0.1356
  217loPI   C3A 3465  11.865  16.902   9.489  0.0443 -0.2437  0.0485
  217loPI   C4A 3466  11.848  16.735   9.089  0.0818  0.0840  0.3301
  217loPI   C5A 3467  11.646  16.552   8.644  0.3812  0.0467  0.0244
  217loPI   C6A 3468  11.798  16.618   8.271 -0.0599  0.0841 -0.0220
  217loPI   C1B 3469  11.468  16.670  10.489 -0.1705 -0.0868  0.0587
  217loPI   C2B 3470  11.467  16.724  10.133 -0.1411 -0.1471 -0.0924
  217loPI   C3B 3471  11.391  16.665   9.666  0.1650 -0.0723 -0.1377
  217loPI   C4B 3472  11.240  16.590   9.359 -0.0026  0.1508  0.0830
  218loPI    C1 3473   5.524   7.005  11.726 -0.1197  0.1452 -0.1923
  218loPI    C2 3474   5.796   7.290  11.656 -0.1674  0.2264 -0.0504
  218loPI    C3 3475   5.766   7.126  12.020 -0.0861 -0.0184 -0.1515
  218loPI   PO4 3476   5.548   6.908  11.453  0.1362  0.2137  0.1227
  218loPI   GL1 3477   5.352   6.827  11.137  0.0451  0.1343 -0.2940
  218loPI   GL2 3478   5.699   6.810  10.947  0.1275 -0.2785  0.0762
  218loPI   C1A 3479   5.143   6.714  10.769  0.2601 -0.4217  0.1598
  218loPI   C2A 3480   5.286   6.742  10.385 -0.4377  0.0925 -0.0259
  218loPI   C3A 3481   5.203   7.003  10.043 -0.3884  0.1448 -0.2474
  218loPI   C4A 3482   4.977   7.152   9.649  0.2148 -0.2205  0.1689
  218loPI   C5A 3483   4.874   7.209   9.273  0.0837 -0.1846  0.3072
  218loPI   C6A 3484   4.942   7.224   8.839  0.0505 -0.1200 -0.1126
  218loPI   C1B 3485   5.775   6.998  10.525 -0.0910  0.0032  0.1236
  218loPI   C2B 3486   5.751   6.911  10.155 -0.1126 -0.0551  0.1667
  218loPI   C3B 3487   5.841   6.931   9.700  0.3272 -0.1338  0.2086
  218loPI   C4B 3488   5.869   6.938   9.252 -0.0592 -0.1265 -0.2316
  219loPI    C1 3489  11.062  16.716  11.543 -0.0414 -0.3076 -0.0524
  219loPI    C2 3490  10.974  16.933  11.867  0.2088 -0.1754 -0.0702
  219loPI    C3 3491  10.872  16.546  11.851 -0.2604 -0.0583 -0.0469
  219loPI   PO4 3492  11.037  16.796  11.359 -0.0474  0.1097  0.0735
  219loPI   GL1 3493  11.106  16.566  10.995 -0.3393  0.1783  0.0922
  219loPI   GL2 3494  11.304  16.375  11.033 -0.2406  0.2219  0.1912
  219loPI   C1A 3495  10.834  16.492  10.704  0.0072 -0.4861 -0.1651
  219loPI   C2A 3496  10.538  16.455  10.345  0.2200  0.0285 -0.2350
  219loPI   C3A 3497  10.310  16.381   9.919  0.2946  0.0693 -0.2551
  219loPI   C4A 3498  10.339  16.315   9.503  0.1033 -0.0408 -0.2819
  219loPI   C5A 3499  10.443  16.348   9.103 -0.1239  0.3742  0.1018
  219loPI   C6A 3500  10.381  16.751   8.829 -0.0523  0.0749  0.1194
  219loPI   C1B 3501  11.280  16.163  10.701 -0.3223  0.0557  0.0257
  219loPI   C2B 3502  11.186  16.318  10.286  0.1534  0.0492  0.0899
  219loPI   C3B 3503  11.290  16.282   9.955 -0.0252  0.2522  0.1212
  219loPI   C4B 3504  11.325  16.115   9.603  0.2300 -0.0180 -0.3003
  220loPI    C1 3505   6.895   3.151  11.602  0.3187  0.1454 -0.0972
  220loPI    C2 3506   6.884   2.991  11.969  0.3681 -0.0123 -0.1637
  220loPI    C3 3507   6.548   3.127  11.800  0.3245 -0.0514 -0.1089
  220loPI   PO4 3508   7.110   2.987  11.491 -0.0792  0.4151  0.1683
  220loPI   GL1 3509   7.257   2.953  11.146  0.0958  0.0787 -0.0473
  220loPI   GL2 3510   7.416   3.104  10.975 -0.0509  0.1647  0.2166
  220loPI   C1A 3511   7.283   2.614  10.832  0.0167 -0.0595  0.2832
  220loPI   C2A 3512   7.255   2.566  10.404 -0.1595 -0.0572 -0.2161
  220loPI   C3A 3513   7.157   2.597   9.960 -0.1729 -0.3151  0.4029
  220loPI   C4A 3514   7.069   2.660   9.511 -0.0784  0.1326 -0.1007
  220loPI   C5A 3515   6.840   2.803   9.115  0.1492 -0.1370  0.1128
  220loPI   C6A 3516   6.929   3.106   8.851  0.1882  0.1109 -0.0671
  220loPI   C1B 3517   7.345   3.075  10.514 -0.0932 -0.0572 -0.2105
  220loPI   C2B 3518   7.233   3.094  10.084 -0.1171  0.1970  0.1754
  220loPI   C3B 3519   7.341   3.051   9.713  0.1476  0.0263 -0.2267
  220loPI   C4B 3520   7.348   3.068   9.308  0.2444  0.2417  0.4794
  221loPI    C1 3521   3.118   6.198  11.397  0.3006 -0.0016 -0.1176
  221loPI    C2 3522   3.390   5.924  11.501  0.0952 -0.1216  0.1156
  221loPI    C3 3523   3.232   6.164  11.779 -0.1068 -0.1169 -0.0010
  221loPI   PO4 3524   2.908   6.062  11.263 -0.0361 -0.0696 -0.0201
  221loPI   GL1 3525   2.808   5.943  10.896  0.0450  0.0597 -0.0993
  221loPI   GL2 3526   3.023   5.724  10.696  0.0985  0.1908 -0.0658
  221loPI   C1A 3527   2.733   5.960  10.397  0.0650 -0.4861 -0.3187
  221loPI   C2A 3528   2.739   5.824   9.905  0.1934 -0.0384  0.4488
  221loPI   C3A 3529   2.861   5.859   9.411  0.2503  0.2994  0.2083
  221loPI   C4A 3530   3.246   5.757   9.157 -0.0725  0.0800  0.3766
  221loPI   C5A 3531   3.564   5.710   8.941 -0.1344 -0.2040 -0.0077
  221loPI   C6A 3532   3.976   5.520   9.157  0.1792  0.1021  0.1462
  221loPI   C1B 3533   3.174   5.737  10.266 -0.0268 -0.2322 -0.0703
  221loPI   C2B 3534   3.204   5.551   9.911  0.0290  0.0517 -0.2729
  221loPI   C3B 3535   3.158   5.377   9.595 -0.1603 -0.1537 -0.3877
  221loPI   C4B 3536   2.864   5.255   9.331  0.1725  0.1271  0.1825
  222loPI    C1 3537   7.324  14.209  11.622  0.0511 -0.1278  0.1414
  222loPI    C2 3538   7.674  14.273  11.805  0.0598  0.0006  0.0805
  222loPI    C3 3539   7.423  13.994  11.945  0.3946 -0.4315 -0.1565
  222loPI   PO4 3540   7.412  14.132  11.326 -0.0215  0.0198 -0.0139
  222loPI   GL1 3541   7.286  14.239  10.927  0.0639 -0.0392  0.1234
  222loPI   GL2 3542   7.685  14.125  10.851  0.2525 -0.1390 -0.3080
  222loPI   C1A 3543   7.278  14.445  10.535 -0.0218 -0.2096  0.1210
  222loPI   C2A 3544   7.194  14.460  10.151 -0.0229  0.0194  0.0320
  222loPI   C3A 3545   7.169  14.573   9.669  0.1513  0.1050 -0.4027
  222loPI   C4A 3546   7.146  14.526   9.269  0.2303  0.1348 -0.1895
  222loPI   C5A 3547   7.054  14.483   8.763 -0.1889 -0.0144 -0.2710
  222loPI   C6A 3548   7.103  14.736   8.346  0.0835 -0.2737 -0.0967
  222loPI   C1B 3549   7.631  14.037  10.404  0.2888  0.0012 -0.2714
  222loPI   C2B 3550   7.549  14.071   9.989 -0.1130  0.2399 -0.0683
  222loPI   C3B 3551   7.518  14.144   9.548 -0.0761 -0.1870 -0.3926
  222loPI   C4B 3552   7.531  14.137   9.112 -0.1852  0.2644 -0.1171
  223loPI    C1 3553   6.401   5.697  11.381  0.1372 -0.2376 -0.0742
  223loPI    C2 3554   6.679   5.694  11.668 -0.0722 -0.2013  0.1323
  223loPI    C3 3555   6.319   5.853  11.740 -0.1151 -0.1584 -0.1635
  223loPI   PO4 3556   6.495   5.763  11.201  0.1925 -0.6996 -0.1083
  223loPI   GL1 3557   6.729   5.855  10.854  0.2123  0.3788 -0.0972
  223loPI   GL2 3558   6.545   6.039  10.794 -0.1240 -0.1164  0.0482
  223loPI   C1A 3559   6.968   5.821  10.491  0.0839 -0.0631  0.2029
  223loPI   C2A 3560   6.939   5.810  10.124 -0.0374 -0.1868 -0.0136
  223loPI   C3A 3561   6.910   5.824   9.617  0.0029 -0.2259  0.0072
  223loPI   C4A 3562   7.084   5.869   9.197  0.0919  0.0836  0.1330
  223loPI   C5A 3563   7.223   5.893   8.823  0.2185  0.2383  0.2530
  223loPI   C6A 3564   7.415   6.236   8.647 -0.0196 -0.0131  0.1530
  223loPI   C1B 3565   6.630   6.123  10.343  0.0903 -0.3879  0.3760
  223loPI   C2B 3566   6.617   6.267   9.900 -0.2955 -0.2266  0.6691
  223loPI   C3B 3567   6.647   6.282   9.393 -0.3796 -0.2397  0.0811
  223loPI   C4B 3568   6.643   6.271   9.036  0.0763 -0.0687  0.0606
  224loPI    C1 3569  14.008   3.728  11.376 -0.0774  0.5066  0.0760
  224loPI    C2 3570  13.828   3.884  11.698 -0.2845 -0.1208  0.2776
  224loPI    C3 3571  13.741   3.511  11.580  0.4095 -0.2078 -0.0097
  224loPI   PO4 3572  14.016   3.898  11.117  0.2063 -0.0571  0.1354
  224loPI   GL1 3573  14.036   4.091  10.819 -0.0478  0.1508 -0.0710
  224loPI   GL2 3574  13.993   4.356  10.802  0.1935 -0.1646 -0.1231
  224loPI   C1A 3575  14.374   3.961  10.440 -0.1991 -0.4125  0.1342
  224loPI   C2A 3576  14.380   4.046  10.022 -0.1463 -0.1445 -0.1031
  224loPI   C3A 3577  14.581   3.967   9.551  0.1793  0.1048 -0.2608
  224loPI   C4A 3578  14.407   4.159   9.168  0.0867 -0.0384  0.2045
  224loPI   C5A 3579  14.077   3.911   9.019  0.1533  0.1389 -0.1807
  224loPI   C6A 3580  13.633   3.832   8.694 -0.1884  0.1654  0.2519
  224loPI   C1B 3581  14.111   4.377  10.405  0.0577 -0.0437  0.0628
  224loPI   C2B 3582  14.199   4.525   9.980  0.1175  0.0715  0.3936
  224loPI   C3B 3583  14.085   4.302   9.646 -0.0261  0.1668  0.0754
  224loPI   C4B 3584  14.149   3.773   9.517  0.0787  0.0269 -0.2390
  225loPI    C1 3585  13.468   0.878  11.526  0.1313 -0.1237 -0.1076
  225loPI    C2 3586  13.730   0.698  11.769  0.2502  0.3243  0.1070
  225loPI    C3 3587  13.440   0.928  11.922 -0.2650 -0.1446 -0.1290
  225loPI   PO4 3588  13.705   0.952  11.286 -0.0677 -0.0981 -0.0935
  225loPI   GL1 3589  13.671   1.315  11.035  0.2762 -0.0497 -0.0374
  225loPI   GL2 3590  13.461   1.650  11.009  0.1558 -0.2072 -0.0222
  225loPI   C1A 3591  13.744   1.188  10.627  0.2516 -0.0523  0.2547
  225loPI   C2A 3592  13.706   1.074  10.225  0.1146  0.3909 -0.1145
  225loPI   C3A 3593  13.812   1.069   9.792  0.3122 -0.2340  0.3618
  225loPI   C4A 3594  13.777   1.050   9.382 -0.1831  0.0261 -0.1301
  225loPI   C5A 3595  13.835   1.044   8.932  0.0901  0.1528 -0.0016
  225loPI   C6A 3596  13.758   0.801   8.559 -0.0007 -0.2019  0.1617
  225loPI   C1B 3597  13.345   1.480  10.608 -0.1814  0.0678 -0.4900
  225loPI   C2B 3598  13.388   1.460  10.171 -0.0030  0.0822  0.0105
  225loPI   C3B 3599  13.421   1.389   9.728  0.2077  0.0277 -0.1583
  225loPI   C4B 3600  13.434   1.442   9.352 -0.1263 -0.1512 -0.0625
  226loPI    C1 3601  10.648  16.027  11.635 -0.0616  0.3145 -0.0933
  226loPI    C2 3602  10.317  16.081  11.417 -0.1767  0.1050  0.0262
  226loPI    C3 3603  10.397  16.326  11.723 -0.2863  0.0819  0.0742
  226loPI   PO4 3604  10.872  15.879  11.404  0.0361 -0.0739 -0.0154
  226loPI   GL1 3605  10.864  16.083  11.031 -0.2543 -0.3149  0.0126
  226loPI   GL2 3606  10.523  15.908  10.976  0.2780 -0.2911 -0.4590
  226loPI   C1A 3607  10.729  16.043  10.544  0.2245 -0.2084 -0.0197
  226loPI   C2A 3608  10.648  16.067  10.132  0.2041  0.0676 -0.1283
  226loPI   C3A 3609  10.630  15.955   9.715  0.0624  0.2036  0.0184
  226loPI   C4A 3610  10.746  15.928   9.222  0.1342 -0.0503 -0.3221
  226loPI   C5A 3611  11.192  15.996   9.054  0.2564  0.0786 -0.0402
  226loPI   C6A 3612  11.448  16.246   8.969  0.2481 -0.0926 -0.1172
  226loPI   C1B 3613  10.306  15.761  10.499 -0.3587 -0.1047  0.0429
  226loPI   C2B 3614  10.216  15.798   9.985  0.0157  0.1710  0.1419
  226loPI   C3B 3615  10.202  15.799   9.613  0.1140  0.1643  0.0121
  226loPI   C4B 3616  10.263  15.893   9.276 -0.0394  0.4600  0.0954
  227loPI    C1 3617  15.227   2.792  11.242  0.1348 -0.2506 -0.1671
  227loPI    C2 3618  15.038   2.567  10.970 -0.0929 -0.3629  0.0787
  227loPI    C3 3619  15.109   2.421  11.336 -0.0034 -0.1285  0.1567
  227loPI   PO4 3620  15.200   3.006  11.179  0.2427  0.1441 -0.1058
  227loPI   GL1 3621  15.269   3.101  10.748 -0.3704  0.0430 -0.1675
  227loPI   GL2 3622  14.936   3.193  10.740 -0.2571  0.0472 -0.6227
  227loPI   C1A 3623  15.064   3.099  10.235  0.0012 -0.0307 -0.4028
  227loPI   C2A 3624  15.072   3.094   9.822  0.0994  0.2666 -0.3467
  227loPI   C3A 3625  15.107   2.823   9.469  0.0272  0.1928  0.1977
  227loPI   C4A 3626  15.094   2.744   9.004 -0.2905  0.1460 -0.2457
  227loPI   C5A 3627  15.170   2.829   8.697  0.0283  0.1790  0.0262
  227loPI   C6A 3628  15.093   2.895   8.277 -0.0420  0.0091  0.1811
  227loPI   C1B 3629  14.885   2.800  10.580 -0.1230  0.0892 -0.1506
  227loPI   C2B 3630  14.956   2.577  10.173  0.0055 -0.1093  0.3773
  227loPI   C3B 3631  15.026   2.389   9.717  0.1690  0.2007 -0.0872
  227loPI   C4B 3632  15.045   2.280   9.301 -0.1648  0.0092  0.0270
  228loPI    C1 3633   7.646   7.039  11.431  0.0339  0.1340  0.0127
  228loPI    C2 3634   7.842   6.719  11.569  0.0092  0.0431 -0.1597
  228loPI    C3 3635   7.527   6.862  11.770  0.1043  0.0440 -0.0092
  228loPI   PO4 3636   7.783   7.218  11.338  0.0066  0.2452 -0.0807
  228loPI   GL1 3637   8.105   7.278  11.120  0.0581 -0.2963 -0.1763
  228loPI   GL2 3638   8.141   6.963  11.115  0.1139  0.1921 -0.1512
  228loPI   C1A 3639   8.317   7.595  10.814 -0.0771  0.0909 -0.2834
  228loPI   C2A 3640   8.272   7.705  10.328  0.0731  0.1260 -0.0591
  228loPI   C3A 3641   8.345   7.649  10.015  0.2453 -0.2233  0.0079
  228loPI   C4A 3642   8.338   7.686   9.546 -0.2102 -0.0310 -0.2510
  228loPI   C5A 3643   8.331   7.727   9.140  0.0630 -0.0065 -0.3750
  228loPI   C6A 3644   8.139   7.851   8.812 -0.2224  0.1040 -0.0598
  228loPI   C1B 3645   8.149   7.162  10.621  0.1142 -0.1963 -0.1689
  228loPI   C2B 3646   8.229   7.172  10.165 -0.1312 -0.0503 -0.0830
  228loPI   C3B 3647   8.135   7.212   9.757 -0.2116  0.0006  0.2632
  228loPI   C4B 3648   8.186   7.191   9.400  0.0320  0.5668  0.2742
  229loPI    C1 3649  17.402  10.381  11.456 -0.2335 -0.1716  0.1016
  229loPI    C2 3650  17.275  10.118  11.730  0.0196 -0.2176  0.1781
  229loPI    C3 3651  17.322  10.503  11.828 -0.1345 -0.1849  0.1275
  229loPI   PO4 3652  17.384  10.385  11.221 -0.0372  0.1621  0.1690
  229loPI   GL1 3653  17.362  10.699  10.977 -0.0423 -0.1572  0.0771
  229loPI   GL2 3654  16.988  10.637  10.983 -0.1043 -0.2015 -0.1340
  229loPI   C1A 3655  17.327  10.930  10.629  0.0640 -0.0236 -0.2424
  229loPI   C2A 3656  17.387  10.902  10.102 -0.1246 -0.2372  0.1523
  229loPI   C3A 3657  17.416  10.914   9.681 -0.2423 -0.0199 -0.1301
  229loPI   C4A 3658  17.468  10.837   9.201 -0.2328 -0.1034  0.0478
  229loPI   C5A 3659  17.546  11.080   8.857  0.2797  0.2760  0.2653
  229loPI   C6A 3660  17.786  11.409   8.689  0.0848  0.1290 -0.0358
  229loPI   C1B 3661  16.780  10.726  10.667  0.0045 -0.0010 -0.2494
  229loPI   C2B 3662  16.796  10.764  10.304 -0.3532 -0.0035  0.1095
  229loPI   C3B 3663  16.936  10.787   9.869 -0.4667 -0.1028  0.0682
  229loPI   C4B 3664  16.997  10.766   9.397  0.1558  0.0215 -0.0816
  230loPI    C1 3665   7.686   0.650  11.732 -0.2109 -0.3285  0.0031
  230loPI    C2 3666   7.528   0.932  11.969  0.2753 -0.0828  0.0468
  230loPI    C3 3667   7.468   0.545  12.051  0.0797  0.0023  0.3197
  230loPI   PO4 3668   7.646   0.732  11.534 -0.1510  0.0508 -0.0941
  230loPI   GL1 3669   7.619   0.589  11.190 -0.1449 -0.4407  0.0486
  230loPI   GL2 3670   7.766   0.924  11.070  0.0319 -0.2449 -0.1388
  230loPI   C1A 3671   7.528   0.309  10.827 -0.4251  0.2592  0.3044
  230loPI   C2A 3672   7.609   0.280  10.369  0.0460  0.1409 -0.2314
  230loPI   C3A 3673   7.614   0.279   9.993  0.0922 -0.1129 -0.0404
  230loPI   C4A 3674   7.637   0.271   9.584 -0.1908 -0.2193  0.3112
  230loPI   C5A 3675   7.671   0.179   9.141 -0.1079  0.2459  0.2473
  230loPI   C6A 3676   7.573   0.286   8.662 -0.3457 -0.0839  0.2447
  230loPI   C1B 3677   7.719   0.843  10.583  0.3768  0.2505 -0.1570
  230loPI   C2B 3678   7.717   0.738  10.187  0.0939  0.1927 -0.3024
  230loPI   C3B 3679   7.670   0.770   9.674 -0.3954 -0.1214  0.0119
  230loPI   C4B 3680   7.779   0.679   9.276 -0.0930  0.0313  0.0509
  231loPI    C1 3681  12.666  17.295  11.775  0.1088 -0.2831  0.1868
  231loPI    C2 3682  12.806  17.401  12.135  0.0491  0.1272  0.0949
  231loPI    C3 3683  12.437  17.252  12.100  0.0785  0.0256  0.2093
  231loPI   PO4 3684  12.786  17.413  11.614  0.1049  0.0620  0.1323
  231loPI   GL1 3685  12.623  17.532  11.095  0.2201 -0.0088 -0.1338
  231loPI   GL2 3686  12.716  17.847  11.001  0.1860  0.1123  0.1411
  231loPI   C1A 3687  12.549  17.429  10.740 -0.0878 -0.0844  0.4060
  231loPI   C2A 3688  12.502  17.520  10.288  0.1332 -0.0714 -0.0836
  231loPI   C3A 3689  12.551  17.550   9.863 -0.1311  0.0323 -0.2391
  231loPI   C4A 3690  12.465  17.429   9.462  0.0394  0.1773  0.2706
  231loPI   C5A 3691  12.582  17.400   8.979  0.3374 -0.3902 -0.0785
  231loPI   C6A 3692  12.432  17.696   8.731 -0.0645  0.1052 -0.1158
  231loPI   C1B 3693  12.610  17.965  10.629  0.2660 -0.0068  0.1402
  231loPI   C2B 3694  12.626  17.981  10.231 -0.0986 -0.4100 -0.3205
  231loPI   C3B 3695  12.641  18.009   9.768  0.2364 -0.0789 -0.1208
  231loPI   C4B 3696  12.656  17.861   9.369 -0.1452  0.0447 -0.0848
  232loPI    C1 3697   6.914  16.201  11.360  0.1236 -0.0873  0.1115
  232loPI    C2 3698   6.735  15.992  11.650 -0.0302  0.1578  0.1960
  232loPI    C3 3699   7.003  16.273  11.743  0.1553  0.0202  0.0841
  232loPI   PO4 3700   6.998  15.982  11.188 -0.0140  0.4246  0.2036
  232loPI   GL1 3701   7.305  15.905  10.847  0.0076 -0.0786 -0.0135
  232loPI   GL2 3702   7.608  16.033  10.719  0.1338 -0.1585  0.0833
  232loPI   C1A 3703   7.069  15.966  10.423  0.0496  0.1302 -0.1708
  232loPI   C2A 3704   7.017  15.895  10.128 -0.0542 -0.0774 -0.0855
  232loPI   C3A 3705   7.071  15.847   9.751  0.5025  0.2188 -0.3165
  232loPI   C4A 3706   7.082  15.826   9.371 -0.1405 -0.3415 -0.0405
  232loPI   C5A 3707   6.994  15.780   8.939 -0.1983 -0.3568  0.0044
  232loPI   C6A 3708   7.144  15.797   8.545  0.1299  0.0159  0.3713
  232loPI   C1B 3709   7.558  16.073  10.273  0.1056 -0.0399 -0.2046
  232loPI   C2B 3710   7.575  15.979   9.956 -0.1206 -0.3208  0.3314
  232loPI   C3B 3711   7.667  15.950   9.448  0.3069 -0.0491 -0.0219
  232loPI   C4B 3712   7.487  15.936   9.024 -0.0625  0.2695 -0.0653
  233loPI    C1 3713   1.786   2.203  11.141 -0.2377 -0.1920 -0.1680
  233loPI    C2 3714   1.597   1.964  11.399 -0.0699  0.1432  0.2788
  233loPI    C3 3715   1.883   2.212  11.529 -0.0026  0.3434 -0.2293
  233loPI   PO4 3716   1.605   2.317  10.995 -0.1212 -0.1754 -0.1049
  233loPI   GL1 3717   1.375   2.026  10.828 -0.1418  0.0285  0.0532
  233loPI   GL2 3718   1.334   1.855  10.669  0.1119  0.1314  0.1641
  233loPI   C1A 3719   1.555   2.169  10.353 -0.2646 -0.2541 -0.0843
  233loPI   C2A 3720   1.526   2.231  10.038  0.2763  0.1693  0.1387
  233loPI   C3A 3721   1.551   2.288   9.551 -0.1622 -0.1584 -0.0712
  233loPI   C4A 3722   1.580   2.306   9.001 -0.1083  0.0398  0.1694
  233loPI   C5A 3723   1.859   2.184   8.638 -0.0203 -0.3520  0.0324
  233loPI   C6A 3724   1.963   2.021   8.269  0.0502 -0.1113  0.1524
  233loPI   C1B 3725   1.281   1.803  10.252  0.1973 -0.1028 -0.3785
  233loPI   C2B 3726   1.407   1.805   9.822 -0.1981 -0.1762 -0.2216
  233loPI   C3B 3727   1.452   1.809   9.411  0.2687  0.3086 -0.2461
  233loPI   C4B 3728   1.510   1.747   8.926 -0.1910 -0.3608 -0.2407
  234loPI    C1 3729   6.251   1.818  11.585  0.0360  0.0425  0.3047
  234loPI    C2 3730   6.411   1.742  11.944  0.0357 -0.1875  0.2579
  234loPI    C3 3731   6.017   1.703  11.889  0.0280 -0.0967  0.2464
  234loPI   PO4 3732   6.330   1.702  11.402 -0.0739 -0.0739 -0.1905
  234loPI   GL1 3733   6.197   1.549  11.061 -0.0706 -0.2753  0.3537
  234loPI   GL2 3734   5.972   1.802  10.981 -0.2659  0.2370 -0.1731
  234loPI   C1A 3735   6.409   1.353  10.664 -0.1760 -0.1067 -0.1201
  234loPI   C2A 3736   6.429   1.383  10.252 -0.0088  0.2703 -0.2774
  234loPI   C3A 3737   6.448   1.358   9.815  0.0144 -0.1315 -0.1235
  234loPI   C4A 3738   6.433   1.354   9.433  0.0052 -0.0642 -0.3896
  234loPI   C5A 3739   6.771   1.414   9.083 -0.0970 -0.0109 -0.1198
  234loPI   C6A 3740   7.266   1.457   8.949 -0.0756 -0.2690 -0.1461
  234loPI   C1B 3741   5.990   1.671  10.496  0.0198  0.1427 -0.2842
  234loPI   C2B 3742   6.027   1.704  10.129  0.1478  0.1423  0.1704
  234loPI   C3B 3743   6.161   1.745   9.738  0.1852  0.2081 -0.1598
  234loPI   C4B 3744   6.081   1.809   9.326  0.2996  0.1503  0.2266
  235loPI    C1 3745  10.319   7.290  11.729  0.1868  0.1364 -0.2178
  235loPI    C2 3746  10.674   7.424  11.856  0.1059 -0.0246  0.1952
  235loPI    C3 3747  10.352   7.659  11.879  0.1664  0.0914 -0.1011
  235loPI   PO4 3748  10.269   7.112  11.479 -0.3161 -0.1263  0.2833
  235loPI   GL1 3749  10.053   6.909  11.138  0.0923  0.4261 -0.0538
  235loPI   GL2 3750   9.823   6.769  11.203  0.0070  0.2198 -0.0736
  235loPI   C1A 3751   9.999   7.139  10.748 -0.1968  0.1416  0.2396
  235loPI   C2A 3752  10.099   7.244  10.387  0.2593  0.3546  0.1384
  235loPI   C3A 3753  10.020   7.299   9.908  0.1940 -0.0530 -0.2727
  235loPI   C4A 3754  10.028   7.185   9.505 -0.2272  0.4740  0.0369
  235loPI   C5A 3755   9.934   6.890   9.123  0.0673 -0.1805 -0.0998
  235loPI   C6A 3756   9.783   6.999   8.731  0.0833 -0.0164 -0.2431
  235loPI   C1B 3757   9.829   6.687  10.699 -0.0932 -0.0785  0.0500
  235loPI   C2B 3758  10.018   6.746  10.295  0.0929 -0.0625  0.1085
  235loPI   C3B 3759   9.931   6.824   9.929  0.0931  0.1087 -0.1865
  235loPI   C4B 3760   9.902   6.705   9.573 -0.3690  0.2672  0.3031
  236loPI    C1 3761   0.128  12.631  11.793  0.1040  0.0810 -0.0970
  236loPI    C2 3762  -0.083  12.910  11.987 -0.0633 -0.2255  0.1723
  236loPI    C3 3763   0.294  12.831  12.097 -0.1112 -0.3019  0.2838
  236loPI   PO4 3764   0.084  12.670  11.470  0.1583 -0.2651 -0.4199
  236loPI   GL1 3765   0.193  12.452  11.091  0.1737 -0.0038 -0.0088
  236loPI   GL2 3766   0.166  12.082  11.003  0.0497  0.2352  0.0812
  236loPI   C1A 3767   0.087  12.495  10.681 -0.1417 -0.0537 -0.0294
  236loPI   C2A 3768   0.187  12.447  10.254 -0.0819 -0.0433 -0.2724
  236loPI   C3A 3769   0.241  12.490   9.811 -0.1365  0.0490  0.0491
  236loPI   C4A 3770   0.209  12.478   9.369 -0.3043  0.0306  0.2773
  236loPI   C5A 3771   0.323  12.172   8.941  0.0141 -0.0789 -0.3877
  236loPI   C6A 3772   0.547  12.042   8.621  0.2115 -0.2068 -0.2898
  236loPI   C1B 3773  -0.045  12.009  10.551  0.0645 -0.2046 -0.3565
  236loPI   C2B 3774   0.089  11.977  10.131  0.2127  0.0104  0.0909
  236loPI   C3B 3775   0.071  11.991   9.754 -0.1816  0.1396 -0.0216
  236loPI   C4B 3776   0.117  11.901   9.275  0.1038 -0.0454 -0.1775
  237loPI    C1 3777  16.986  10.817  11.579 -0.3113 -0.0465  0.0338
  237loPI    C2 3778  17.174  11.035  11.857  0.0017  0.1288 -0.3065
  237loPI    C3 3779  16.857  10.813  11.957 -0.0230  0.3564  0.1434
  237loPI   PO4 3780  16.953  10.951  11.394  0.2513  0.1493  0.1890
  237loPI   GL1 3781  16.750  11.060  11.071  0.2330 -0.2048 -0.0665
  237loPI   GL2 3782  16.518  11.225  10.966 -0.0859  0.0177 -0.0985
  237loPI   C1A 3783  17.034  11.311  10.671  0.3782 -0.1207  0.0444
  237loPI   C2A 3784  17.042  11.301  10.250  0.0353  0.2832  0.2294
  237loPI   C3A 3785  17.028  11.311   9.814  0.0980 -0.0994  0.2220
  237loPI   C4A 3786  17.081  11.242   9.399  0.3188 -0.1146  0.2292
  237loPI   C5A 3787  17.118  11.210   9.037 -0.2456 -0.1293 -0.1312
  237loPI   C6A 3788  17.191  11.499   8.719  0.0500 -0.2330  0.0478
  237loPI   C1B 3789  16.511  11.110  10.528  0.3391 -0.1150 -0.1418
  237loPI   C2B 3790  16.561  11.130  10.069 -0.0294  0.0443  0.1891
  237loPI   C3B 3791  16.616  11.111   9.624  0.0552  0.0751 -0.0840
  237loPI   C4B 3792  16.558  11.186   9.205 -0.0316  0.4028 -0.2809
  238loPI    C1 3793   9.410   9.923  11.403  0.0155  0.0583 -0.2456
  238loPI    C2 3794   9.452  10.154  11.080 -0.2120  0.4899  0.0243
  238loPI    C3 3795   9.087  10.050  11.206 -0.1170  0.1350  0.0160
  238loPI   PO4 3796   9.600   9.726  11.351  0.1185  0.0140  0.4555
  238loPI   GL1 3797   9.754   9.580  10.913 -0.0371 -0.0725  0.1045
  238loPI   GL2 3798   9.810   9.905  10.842 -0.0195 -0.3438  0.0907
  238loPI   C1A 3799   9.616   9.384  10.500 -0.1888 -0.1045  0.1127
  238loPI   C2A 3800   9.630   9.454  10.082 -0.3507  0.0244 -0.0649
  238loPI   C3A 3801   9.707   9.550   9.672  0.2688  0.3546 -0.1439
  238loPI   C4A 3802   9.565   9.512   9.252 -0.1352  0.3071 -0.0745
  238loPI   C5A 3803   9.330   9.409   8.939  0.2168 -0.2359 -0.1308
  238loPI   C6A 3804   9.136   9.532   8.649 -0.0909 -0.0669  0.1306
  238loPI   C1B 3805   9.845  10.111  10.364  0.1772  0.0957 -0.0445
  238loPI   C2B 3806   9.791   9.994   9.950 -0.1306  0.0661  0.1116
  238loPI   C3B 3807   9.820   9.993   9.606 -0.0054 -0.0840 -0.2130
  238loPI   C4B 3808   9.760   9.955   9.153  0.0027 -0.1830  0.0273
  239loPI    C1 3809   0.406   2.834  11.341 -0.0941  0.1129 -0.0260
  239loPI    C2 3810   0.658   3.071  11.542  0.0364 -0.0183 -0.0332
  239loPI    C3 3811   0.425   2.813  11.740 -0.0161  0.0287 -0.0336
  239loPI   PO4 3812   0.345   2.898  11.157 -0.0693  0.0266 -0.0902
  239loPI   GL1 3813   0.324   2.691  10.813  0.1271 -0.1211 -0.1995
  239loPI   GL2 3814   0.522   2.440  10.727 -0.1041 -0.0135  0.2830
  239loPI   C1A 3815   0.166   2.871  10.393  0.1710  0.1652 -0.2408
  239loPI   C2A 3816   0.245   2.798   9.957 -0.2439  0.3010  0.0472
  239loPI   C3A 3817   0.290   2.867   9.524 -0.0279  0.2712  0.0470
  239loPI   C4A 3818   0.381   2.841   9.165 -0.2121  0.0533 -0.2850
  239loPI   C5A 3819   0.557   3.142   8.817 -0.0758 -0.0874 -0.1742
  239loPI   C6A 3820   0.873   3.312   8.517 -0.1079  0.2978 -0.3715
  239loPI   C1B 3821   0.545   2.525  10.260  0.0855  0.1482  0.2704
  239loPI   C2B 3822   0.691   2.514   9.876 -0.0159  0.0208  0.0560
  239loPI   C3B 3823   0.707   2.469   9.435 -0.0252  0.2465  0.1032
  239loPI   C4B 3824   0.826   2.448   8.959 -0.3609 -0.1136 -0.1555
  240loPI    C1 3825  14.515   9.502  11.529 -0.1369  0.0887 -0.0563
  240loPI    C2 3826  14.461   9.158  11.725 -0.0302  0.0518 -0.0912
  240loPI    C3 3827  14.544   9.493  11.928  0.1084  0.0081 -0.0743
  240loPI   PO4 3828  14.535   9.409  11.264  0.1654 -0.3238  0.1789
  240loPI   GL1 3829  14.206   9.330  10.919 -0.2820  0.0863  0.0949
  240loPI   GL2 3830  14.440   9.108  10.727 -0.0526 -0.2286 -0.1442
  240loPI   C1A 3831  14.257   9.534  10.421  0.1220  0.0256 -0.0710
  240loPI   C2A 3832  14.241   9.427   9.959  0.1117  0.2550 -0.0137
  240loPI   C3A 3833  14.268   9.421   9.574 -0.1895  0.0293  0.2633
  240loPI   C4A 3834  14.254   9.411   9.148  0.1300  0.0234 -0.4096
  240loPI   C5A 3835  14.481   9.641   8.863  0.0475 -0.1302  0.0139
  240loPI   C6A 3836  14.811   9.588   8.556 -0.1436 -0.1059  0.1222
  240loPI   C1B 3837  14.225   9.054  10.334 -0.0563 -0.1678 -0.0928
  240loPI   C2B 3838  14.241   8.949   9.889  0.3363  0.0390 -0.0498
  240loPI   C3B 3839  14.089   8.940   9.470  0.0276 -0.1271 -0.2218
  240loPI   C4B 3840  13.920   8.942   9.122  0.1964 -0.1297 -0.0299
  241loPI    C1 3841  14.724   8.702  11.763 -0.0492 -0.1999 -0.0730
  241loPI    C2 3842  14.912   8.391  11.931 -0.1231 -0.1216  0.1584
  241loPI    C3 3843  14.650   8.605  12.144 -0.1148  0.0658 -0.0163
  241loPI   PO4 3844  14.657   8.566  11.473 -0.0070 -0.1456 -0.3173
  241loPI   GL1 3845  14.832   8.434  11.075  0.0408 -0.0690 -0.1225
  241loPI   GL2 3846  14.593   8.636  10.973  0.5735  0.3713 -0.3246
  241loPI   C1A 3847  14.903   8.490  10.688  0.1998 -0.1122  0.1402
  241loPI   C2A 3848  14.860   8.333  10.302 -0.1095 -0.0004  0.0932
  241loPI   C3A 3849  14.979   8.307   9.844 -0.2190  0.0399  0.1047
  241loPI   C4A 3850  15.306   8.087   9.560 -0.1368  0.2055  0.3816
  241loPI   C5A 3851  15.329   8.096   9.101 -0.0095 -0.3768  0.2932
  241loPI   C6A 3852  15.481   8.056   8.692 -0.2492  0.2325  0.1231
  241loPI   C1B 3853  14.514   8.664  10.504 -0.1987  0.0539 -0.0898
  241loPI   C2B 3854  14.640   8.671  10.059 -0.2579 -0.1028 -0.1162
  241loPI   C3B 3855  14.515   8.619   9.661 -0.2918  0.1522  0.0192
  241loPI   C4B 3856  14.409   8.565   9.199  0.0490 -0.1936  0.0858
  242loPI    C1 3857   9.445   7.377  11.872  0.0452  0.3474 -0.2459
  242loPI    C2 3858   9.815   7.309  12.008 -0.1138  0.0606  0.0578
  242loPI    C3 3859   9.589   7.592  12.178 -0.1197  0.0718  0.0312
  242loPI   PO4 3860   9.422   7.349  11.591 -0.1596  0.1960  0.0495
  242loPI   GL1 3861   9.373   7.076  11.256  0.1910  0.0202  0.0849
  242loPI   GL2 3862   9.185   7.374  11.097 -0.3935  0.1588 -0.1601
  242loPI   C1A 3863   9.460   6.991  10.904  0.1250  0.2516  0.3390
  242loPI   C2A 3864   9.513   7.016  10.576  0.0774 -0.1182  0.1199
  242loPI   C3A 3865   9.644   7.121  10.211  0.0314 -0.1519  0.0491
  242loPI   C4A 3866   9.541   7.137   9.775  0.0296 -0.4019  0.1262
  242loPI   C5A 3867   9.416   7.191   9.460 -0.1745 -0.0782 -0.5329
  242loPI   C6A 3868   9.348   7.296   8.995  0.1216 -0.0614  0.0770
  242loPI   C1B 3869   9.166   7.393  10.605 -0.2396  0.0331  0.2306
  242loPI   C2B 3870   9.171   7.433  10.169 -0.1555  0.0877 -0.2039
  242loPI   C3B 3871   9.201   7.529   9.726 -0.3939 -0.0634  0.1379
  242loPI   C4B 3872   9.221   7.644   9.334  0.1533  0.3225 -0.0841
  243loPI    C1 3873   4.671  14.566  11.711  0.1635 -0.2020 -0.1047
  243loPI    C2 3874   4.545  14.409  12.057  0.1131  0.2888  0.1079
  243loPI    C3 3875   4.935  14.412  11.968  0.1024 -0.0807  0.0321
  243loPI   PO4 3876   4.428  14.434  11.552 -0.2312  0.1451 -0.2326
  243loPI   GL1 3877   4.302  14.341  11.119 -0.3835 -0.1511 -0.3751
  243loPI   GL2 3878   3.970  14.458  10.934  0.2101  0.1326 -0.3403
  243loPI   C1A 3879   4.484  14.595  10.702 -0.4579  0.0861 -0.1650
  243loPI   C2A 3880   4.469  14.571  10.284 -0.3205 -0.1293  0.1206
  243loPI   C3A 3881   4.468  14.646   9.855 -0.3696  0.1541  0.2053
  243loPI   C4A 3882   4.514  14.716   9.380 -0.1732 -0.2473 -0.1231
  243loPI   C5A 3883   4.416  14.697   8.857  0.1201 -0.2972  0.1150
  243loPI   C6A 3884   4.202  15.004   8.602  0.1777 -0.0815  0.0098
  243loPI   C1B 3885   3.960  14.495  10.548  0.2437  0.0628  0.5591
  243loPI   C2B 3886   4.009  14.487  10.091  0.1532 -0.0922  0.0899
  243loPI   C3B 3887   3.926  14.471   9.643  0.0653  0.2688  0.0884
  243loPI   C4B 3888   4.091  14.551   9.240 -0.0940 -0.0968  0.2076
  244loPI    C1 3889   6.915   3.950  11.346 -0.1677 -0.1000  0.0107
  244loPI    C2 3890   6.958   3.732  11.678  0.1788 -0.1319 -0.0507
  244loPI    C3 3891   7.091   4.109  11.668  0.2591 -0.1633 -0.1837
  244loPI   PO4 3892   6.818   3.751  11.174 -0.1378 -0.1021 -0.0694
  244loPI   GL1 3893   6.918   3.410  11.051  0.1263  0.4261  0.0171
  244loPI   GL2 3894   6.785   3.080  11.137  0.3178 -0.2194 -0.2626
  244loPI   C1A 3895   6.908   3.386  10.596  0.0105 -0.0247 -0.1312
  244loPI   C2A 3896   6.873   3.414  10.178 -0.0421  0.1314  0.0281
  244loPI   C3A 3897   6.982   3.573   9.817  0.1149 -0.0782 -0.2392
  244loPI   C4A 3898   6.967   3.539   9.355 -0.1147  0.2610 -0.0687
  244loPI   C5A 3899   6.949   3.615   8.987  0.0424  0.1751 -0.0710
  244loPI   C6A 3900   7.264   3.771   8.654 -0.0945  0.3039 -0.1084
  244loPI   C1B 3901   6.884   2.892  10.776  0.0459 -0.1759  0.0947
  244loPI   C2B 3902   6.842   2.818  10.233  0.2877 -0.1261 -0.0398
  244loPI   C3B 3903   6.787   2.999   9.869  0.1197 -0.4939 -0.1605
  244loPI   C4B 3904   6.833   3.079   9.489 -0.3298  0.1153 -0.0365
  245loPI    C1 3905   4.421   3.950  11.524 -0.1442 -0.1326  0.2403
  245loPI    C2 3906   4.808   3.952  11.622 -0.0241  0.0416 -0.2096
  245loPI    C3 3907   4.642   3.622  11.468 -0.0815 -0.0627  0.0699
  245loPI   PO4 3908   4.384   4.185  11.297 -0.1200 -0.0038  0.0870
  245loPI   GL1 3909   4.345   4.289  10.873  0.2246  0.0883 -0.2356
  245loPI   GL2 3910   4.127   4.224  10.830  0.0411  0.3675  0.3409
  245loPI   C1A 3911   4.610   4.408  10.576  0.1711 -0.0563  0.2285
  245loPI   C2A 3912   4.643   4.200  10.212 -0.2128  0.0858 -0.0085
  245loPI   C3A 3913   4.689   4.262   9.794 -0.0948  0.3532 -0.0067
  245loPI   C4A 3914   4.722   4.260   9.399  0.2060 -0.0054 -0.4069
  245loPI   C5A 3915   4.587   4.227   8.975 -0.0117  0.2343  0.0722
  245loPI   C6A 3916   4.518   4.332   8.633 -0.1584 -0.0546 -0.2556
  245loPI   C1B 3917   4.443   3.879  10.546  0.0832  0.1577  0.1258
  245loPI   C2B 3918   4.541   3.676  10.100 -0.0448 -0.2024  0.1869
  245loPI   C3B 3919   4.662   3.638   9.722 -0.1833 -0.1399 -0.3806
  245loPI   C4B 3920   4.988   3.369   9.688  0.1119  0.1137  0.2313
  246loPI    C1 3921   2.620   1.354  11.554  0.0240 -0.0277 -0.1452
  246loPI    C2 3922   2.483   1.234  11.910  0.0113  0.0628 -0.1192
  246loPI    C3 3923   2.845   1.118  11.785  0.0407  0.0797 -0.0504
  246loPI   PO4 3924   2.461   1.420  11.311  0.0589  0.0938 -0.1118
  246loPI   GL1 3925   2.618   1.459  11.040  0.0333 -0.1236 -0.0302
  246loPI   GL2 3926   2.929   1.538  10.983 -0.3428 -0.1934 -0.0917
  246loPI   C1A 3927   2.609   1.622  10.595  0.1349 -0.2102 -0.2152
  246loPI   C2A 3928   2.729   1.665  10.170 -0.0417 -0.0091  0.3727
  246loPI   C3A 3929   2.859   1.681   9.761  0.0161 -0.1684 -0.0901
  246loPI   C4A 3930   2.947   1.619   9.243  0.0343  0.0686  0.3153
  246loPI   C5A 3931   2.849   1.555   8.756 -0.0359  0.3557 -0.0544
  246loPI   C6A 3932   3.172   1.603   8.418 -0.1653 -0.0346  0.1002
  246loPI   C1B 3933   3.043   1.364  10.662  0.2180  0.2756  0.2838
  246loPI   C2B 3934   3.121   1.309  10.218  0.0130 -0.1435  0.2157
  246loPI   C3B 3935   3.193   1.256   9.779 -0.1160 -0.2088  0.0614
  246loPI   C4B 3936   3.255   1.294   9.490  0.1599 -0.1078 -0.0423
  247loPI    C1 3937   1.745   9.324  11.471  0.1196 -0.0665 -0.0832
  247loPI    C2 3938   2.051   9.360  11.726 -0.0564 -0.2233  0.1544
  247loPI    C3 3939   1.680   9.306  11.865 -0.1963 -0.0237 -0.1305
  247loPI   PO4 3940   1.757   9.442  11.349  0.1188 -0.2694 -0.0974
  247loPI   GL1 3941   1.984   9.777  11.029  0.0694 -0.0150 -0.0148
  247loPI   GL2 3942   2.302   9.709  10.920  0.0383 -0.0847 -0.1587
  247loPI   C1A 3943   1.872  10.065  10.640 -0.1347 -0.0722 -0.0190
  247loPI   C2A 3944   2.001  10.125  10.260  0.0309 -0.0848  0.2015
  247loPI   C3A 3945   1.907  10.175   9.879 -0.2086 -0.0621 -0.0334
  247loPI   C4A 3946   2.035  10.135   9.469 -0.1214  0.1715  0.1622
  247loPI   C5A 3947   1.939  10.116   9.102 -0.1780 -0.1143  0.0456
  247loPI   C6A 3948   1.826  10.107   8.677 -0.1289 -0.1632 -0.3980
  247loPI   C1B 3949   2.230   9.729  10.458 -0.0491  0.1590 -0.2384
  247loPI   C2B 3950   2.348   9.816  10.074  0.0151  0.1628  0.1514
  247loPI   C3B 3951   2.389   9.797   9.674  0.1380 -0.1516 -0.0240
  247loPI   C4B 3952   2.359   9.779   9.270  0.0981  0.0313 -0.2675
  248loPI    C1 3953  15.385  10.166  11.788 -0.1191  0.0489 -0.0343
  248loPI    C2 3954  15.255   9.867  12.020 -0.2604  0.0701 -0.0853
  248loPI    C3 3955  15.638   9.879  11.906 -0.1271  0.1958  0.3549
  248loPI   PO4 3956  15.259  10.151  11.558  0.1966  0.3719  0.0577
  248loPI   GL1 3957  15.241   9.996  11.099 -0.2982 -0.0326  0.1423
  248loPI   GL2 3958  15.208   9.759  10.773 -0.0420  0.0928 -0.0066
  248loPI   C1A 3959  15.705   9.880  10.866 -0.2751 -0.1365 -0.3155
  248loPI   C2A 3960  15.860   9.968  10.387 -0.1382  0.0347  0.1631
  248loPI   C3A 3961  15.860   9.920  10.001  0.3870 -0.1057 -0.2114
  248loPI   C4A 3962  15.806   9.908   9.590 -0.0462 -0.2162  0.1192
  248loPI   C5A 3963  15.593   9.978   9.112 -0.1024  0.1086 -0.0242
  248loPI   C6A 3964  15.490   9.615   8.751 -0.1514  0.1084  0.3868
  248loPI   C1B 3965  15.410   9.776  10.409 -0.2136  0.0270 -0.0374
  248loPI   C2B 3966  15.382   9.818  10.001 -0.1036  0.1227  0.0801
  248loPI   C3B 3967  15.292   9.857   9.567  0.0555  0.2695 -0.0386
  248loPI   C4B 3968  15.165   9.753   9.164  0.1238  0.4809  0.0937
  249loPI    C1 3969  11.975   8.831  11.845  0.2562 -0.0771 -0.1226
  249loPI    C2 3970  11.801   8.748  12.196 -0.0283  0.0112 -0.2392
  249loPI    C3 3971  12.104   9.009  12.179  0.0208 -0.0322 -0.0537
  249loPI   PO4 3972  11.708   8.802  11.650  0.2879  0.2875 -0.0090
  249loPI   GL1 3973  11.638   8.779  11.199  0.1006 -0.1952  0.0182
  249loPI   GL2 3974  11.906   8.587  11.058 -0.2251  0.2646 -0.0720
  249loPI   C1A 3975  11.463   9.009  10.871  0.2768 -0.0705 -0.4411
  249loPI   C2A 3976  11.438   9.028  10.477  0.0240  0.2564 -0.1730
  249loPI   C3A 3977  11.380   9.057   9.982 -0.0577 -0.0905  0.1315
  249loPI   C4A 3978  11.374   9.134   9.647  0.0363  0.2304 -0.0826
  249loPI   C5A 3979  11.398   9.151   9.239  0.0705 -0.1395  0.2543
  249loPI   C6A 3980  11.076   9.314   8.982 -0.0122  0.1335  0.0122
  249loPI   C1B 3981  11.790   8.667  10.639  0.0759  0.3309 -0.1459
  249loPI   C2B 3982  11.815   8.769  10.191  0.1409  0.0693 -0.0521
  249loPI   C3B 3983  11.874   8.673   9.832 -0.2277  0.0015 -0.2108
  249loPI   C4B 3984  11.745   8.844   9.353 -0.1845  0.3957 -0.0035
  250loPI    C1 3985   7.949  17.355  12.037 -0.0881  0.0841 -0.1426
  250loPI    C2 3986   8.048  17.018  12.229 -0.1127  0.0655 -0.1624
  250loPI    C3 3987   7.762  17.256  12.377  0.0739  0.2027 -0.0169
  250loPI   PO4 3988   7.936  17.244  11.659 -0.4923  0.0630 -0.0047
  250loPI   GL1 3989   7.808  17.305  11.317  0.2023 -0.0649  0.0534
  250loPI   GL2 3990   7.953  17.058  11.090  0.0409 -0.0276  0.0603
  250loPI   C1A 3991   7.540  17.436  10.942 -0.1054 -0.0223 -0.0269
  250loPI   C2A 3992   7.427  17.380  10.473  0.1852  0.1274  0.2943
  250loPI   C3A 3993   7.381  17.416  10.066 -0.1808 -0.3016  0.2820
  250loPI   C4A 3994   7.516  17.431   9.630  0.0063 -0.2739 -0.1327
  250loPI   C5A 3995   7.479  17.313   9.167  0.0005  0.0312 -0.1137
  250loPI   C6A 3996   7.546  17.397   8.699 -0.4193 -0.3362 -0.0841
  250loPI   C1B 3997   7.822  17.055  10.596  0.0806  0.1034  0.0828
  250loPI   C2B 3998   7.787  17.037  10.208 -0.0294 -0.1331  0.1235
  250loPI   C3B 3999   7.808  17.065   9.725 -0.2319 -0.0354  0.0060
  250loPI   C4B 4000   7.842  16.932   9.273  0.0249 -0.2244 -0.1305
  251loPI    C1 4001   9.614  15.998  11.738  0.2488 -0.0059 -0.2379
  251loPI    C2 4002   9.808  15.769  12.002 -0.0075  0.0929  0.0428
  251loPI    C3 4003   9.436  15.674  11.890  0.0404  0.1414 -0.1630
  251loPI   PO4 4004   9.858  16.042  11.575 -0.2365 -0.4508 -0.2649
  251loPI   GL1 4005   9.945  16.122  11.117 -0.0887  0.1660  0.1014
  251loPI   GL2 4006  10.034  15.806  11.130  0.0178 -0.1088  0.1084
  251loPI   C1A 4007   9.560  16.070  10.799 -0.3273 -0.0638  0.0283
  251loPI   C2A 4008   9.377  16.001  10.491 -0.5205  0.0617  0.3291
  251loPI   C3A 4009   9.354  15.994   9.953 -0.1235 -0.3627 -0.1914
  251loPI   C4A 4010   9.414  16.028   9.548  0.2926 -0.1287 -0.3785
  251loPI   C5A 4011   9.409  16.134   9.143  0.1807  0.0461  0.1764
  251loPI   C6A 4012   9.647  15.802   8.869 -0.0996 -0.1844 -0.2159
  251loPI   C1B 4013   9.906  15.696  10.720 -0.2094  0.0807  0.1045
  251loPI   C2B 4014   9.753  15.696  10.254 -0.2112 -0.0160 -0.1682
  251loPI   C3B 4015   9.760  15.635   9.747  0.1963 -0.2097  0.0980
  251loPI   C4B 4016   9.794  15.723   9.351  0.1382 -0.2462  0.0085
  252loPI    C1 4017  17.498   6.040  11.242  0.0929  0.1264 -0.2555
  252loPI    C2 4018  17.239   6.142  11.529  0.0429  0.1279 -0.3008
  252loPI    C3 4019  17.632   6.170  11.596  0.0330  0.0329 -0.1980
  252loPI   PO4 4020  17.345   5.977  11.073 -0.0104 -0.0106 -0.0077
  252loPI   GL1 4021  17.468   6.078  10.652  0.1071 -0.0743  0.1287
  252loPI   GL2 4022  17.223   6.334  10.720  0.0861  0.0889 -0.2022
  252loPI   C1A 4023  17.236   5.970  10.244  0.1839  0.1286  0.1563
  252loPI   C2A 4024  17.213   5.976   9.787  0.2171  0.2204  0.2067
  252loPI   C3A 4025  17.257   5.944   9.330  0.2626 -0.0092 -0.2053
  252loPI   C4A 4026  17.100   6.149   8.951  0.0017 -0.1804  0.3713
  252loPI   C5A 4027  17.147   6.602   8.823  0.0143 -0.0071  0.0207
  252loPI   C6A 4028  17.058   7.075   8.763  0.1592  0.0809 -0.1055
  252loPI   C1B 4029  16.996   6.412  10.413  0.0741 -0.0115 -0.2052
  252loPI   C2B 4030  16.796   6.366  10.157  0.1606 -0.2254 -0.0235
  252loPI   C3B 4031  16.866   6.398   9.747  0.3754 -0.1101 -0.0226
  252loPI   C4B 4032  17.032   6.372   9.389 -0.1143 -0.0688  0.1556
  253loPI    C1 4033  11.691  16.341  11.681 -0.3125 -0.2018 -0.0584
  253loPI    C2 4034  11.560  16.124  11.991  0.0625 -0.0405  0.2203
  253loPI    C3 4035  11.381  16.469  11.898  0.0320 -0.0232  0.3419
  253loPI   PO4 4036  11.652  16.160  11.506 -0.0485 -0.0684  0.0980
  253loPI   GL1 4037  11.780  16.075  11.121 -0.2568 -0.0817 -0.1350
  253loPI   GL2 4038  11.848  16.422  11.051  0.2821  0.1839  0.2386
  253loPI   C1A 4039  11.721  15.882  10.671 -0.3827  0.2628  0.0234
  253loPI   C2A 4040  11.607  15.858  10.281 -0.3262 -0.0763  0.2396
  253loPI   C3A 4041  11.696  15.859   9.837  0.1983  0.0601 -0.2522
  253loPI   C4A 4042  11.612  15.711   9.412 -0.3689  0.2528 -0.0280
  253loPI   C5A 4043  11.702  15.781   8.998 -0.0583  0.1777  0.0356
  253loPI   C6A 4044  11.713  15.425   8.706 -0.0271 -0.3248 -0.2078
  253loPI   C1B 4045  11.772  16.358  10.693  0.1713  0.1869  0.3026
  253loPI   C2B 4046  11.844  16.411  10.266  0.0236  0.4311  0.0684
  253loPI   C3B 4047  11.786  16.331   9.834 -0.0429  0.1018  0.0649
  253loPI   C4B 4048  11.727  16.371   9.452 -0.3781 -0.1364  0.0276
  254loPI    C1 4049   8.595   3.192  11.601 -0.0810 -0.2167  0.0083
  254loPI    C2 4050   8.665   2.866  11.821 -0.0596 -0.0182  0.3020
  254loPI    C3 4051   8.498   3.188  11.989 -0.2521  0.0594 -0.0285
  254loPI   PO4 4052   8.464   3.103  11.359  0.1409  0.0985 -0.1379
  254loPI   GL1 4053   8.673   3.111  10.954  0.0518 -0.2383 -0.0269
  254loPI   GL2 4054   8.895   2.904  10.864  0.0241  0.2644  0.0986
  254loPI   C1A 4055   8.378   2.991  10.685 -0.0072 -0.1244  0.0216
  254loPI   C2A 4056   8.256   2.898  10.266 -0.3420  0.0363  0.2257
  254loPI   C3A 4057   8.282   2.875   9.845 -0.1208 -0.0708  0.2849
  254loPI   C4A 4058   8.170   2.858   9.331 -0.0669  0.1035 -0.3799
  254loPI   C5A 4059   8.312   3.075   8.943  0.2355  0.1145  0.1404
  254loPI   C6A 4060   8.297   2.977   8.535  0.2465  0.0372 -0.0660
  254loPI   C1B 4061   8.839   3.051  10.388  0.1830  0.0491 -0.2694
  254loPI   C2B 4062   8.732   2.976  10.007 -0.0328  0.0456 -0.1314
  254loPI   C3B 4063   8.708   2.999   9.608  0.2499  0.1528  0.0204
  254loPI   C4B 4064   8.713   2.879   9.075  0.2955  0.1213  0.0358
  255loPI    C1 4065   3.144  13.204  11.691  0.0208 -0.0802  0.2084
  255loPI    C2 4066   3.303  13.441  11.972  0.1118 -0.1481  0.2145
  255loPI    C3 4067   3.539  13.208  11.748  0.0299 -0.1737  0.1538
  255loPI   PO4 4068   3.044  13.382  11.407 -0.1140  0.1651  0.0731
  255loPI   GL1 4069   2.949  13.293  11.083 -0.0559  0.1230 -0.0745
  255loPI   GL2 4070   3.255  13.334  10.876 -0.0885  0.1545 -0.0031
  255loPI   C1A 4071   2.821  13.163  10.750  0.1302 -0.1867 -0.1156
  255loPI   C2A 4072   2.725  13.112  10.333 -0.0366  0.0606 -0.2614
  255loPI   C3A 4073   2.757  13.159   9.901  0.2357  0.0933  0.0228
  255loPI   C4A 4074   2.735  13.096   9.491  0.1339  0.0143 -0.0894
  255loPI   C5A 4075   2.585  13.238   9.075 -0.1270 -0.0224 -0.2028
  255loPI   C6A 4076   2.373  13.613   8.836 -0.1428 -0.0923 -0.1075
  255loPI   C1B 4077   3.348  13.272  10.410  0.2506 -0.1470  0.0463
  255loPI   C2B 4078   3.251  13.284   9.993 -0.2463 -0.2317  0.2413
  255loPI   C3B 4079   3.195  13.301   9.587  0.0614 -0.0285 -0.0309
  255loPI   C4B 4080   3.034  13.530   9.092  0.0309  0.1003 -0.2305
  256loPI    C1 4081  13.362  14.955  11.558 -0.0290 -0.0725 -0.1470
  256loPI    C2 4082  13.385  14.801  11.927  0.0411 -0.3961 -0.2830
  256loPI    C3 4083  13.034  14.933  11.787  0.0615 -0.0403 -0.0134
  256loPI   PO4 4084  13.405  14.832  11.433 -0.1337  0.4521  0.0114
  256loPI   GL1 4085  13.402  14.847  11.018  0.0670  0.0755 -0.0544
  256loPI   GL2 4086  13.351  15.171  11.097 -0.0226 -0.1983 -0.2001
  256loPI   C1A 4087  13.504  14.573  10.690  0.1864 -0.2275  0.0619
  256loPI   C2A 4088  13.592  14.419  10.329  0.0731 -0.1989 -0.0086
  256loPI   C3A 4089  13.663  14.445   9.962  0.0904  0.0668 -0.2739
  256loPI   C4A 4090  13.659  14.519   9.529 -0.1156  0.2129  0.0056
  256loPI   C5A 4091  13.627  14.454   9.119  0.1353  0.3443 -0.1942
  256loPI   C6A 4092  13.604  14.609   8.705 -0.1485 -0.0725  0.0512
  256loPI   C1B 4093  13.392  15.319  10.642 -0.2328  0.3734 -0.0096
  256loPI   C2B 4094  13.383  15.372  10.205  0.3149  0.2639  0.0840
  256loPI   C3B 4095  13.353  15.330   9.753 -0.2196 -0.0043 -0.2783
  256loPI   C4B 4096  13.358  15.406   9.314 -0.2058  0.0353 -0.0471
  257loPI    C1 4097   0.029  14.948  11.755 -0.2501  0.1319 -0.1122
  257loPI    C2 4098   0.032  14.593  11.940 -0.3701  0.0891 -0.1908
  257loPI    C3 4099   0.004  14.930  12.154  0.2029  0.0781 -0.0811
  257loPI   PO4 4100  -0.147  14.892  11.557  0.1453 -0.4848  0.0274
  257loPI   GL1 4101  -0.096  14.748  11.135 -0.1602 -0.2742  0.1860
  257loPI   GL2 4102   0.282  14.803  11.015  0.2028 -0.0101 -0.4302
  257loPI   C1A 4103  -0.164  14.680  10.652 -0.1038 -0.3253  0.0474
  257loPI   C2A 4104  -0.258  14.649  10.194 -0.0269  0.1347 -0.0493
  257loPI   C3A 4105  -0.143  14.667   9.765  0.0122 -0.0868 -0.1617
  257loPI   C4A 4106  -0.181  14.634   9.327  0.0119 -0.1279  0.0590
  257loPI   C5A 4107  -0.267  14.688   8.806  0.0499 -0.4000 -0.2614
  257loPI   C6A 4108  -0.231  14.696   8.439 -0.1047 -0.0325 -0.0934
  257loPI   C1B 4109   0.330  14.873  10.594  0.2383  0.0642  0.0078
  257loPI   C2B 4110   0.290  14.814  10.140 -0.1469 -0.1825  0.1343
  257loPI   C3B 4111   0.323  14.762   9.714 -0.1271  0.0013  0.1188
  257loPI   C4B 4112   0.321  14.816   9.207  0.3796  0.1442  0.1932
  258loPI    C1 4113  14.054   0.002  11.487 -0.1974 -0.0772 -0.3043
  258loPI    C2 4114  14.294  -0.313  11.540 -0.0366  0.0823 -0.0643
  258loPI    C3 4115  14.197  -0.081  11.851 -0.1181  0.2954 -0.2465
  258loPI   PO4 4116  14.002   0.143  11.151 -0.3761  0.2314 -0.0844
  258loPI   GL1 4117  13.965   0.472  10.839  0.2104 -0.1503  0.0922
  258loPI   GL2 4118  14.339   0.477  10.831  0.1027  0.2095  0.3509
  258loPI   C1A 4119  14.034   0.336  10.432  0.3059 -0.0267 -0.0804
  258loPI   C2A 4120  14.040   0.240  10.016 -0.2491  0.0022 -0.2000
  258loPI   C3A 4121  14.028   0.266   9.584 -0.2577  0.0338  0.0846
  258loPI   C4A 4122  14.069   0.204   9.200 -0.1936 -0.1542 -0.1556
  258loPI   C5A 4123  14.137   0.089   8.751 -0.0041 -0.2636 -0.1579
  258loPI   C6A 4124  14.531   0.248   8.504  0.1020  0.3399  0.0993
  258loPI   C1B 4125  14.497   0.434  10.528  0.0291  0.1414  0.3475
  258loPI   C2B 4126  14.517   0.388  10.133  0.2341 -0.1777  0.5276
  258loPI   C3B 4127  14.507   0.383   9.676 -0.2183  0.0348  0.0433
  258loPI   C4B 4128  14.534   0.350   9.274 -0.0545  0.2659 -0.0065
  259loPI    C1 4129  14.051  11.021  11.439 -0.2199 -0.2497  0.1975
  259loPI    C2 4130  14.081  11.231  11.778  0.2354  0.0876 -0.0407
  259loPI    C3 4131  14.067  10.831  11.791 -0.1641  0.1062  0.3914
  259loPI   PO4 4132  14.181  11.156  11.306 -0.0479 -0.0610 -0.1242
  259loPI   GL1 4133  14.042  11.359  10.953  0.0584  0.2829  0.1136
  259loPI   GL2 4134  14.109  10.994  10.721 -0.2247  0.0074 -0.1892
  259loPI   C1A 4135  14.232  11.416  10.480  0.2425 -0.0440 -0.0323
  259loPI   C2A 4136  14.197  11.391   9.986  0.0414 -0.0603 -0.1001
  259loPI   C3A 4137  14.342  11.417   9.564  0.0361 -0.0115  0.1558
  259loPI   C4A 4138  14.281  11.476   9.173  0.1449 -0.1700 -0.1249
  259loPI   C5A 4139  13.953  11.691   8.853 -0.0751 -0.2225  0.0988
  259loPI   C6A 4140  13.783  12.077   8.795 -0.1164  0.0460 -0.3305
  259loPI   C1B 4141  14.100  10.853  10.295  0.0876 -0.0396 -0.1274
  259loPI   C2B 4142  14.193  10.919   9.857  0.0542  0.2120 -0.1539
  259loPI   C3B 4143  14.166  10.849   9.474 -0.1700  0.0250  0.3928
  259loPI   C4B 4144  14.271  10.997   9.072  0.2025 -0.3001 -0.0184
  260loPI    C1 4145   1.054   8.671  11.005 -0.3157  0.1587  0.1151
  260loPI    C2 4146   1.123   8.612  11.395 -0.0881 -0.1490  0.0326
  260loPI    C3 4147   1.319   8.394  11.122 -0.0267  0.2658 -0.2646
  260loPI   PO4 4148   0.796   8.599  10.968  0.0587 -0.1807  0.2535
  260loPI   GL1 4149   0.477   8.692  10.588  0.4930  0.2532  0.0878
  260loPI   GL2 4150   0.479   8.446  10.556 -0.0185  0.0924  0.2400
  260loPI   C1A 4151   0.584   8.803  10.094 -0.0429  0.0651  0.0433
  260loPI   C2A 4152   0.687   8.841   9.630 -0.0441 -0.2727 -0.0395
  260loPI   C3A 4153   0.873   8.740   9.230  0.1599 -0.0257  0.0404
  260loPI   C4A 4154   0.920   8.809   8.791  0.1144  0.2379  0.4987
  260loPI   C5A 4155   0.784   8.814   8.470  0.0564 -0.1041 -0.2001
  260loPI   C6A 4156   0.510   8.976   8.235  0.0981 -0.0788  0.1099
  260loPI   C1B 4157   0.756   8.339  10.263 -0.0586  0.1872 -0.3116
  260loPI   C2B 4158   1.192   8.309   9.937 -0.3758 -0.1474 -0.2289
  260loPI   C3B 4159   1.210   8.361   9.484  0.3180  0.0962  0.0291
  260loPI   C4B 4160   1.261   8.400   9.088 -0.3788  0.0063 -0.0601
  261loPI    C1 4161   7.096   1.193  11.768  0.0950 -0.2702 -0.2490
  261loPI    C2 4162   7.221   1.277  12.139 -0.1012  0.1287 -0.2679
  261loPI    C3 4163   6.996   0.953  12.072  0.0343 -0.0105 -0.0605
  261loPI   PO4 4164   7.335   1.230  11.621  0.0408  0.1710  0.0715
  261loPI   GL1 4165   7.279   1.059  11.254  0.1133 -0.1069  0.1239
  261loPI   GL2 4166   6.907   1.106  11.237 -0.1876 -0.2656  0.0009
  261loPI   C1A 4167   7.307   1.300  10.908 -0.0145  0.1808 -0.2334
  261loPI   C2A 4168   7.416   1.217  10.479  0.2689  0.2705 -0.0694
  261loPI   C3A 4169   7.307   1.086  10.201 -0.1059 -0.3027  0.2732
  261loPI   C4A 4170   7.345   1.143   9.716  0.4168  0.2000  0.0019
  261loPI   C5A 4171   7.238   1.025   9.225 -0.1186  0.0981 -0.2916
  261loPI   C6A 4172   6.929   0.931   9.008  0.0388  0.0185  0.1326
  261loPI   C1B 4173   6.776   0.971  10.779 -0.3310 -0.5245 -0.3065
  261loPI   C2B 4174   6.890   0.914  10.461 -0.0176 -0.0306  0.1352
  261loPI   C3B 4175   6.852   0.957   9.954 -0.0396 -0.2970  0.2945
  261loPI   C4B 4176   6.809   0.999   9.523  0.0429  0.0621  0.0012
  262loPI    C1 4177   1.290  15.019  11.365 -0.0354  0.1151 -0.0876
  262loPI    C2 4178   1.277  14.881  11.740 -0.0559  0.0744 -0.1033
  262loPI    C3 4179   0.964  15.078  11.589 -0.0945 -0.0136 -0.1388
  262loPI   PO4 4180   1.556  14.956  11.310  0.0005 -0.0320  0.0759
  262loPI   GL1 4181   1.824  14.994  11.010  0.3041 -0.0629  0.0787
  262loPI   GL2 4182   1.769  15.235  10.868 -0.3137  0.1994  0.0587
  262loPI   C1A 4183   1.651  14.851  10.579 -0.0902  0.1254  0.2371
  262loPI   C2A 4184   1.576  14.720  10.183  0.1325 -0.2998 -0.2884
  262loPI   C3A 4185   1.735  14.732   9.678  0.0402 -0.1395 -0.3672
  262loPI   C4A 4186   1.700  14.689   9.281  0.2315  0.2205  0.0309
  262loPI   C5A 4187   1.746  14.717   8.797 -0.4403  0.0572  0.0899
  262loPI   C6A 4188   1.468  14.680   8.443  0.3671  0.1031 -0.4096
  262loPI   C1B 4189   1.806  15.265  10.392 -0.1405 -0.3018 -0.0723
  262loPI   C2B 4190   1.752  15.162   9.959 -0.0865  0.0994  0.1464
  262loPI   C3B 4191   1.835  15.193   9.474 -0.1694 -0.1862  0.1187
  262loPI   C4B 4192   1.851  15.132   9.113  0.2632 -0.1596  0.3582
  263loPI    C1 4193   8.805   1.197  11.769 -0.0858  0.1385 -0.1424
  263loPI    C2 4194   8.430   1.061  11.738 -0.0476 -0.0142  0.0484
  263loPI    C3 4195   8.561   1.209  12.085  0.1631 -0.2493  0.0725
  263loPI   PO4 4196   8.821   1.326  11.539 -0.2073 -0.2950 -0.0166
  263loPI   GL1 4197   8.901   1.606  11.253  0.2884  0.2397 -0.2978
  263loPI   GL2 4198   9.170   1.875  11.294  0.0108  0.1894 -0.1125
  263loPI   C1A 4199   8.857   1.645  10.750 -0.0755 -0.0122 -0.0175
  263loPI   C2A 4200   8.746   1.579  10.409  0.2796  0.1397 -0.0656
  263loPI   C3A 4201   8.734   1.536   9.918 -0.2742 -0.0899 -0.0076
  263loPI   C4A 4202   8.821   1.643   9.528 -0.0737  0.3399  0.0057
  263loPI   C5A 4203   8.717   1.747   9.045 -0.1446  0.1572  0.0056
  263loPI   C6A 4204   8.319   1.853   8.827  0.0530 -0.0963 -0.3922
  263loPI   C1B 4205   9.258   1.871  10.860  0.1548 -0.0235 -0.4102
  263loPI   C2B 4206   9.240   1.718  10.366  0.0858 -0.1782 -0.1015
  263loPI   C3B 4207   9.290   1.797   9.980 -0.0239  0.2120  0.4590
  263loPI   C4B 4208   9.366   1.814   9.554  0.1675 -0.1723 -0.4320
  264loPI    C1 4209   8.247  12.063  11.460 -0.1454  0.1310 -0.2860
  264loPI    C2 4210   8.595  11.872  11.409 -0.1196  0.1429 -0.1594
  264loPI    C3 4211   8.438  11.906  11.775 -0.3420 -0.0146 -0.2376
  264loPI   PO4 4212   8.080  11.987  11.262 -0.2589  0.2169  0.1713
  264loPI   GL1 4213   7.919  12.103  10.898 -0.0840 -0.1655 -0.0396
  264loPI   GL2 4214   7.984  12.306  10.738 -0.0959  0.0091 -0.1240
  264loPI   C1A 4215   7.756  11.877  10.500 -0.1635 -0.0400  0.1637
  264loPI   C2A 4216   7.847  11.729  10.136 -0.2280  0.1534  0.1003
  264loPI   C3A 4217   7.917  11.798   9.741 -0.0508 -0.0329  0.3150
  264loPI   C4A 4218   7.997  11.806   9.300  0.1386 -0.1200 -0.4053
  264loPI   C5A 4219   7.962  11.787   8.904 -0.4106  0.1505 -0.3381
  264loPI   C6A 4220   7.799  12.145   8.685  0.1699  0.1757 -0.0575
  264loPI   C1B 4221   8.072  12.278  10.321  0.3518 -0.0099  0.2208
  264loPI   C2B 4222   8.115  12.289   9.824 -0.0242  0.2127 -0.0168
  264loPI   C3B 4223   8.119  12.234   9.437 -0.0951 -0.0045 -0.0634
  264loPI   C4B 4224   8.095  12.378   9.014 -0.1461  0.4152  0.1013
  265loPI    C1 4225   0.917   2.622  11.604 -0.2783  0.1896  0.0818
  265loPI    C2 4226   1.048   2.883  11.876  0.0730  0.0491  0.0530
  265loPI    C3 4227   1.046   2.492  11.959 -0.0992  0.0292 -0.0398
  265loPI   PO4 4228   0.997   2.737  11.396  0.1756 -0.1206  0.1097
  265loPI   GL1 4229   0.834   3.090  11.039  0.0567  0.1336 -0.0383
  265loPI   GL2 4230   0.809   2.792  10.934  0.2660  0.3674 -0.1969
  265loPI   C1A 4231   1.143   3.133  10.638 -0.0350  0.1778  0.2524
  265loPI   C2A 4232   1.196   3.109  10.222  0.2066  0.1496 -0.2160
  265loPI   C3A 4233   1.331   3.135   9.775 -0.0462 -0.0996 -0.0926
  265loPI   C4A 4234   1.250   3.103   9.409 -0.0219 -0.3726  0.4442
  265loPI   C5A 4235   1.314   3.155   8.971  0.2828 -0.0904 -0.1222
  265loPI   C6A 4236   1.608   3.233   8.816  0.1124 -0.1678 -0.1120
  265loPI   C1B 4237   0.675   2.937  10.505  0.2070 -0.1146  0.0296
  265loPI   C2B 4238   0.777   2.949  10.091  0.0852 -0.1547  0.0979
  265loPI   C3B 4239   0.777   3.026   9.673  0.0272 -0.0703 -0.0000
  265loPI   C4B 4240   0.851   2.919   9.266  0.0892 -0.1358  0.1482
  266loPI    C1 4241   2.491   8.834  11.488  0.1624 -0.1581  0.1137
  266loPI    C2 4242   2.322   8.939  11.835  0.1226 -0.3075  0.1404
  266loPI    C3 4243   2.630   9.150  11.690 -0.1432  0.0239  0.0446
  266loPI   PO4 4244   2.390   8.814  11.247 -0.2848  0.2214 -0.3328
  266loPI   GL1 4245   2.359   9.050  10.863 -0.3098  0.1937  0.1014
  266loPI   GL2 4246   2.079   8.788  10.666  0.3818 -0.3055  0.0719
  266loPI   C1A 4247   2.550   8.948  10.417 -0.0904 -0.1541  0.0442
  266loPI   C2A 4248   2.572   8.850  10.050  0.2404 -0.0921 -0.0238
  266loPI   C3A 4249   2.595   8.989   9.644 -0.2229 -0.0218  0.1843
  266loPI   C4A 4250   2.599   8.904   9.208 -0.2441  0.1149 -0.2748
  266loPI   C5A 4251   2.656   9.045   8.824  0.1236 -0.3684  0.3001
  266loPI   C6A 4252   2.821   8.872   8.470  0.2597 -0.4532 -0.1204
  266loPI   C1B 4253   2.009   8.766  10.280 -0.0832  0.0381  0.3793
  266loPI   C2B 4254   2.073   8.761   9.893  0.0659  0.2005  0.0974
  266loPI   C3B 4255   2.125   8.851   9.497 -0.0430  0.2304  0.1229
  266loPI   C4B 4256   2.187   8.817   8.983 -0.0283  0.0275  0.1603
  267loPI    C1 4257  16.016  13.517  11.629  0.1328  0.2069  0.1709
  267loPI    C2 4258  16.074  13.891  11.758 -0.1698  0.1928  0.3581
  267loPI    C3 4259  15.775  13.672  11.907 -0.2328  0.0070 -0.0269
  267loPI   PO4 4260  16.104  13.553  11.361 -0.0696  0.0340  0.2800
  267loPI   GL1 4261  16.156  13.678  11.009  0.0066  0.0278 -0.2057
  267loPI   GL2 4262  16.121  13.413  10.893  0.0468  0.1930 -0.2492
  267loPI   C1A 4263  16.338  13.770  10.686 -0.0881  0.1847 -0.0917
  267loPI   C2A 4264  16.237  13.815  10.259 -0.3138 -0.3865 -0.0905
  267loPI   C3A 4265  16.231  13.874   9.860 -0.0291  0.0886  0.1399
  267loPI   C4A 4266  16.207  13.881   9.438 -0.0393  0.0091 -0.2887
  267loPI   C5A 4267  16.309  13.914   9.035 -0.0979  0.2668  0.1386
  267loPI   C6A 4268  16.381  14.008   8.588  0.2433 -0.0875 -0.1555
  267loPI   C1B 4269  16.154  13.360  10.437  0.3334 -0.0078 -0.0294
  267loPI   C2B 4270  16.214  13.376   9.966  0.1701  0.1461 -0.0865
  267loPI   C3B 4271  16.122  13.377   9.530  0.0002  0.2903 -0.0384
  267loPI   C4B 4272  16.236  13.429   9.145 -0.3080  0.1779 -0.1189
  268loPI    C1 4273  10.912   3.836  11.370  0.0712 -0.4775 -0.0597
  268loPI    C2 4274  10.713   3.648  11.661 -0.0614 -0.1196  0.0873
  268loPI    C3 4275  10.943   3.963  11.748  0.1339 -0.1908 -0.1588
  268loPI   PO4 4276  10.920   3.697  11.166 -0.0153  0.0896 -0.0887
  268loPI   GL1 4277  10.668   3.487  10.822  0.0473  0.1745 -0.3336
  268loPI   GL2 4278  10.937   3.275  10.781  0.0271  0.2701  0.0941
  268loPI   C1A 4279  10.702   3.539  10.422  0.0340 -0.0376 -0.0914
  268loPI   C2A 4280  10.648   3.618  10.076 -0.0070 -0.2761 -0.0710
  268loPI   C3A 4281  10.749   3.640   9.648  0.2221 -0.1603 -0.2670
  268loPI   C4A 4282  10.703   3.747   9.177 -0.0176 -0.1140 -0.0576
  268loPI   C5A 4283  10.489   3.712   8.784  0.0890 -0.1061 -0.2136
  268loPI   C6A 4284  10.290   3.325   8.619 -0.0861  0.0865 -0.0551
  268loPI   C1B 4285  11.108   3.143  10.438 -0.0525 -0.3863  0.1065
  268loPI   C2B 4286  11.084   3.122  10.013 -0.1849 -0.4712  0.1071
  268loPI   C3B 4287  11.045   3.197   9.605 -0.3292 -0.0091  0.0976
  268loPI   C4B 4288  11.120   3.440   9.279  0.2544 -0.0320 -0.2673
  269loPI    C1 4289   3.431  13.688  11.465  0.0476  0.1181 -0.2395
  269loPI    C2 4290   3.423  14.080  11.542 -0.0562  0.0861 -0.0827
  269loPI    C3 4291   3.137  13.842  11.688  0.0817 -0.0688 -0.0623
  269loPI   PO4 4292   3.763  13.741  11.262  0.3095 -0.0922  0.1602
  269loPI   GL1 4293   3.791  13.920  10.885 -0.3401  0.3302 -0.1952
  269loPI   GL2 4294   4.023  13.991  10.943 -0.2381 -0.1262  0.1808
  269loPI   C1A 4295   3.897  13.930  10.435 -0.2621 -0.1979  0.2535
  269loPI   C2A 4296   3.887  13.972  10.032 -0.3140 -0.0180  0.2143
  269loPI   C3A 4297   3.842  13.948   9.692 -0.1308  0.0432 -0.1312
  269loPI   C4A 4298   3.886  14.058   9.247  0.1114  0.0910 -0.0065
  269loPI   C5A 4299   4.181  14.158   8.895 -0.1638  0.0855  0.0045
  269loPI   C6A 4300   4.345  14.311   8.517  0.0206 -0.0542  0.0965
  269loPI   C1B 4301   4.339  14.023  10.666 -0.0462  0.5757  0.0240
  269loPI   C2B 4302   4.329  14.075  10.225 -0.0777  0.1667 -0.1308
  269loPI   C3B 4303   4.359  14.163   9.813 -0.0344  0.2073  0.1952
  269loPI   C4B 4304   4.391  14.157   9.371 -0.2639 -0.2139 -0.0118
  270loPI    C1 4305  11.428  11.635  11.617 -0.1158  0.0785  0.1849
  270loPI    C2 4306  11.412  11.236  11.632 -0.0045  0.0557 -0.1979
  270loPI    C3 4307  11.082  11.452  11.697 -0.1079 -0.1057 -0.1812
  270loPI   PO4 4308  11.636  11.660  11.343 -0.3588 -0.5097 -0.0538
  270loPI   GL1 4309  11.529  11.497  10.919  0.1453  0.4310 -0.0425
  270loPI   GL2 4310  11.867  11.610  10.817  0.1133  0.0758  0.2368
  270loPI   C1A 4311  11.426  11.301  10.512 -0.2076  0.1110  0.1965
  270loPI   C2A 4312  11.501  11.423  10.110 -0.3244  0.1416 -0.0894
  270loPI   C3A 4313  11.657  11.510   9.597 -0.3373 -0.0151  0.0977
  270loPI   C4A 4314  11.752  11.476   9.142 -0.0504  0.2546 -0.2750
  270loPI   C5A 4315  11.944  11.438   8.688  0.2224  0.2796  0.1290
  270loPI   C6A 4316  11.742  11.699   8.351  0.1090 -0.0875 -0.1904
  270loPI   C1B 4317  11.949  11.600  10.381 -0.3098 -0.0719 -0.1938
  270loPI   C2B 4318  11.995  11.718   9.916 -0.0286  0.1912  0.0291
  270loPI   C3B 4319  12.140  11.644   9.499 -0.3580  0.0601  0.2424
  270loPI   C4B 4320  12.217  11.730   9.081  0.1446  0.1514 -0.2202
  271loPI    C1 4321  16.752   3.948  11.242  0.1580  0.0124  0.1752
  271loPI    C2 4322  16.749   4.287  11.454 -0.0170  0.1881 -0.1024
  271loPI    C3 4323  16.405   4.099  11.372  0.0914 -0.1481  0.1871
  271loPI   PO4 4324  16.859   4.072  10.996  0.0891  0.3025 -0.0693
  271loPI   GL1 4325  16.839   4.202  10.624  0.0547  0.0137  0.1886
  271loPI   GL2 4326  16.595   3.984  10.580 -0.2307  0.2300 -0.0187
  271loPI   C1A 4327  16.865   4.400  10.251  0.2771  0.1740  0.3186
  271loPI   C2A 4328  16.920   4.454   9.894  0.2421  0.0509 -0.1133
  271loPI   C3A 4329  16.779   4.526   9.594  0.3371 -0.1322  0.4245
  271loPI   C4A 4330  16.752   4.425   9.261  0.0954  0.0190  0.1284
  271loPI   C5A 4331  16.629   4.649   8.851  0.3645 -0.1918 -0.0929
  271loPI   C6A 4332  16.432   4.602   8.449 -0.0314  0.0717 -0.0997
  271loPI   C1B 4333  16.725   3.897  10.203 -0.0623  0.2627  0.2371
  271loPI   C2B 4334  16.765   3.992   9.658 -0.0472 -0.1889  0.0148
  271loPI   C3B 4335  16.669   3.984   9.076  0.0712  0.0202  0.0808
  271loPI   C4B 4336  16.332   4.120   8.734  0.4000  0.2149  0.2195
  272loPI    C1 4337  14.495  16.385  11.615  0.1575  0.1201 -0.2152
  272loPI    C2 4338  14.690  16.300  11.954  0.0901 -0.0703 -0.2231
  272loPI    C3 4339  14.667  16.679  11.826  0.0381  0.0154  0.0326
  272loPI   PO4 4340  14.636  16.243  11.435 -0.2244 -0.1907  0.0726
  272loPI   GL1 4341  14.659  16.277  11.067 -0.2104  0.1124  0.3198
  272loPI   GL2 4342  14.702  16.534  10.877 -0.0983  0.0842  0.2424
  272loPI   C1A 4343  14.524  16.110  10.648 -0.0080 -0.3583  0.3152
  272loPI   C2A 4344  14.568  16.158  10.220 -0.2228  0.2173 -0.3842
  272loPI   C3A 4345  14.588  16.111   9.702  0.1160  0.0653 -0.0699
  272loPI   C4A 4346  14.567  16.156   9.182  0.1126  0.0674  0.1311
  272loPI   C5A 4347  14.509  16.070   8.760  0.2776  0.3569 -0.3114
  272loPI   C6A 4348  14.175  16.204   8.419  0.1076 -0.1254  0.2550
  272loPI   C1B 4349  14.600  16.610  10.385  0.0279 -0.0620 -0.1856
  272loPI   C2B 4350  14.684  16.570   9.967  0.0055  0.2552 -0.2995
  272loPI   C3B 4351  14.658  16.666   9.609 -0.0816 -0.0899 -0.0583
  272loPI   C4B 4352  14.609  16.707   9.139  0.0396  0.1385  0.1513
  273loPI    C1 4353  16.911  10.264  11.367  0.0719 -0.1237 -0.0794
  273loPI    C2 4354  16.809   9.989  11.640 -0.1042 -0.1000 -0.1204
  273loPI    C3 4355  16.773  10.379  11.724  0.4041 -0.0809  0.0386
  273loPI   PO4 4356  16.775  10.135  11.161 -0.2015 -0.1477 -0.0624
  273loPI   GL1 4357  16.476  10.092  10.879 -0.0180 -0.4359 -0.1292
  273loPI   GL2 4358  16.236  10.066  10.650  0.2032 -0.3097  0.1416
  273loPI   C1A 4359  16.672  10.247  10.515 -0.0257  0.0954  0.0898
  273loPI   C2A 4360  16.746  10.264  10.022  0.0601 -0.0392 -0.1202
  273loPI   C3A 4361  16.868  10.267   9.623 -0.0233  0.1546  0.1764
  273loPI   C4A 4362  16.844  10.350   9.106  0.0641  0.3219 -0.0322
  273loPI   C5A 4363  16.915  10.612   8.835 -0.2322 -0.3857  0.0448
  273loPI   C6A 4364  17.226  10.720   8.672 -0.1093 -0.1072 -0.0396
  273loPI   C1B 4365  16.319  10.143  10.175 -0.2018  0.3344 -0.2136
  273loPI   C2B 4366  16.368  10.096   9.758 -0.0347  0.0412 -0.1235
  273loPI   C3B 4367  16.312  10.210   9.312 -0.1585  0.0658  0.0937
  273loPI   C4B 4368  16.251  10.160   8.833  0.0534  0.0333  0.3026
  274loPI    C1 4369   7.037   6.595  11.677  0.1480  0.1493  0.0461
  274loPI    C2 4370   6.802   6.546  11.996  0.1289 -0.0633  0.0007
  274loPI    C3 4371   7.198   6.571  12.042  0.1278 -0.1151  0.0394
  274loPI   PO4 4372   6.873   6.631  11.441  0.2196  0.0911  0.0299
  274loPI   GL1 4373   6.993   6.678  10.942 -0.0857  0.0001 -0.3021
  274loPI   GL2 4374   7.000   6.367  10.781  0.0892 -0.4502 -0.2240
  274loPI   C1A 4375   7.248   6.819  10.519  0.1427 -0.1925 -0.1627
  274loPI   C2A 4376   7.091   6.807  10.127  0.0037 -0.2920  0.0029
  274loPI   C3A 4377   7.211   6.932   9.731 -0.0594 -0.0130 -0.1234
  274loPI   C4A 4378   7.220   6.984   9.309  0.4730  0.1958  0.0696
  274loPI   C5A 4379   7.106   6.764   8.865  0.1006  0.1458 -0.1587
  274loPI   C6A 4380   6.934   6.477   8.671 -0.4067 -0.0116  0.1900
  274loPI   C1B 4381   7.056   6.371  10.332 -0.1693  0.3823  0.0853
  274loPI   C2B 4382   7.071   6.323   9.922  0.0041 -0.1124 -0.0244
  274loPI   C3B 4383   7.120   6.412   9.488  0.0901 -0.1977 -0.1579
  274loPI   C4B 4384   7.155   6.334   9.045 -0.3253  0.1034 -0.2107
  275loPI    C1 4385  16.360  12.688  11.692  0.0029 -0.1833  0.1492
  275loPI    C2 4386  16.206  13.054  11.739  0.0144 -0.1684  0.0718
  275loPI    C3 4387  16.404  12.880  12.040  0.0185 -0.1065  0.1049
  275loPI   PO4 4388  16.374  12.694  11.413  0.2369  0.0083  0.0066
  275loPI   GL1 4389  16.451  12.445  11.040 -0.0093  0.2830 -0.0950
  275loPI   GL2 4390  16.326  12.207  11.002 -0.1800  0.1980 -0.2453
  275loPI   C1A 4391  16.363  12.585  10.641  0.0118 -0.1364  0.1290
  275loPI   C2A 4392  16.367  12.455  10.204 -0.0386  0.1336  0.0761
  275loPI   C3A 4393  16.425  12.525   9.774 -0.0487 -0.1633 -0.0254
  275loPI   C4A 4394  16.470  12.510   9.390 -0.1352  0.0218 -0.1295
  275loPI   C5A 4395  16.495  12.491   8.901  0.2216 -0.1357 -0.2203
  275loPI   C6A 4396  16.665  12.484   8.548  0.1807  0.2252  0.0389
  275loPI   C1B 4397  16.306  12.056  10.551 -0.1737 -0.1607 -0.1034
  275loPI   C2B 4398  16.319  11.909  10.091 -0.0694 -0.0094  0.3781
  275loPI   C3B 4399  16.333  11.999   9.614 -0.0013 -0.0119  0.3295
  275loPI   C4B 4400  16.437  12.004   9.155 -0.0001  0.2497 -0.2149
  276loPI    C1 4401  13.452  12.175  11.619  0.0315  0.1981 -0.1143
  276loPI    C2 4402  13.694  12.493  11.630 -0.2841  0.4424 -0.0972
  276loPI    C3 4403  13.479  12.394  11.952  0.1918 -0.0971  0.0717
  276loPI   PO4 4404  13.535  11.975  11.462 -0.1845 -0.0481  0.1730
  276loPI   GL1 4405  13.491  12.087  10.960  0.3721  0.2610  0.0785
  276loPI   GL2 4406  13.753  11.767  11.030 -0.0946  0.0096 -0.0388
  276loPI   C1A 4407  13.578  12.113  10.511 -0.1546 -0.1917 -0.1531
  276loPI   C2A 4408  13.639  12.050  10.093 -0.0020 -0.1920 -0.0686
  276loPI   C3A 4409  13.567  12.081   9.670  0.0924  0.1337  0.0231
  276loPI   C4A 4410  13.565  12.003   9.215  0.1844  0.1684 -0.0064
  276loPI   C5A 4411  13.382  12.307   8.958 -0.2069 -0.0406 -0.1357
  276loPI   C6A 4412  13.084  12.509   8.647 -0.1261  0.0671  0.0429
  276loPI   C1B 4413  13.871  11.742  10.667 -0.2311  0.0231 -0.0590
  276loPI   C2B 4414  13.960  11.749  10.220  0.0303 -0.0243 -0.2541
  276loPI   C3B 4415  13.891  11.748   9.820  0.3418  0.0048 -0.1304
  276loPI   C4B 4416  13.938  11.801   9.406 -0.1806 -0.2006  0.0917
  277loPI    C1 4417   1.607   1.411  11.431 -0.0508 -0.0262 -0.1711
  277loPI    C2 4418   1.331   1.621  11.631  0.1286  0.1866 -0.1435
  277loPI    C3 4419   1.606   1.411  11.831 -0.0810 -0.1208 -0.1710
  277loPI   PO4 4420   1.572   1.281  11.231 -0.1275  0.3295 -0.0960
  277loPI   GL1 4421   1.705   1.513  10.905 -0.4131  0.2094  0.1737
  277loPI   GL2 4422   1.787   1.726  11.007 -0.1366 -0.1464 -0.1399
  277loPI   C1A 4423   1.575   1.514  10.488 -0.2160  0.1397  0.0227
  277loPI   C2A 4424   1.646   1.483  10.106 -0.0328  0.0122  0.2723
  277loPI   C3A 4425   1.812   1.465   9.792  0.1102 -0.1697  0.2761
  277loPI   C4A 4426   1.852   1.490   9.369 -0.0894  0.0048  0.0700
  277loPI   C5A 4427   1.813   1.373   9.004  0.2702 -0.0975 -0.4588
  277loPI   C6A 4428   1.809   1.264   8.541  0.1910 -0.0414  0.0610
  277loPI   C1B 4429   1.834   1.876  10.575  0.2371  0.0187 -0.2143
  277loPI   C2B 4430   1.910   1.913  10.056 -0.3162  0.2810 -0.3834
  277loPI   C3B 4431   1.951   1.941   9.614 -0.3834  0.1512  0.0820
  277loPI   C4B 4432   1.907   1.944   9.132 -0.2740  0.3978  0.0537
  278loPI    C1 4433   0.244   7.799  11.229  0.0774 -0.0806 -0.1682
  278loPI    C2 4434   0.553   7.785  11.483 -0.1420 -0.1397  0.1006
  278loPI    C3 4435   0.261   8.053  11.537 -0.2074 -0.1748 -0.0711
  278loPI   PO4 4436   0.369   7.812  10.969 -0.0122 -0.0873 -0.3359
  278loPI   GL1 4437   0.400   7.945  10.641  0.0143 -0.2480  0.0639
  278loPI   GL2 4438   0.582   7.852  10.403  0.2095  0.0100  0.3903
  278loPI   C1A 4439   0.108   8.123  10.443 -0.1241  0.3363 -0.1790
  278loPI   C2A 4440  -0.121   8.225  10.016 -0.0138 -0.0267 -0.1695
  278loPI   C3A 4441  -0.370   8.579   9.873 -0.1017  0.0600 -0.2940
  278loPI   C4A 4442  -0.535   8.785   9.614  0.4198  0.2512 -0.0913
  278loPI   C5A 4443  -0.543   8.980   9.253 -0.0571 -0.1894 -0.0127
  278loPI   C6A 4444  -0.614   8.997   8.813 -0.0317  0.1164  0.1678
  278loPI   C1B 4445   0.349   7.935  10.049  0.1016 -0.0327  0.4097
  278loPI   C2B 4446   0.220   8.059   9.642 -0.2037 -0.1158 -0.1466
  278loPI   C3B 4447  -0.149   8.296   9.458 -0.1153  0.0401 -0.3097
  278loPI   C4B 4448  -0.128   8.555   9.022  0.0598  0.0583 -0.2316
  279loPI    C1 4449   7.126   7.062  11.575 -0.0153  0.0382 -0.1370
  279loPI    C2 4450   6.752   7.124  11.703  0.0806  0.2770  0.0355
  279loPI    C3 4451   7.037   7.020  11.963  0.1154 -0.0050 -0.1113
  279loPI   PO4 4452   7.090   7.029  11.272  0.2071 -0.0358 -0.2828
  279loPI   GL1 4453   7.414   7.043  10.960 -0.0622  0.1850  0.2375
  279loPI   GL2 4454   7.699   6.822  10.903  0.1815  0.0428 -0.3003
  279loPI   C1A 4455   7.415   7.312  10.623  0.1634 -0.0685  0.1748
  279loPI   C2A 4456   7.309   7.333  10.164  0.1689 -0.0305  0.0532
  279loPI   C3A 4457   7.290   7.434   9.737  0.0316  0.0073 -0.0581
  279loPI   C4A 4458   7.406   7.458   9.273 -0.3315  0.0064 -0.1703
  279loPI   C5A 4459   7.341   7.220   8.770 -0.0254  0.2601 -0.0476
  279loPI   C6A 4460   7.642   7.143   8.463 -0.2100 -0.1313  0.1109
  279loPI   C1B 4461   7.728   6.946  10.451 -0.1685  0.1807 -0.1673
  279loPI   C2B 4462   7.712   6.947  10.114 -0.0820  0.1226 -0.0973
  279loPI   C3B 4463   7.671   7.088   9.602 -0.0277  0.1202  0.2210
  279loPI   C4B 4464   7.722   7.059   9.197  0.1102 -0.1313  0.0525
  280loPI    C1 4465   4.547   8.785  11.421 -0.0765 -0.1333 -0.0874
  280loPI    C2 4466   4.935   8.881  11.447 -0.1177  0.0046  0.0324
  280loPI    C3 4467   4.657   9.128  11.595 -0.2339 -0.2439  0.2384
  280loPI   PO4 4468   4.473   8.655  11.125 -0.1075 -0.0672 -0.2120
  280loPI   GL1 4469   4.522   8.732  10.669 -0.0439 -0.1109  0.3343
  280loPI   GL2 4470   4.758   8.387  10.746 -0.2128 -0.0203 -0.1505
  280loPI   C1A 4471   4.408   8.954  10.342  0.1835 -0.0790 -0.1759
  280loPI   C2A 4472   4.415   8.852   9.938 -0.1292 -0.0332 -0.0532
  280loPI   C3A 4473   4.427   8.783   9.573 -0.0233  0.0657  0.0423
  280loPI   C4A 4474   4.506   8.942   9.186  0.2128  0.1238 -0.1496
  280loPI   C5A 4475   4.355   8.988   8.831 -0.1078  0.2024 -0.0597
  280loPI   C6A 4476   4.251   8.771   8.483 -0.0008 -0.0506  0.0731
  280loPI   C1B 4477   4.785   8.489  10.258  0.2258  0.1404 -0.0875
  280loPI   C2B 4478   4.678   8.421   9.749  0.2862  0.1243  0.1752
  280loPI   C3B 4479   4.844   8.511   9.290 -0.2705  0.0278 -0.2262
  280loPI   C4B 4480   4.803   8.696   8.913 -0.0750 -0.1737 -0.1215
  281loPI    C1 4481  17.208   1.152  11.189 -0.1365  0.1394  0.0320
  281loPI    C2 4482  16.819   1.176  11.278 -0.1292  0.0256  0.0956
  281loPI    C3 4483  16.949   0.893  11.028 -0.0797  0.0281  0.1184
  281loPI   PO4 4484  17.277   1.379  11.078  0.3494 -0.0477  0.0201
  281loPI   GL1 4485  17.396   1.587  10.723 -0.1893 -0.2265 -0.2606
  281loPI   GL2 4486  17.483   1.846  10.673 -0.1470 -0.1020 -0.1058
  281loPI   C1A 4487  17.400   1.364  10.411  0.0797  0.0725  0.1733
  281loPI   C2A 4488  17.460   1.384   9.957 -0.2305 -0.0969  0.2963
  281loPI   C3A 4489  17.545   1.381   9.476 -0.3201  0.0961 -0.1157
  281loPI   C4A 4490  17.595   1.224   9.092  0.1064  0.1980  0.1577
  281loPI   C5A 4491  17.582   1.312   8.728 -0.2305 -0.0904  0.3604
  281loPI   C6A 4492  17.754   1.532   8.386  0.3634  0.0644 -0.0534
  281loPI   C1B 4493  17.545   1.827  10.214 -0.1712  0.0186 -0.1128
  281loPI   C2B 4494  17.675   1.809   9.779 -0.3257  0.4000  0.0004
  281loPI   C3B 4495  17.750   1.867   9.413  0.5375 -0.2544 -0.0956
  281loPI   C4B 4496  17.639   1.817   8.982 -0.3236  0.1968  0.2162
  282loPI    C1 4497   0.403   7.039  10.985 -0.3217 -0.0896 -0.0243
  282loPI    C2 4498   0.496   7.005  11.372 -0.0349 -0.1089 -0.0927
  282loPI    C3 4499   0.545   7.355  11.185 -0.0660 -0.1290 -0.1386
  282loPI   PO4 4500   0.410   6.835  10.897 -0.2156 -0.1555  0.1032
  282loPI   GL1 4501   0.437   6.570  10.446  0.2137 -0.0049  0.0306
  282loPI   GL2 4502   0.290   6.360  10.595 -0.2715 -0.1515 -0.0781
  282loPI   C1A 4503   0.415   6.641  10.075 -0.1053 -0.0872  0.1883
  282loPI   C2A 4504   0.508   6.428   9.745 -0.2303  0.0811  0.1597
  282loPI   C3A 4505   0.641   6.237   9.384  0.1563  0.1019 -0.0595
  282loPI   C4A 4506   0.561   6.210   8.995  0.2031 -0.2009 -0.0717
  282loPI   C5A 4507   0.510   5.880   8.734 -0.1031  0.0070  0.0979
  282loPI   C6A 4508   0.594   5.742   8.379  0.1710  0.4474 -0.2082
  282loPI   C1B 4509   0.154   6.186  10.180  0.4663 -0.0229  0.1114
  282loPI   C2B 4510   0.165   6.091   9.805 -0.0515  0.0134 -0.0182
  282loPI   C3B 4511   0.123   6.058   9.408  0.0353  0.1613 -0.1637
  282loPI   C4B 4512   0.087   5.993   9.006  0.0825  0.1615 -0.0533
  283loPI    C1 4513   4.432  12.737  11.595  0.2788  0.2391 -0.1222
  283loPI    C2 4514   4.450  13.116  11.721 -0.3306  0.2075  0.0905
  283loPI    C3 4515   4.401  12.819  11.985 -0.2004  0.0094 -0.1051
  283loPI   PO4 4516   4.636  12.601  11.384 -0.1094  0.3030  0.0007
  283loPI   GL1 4517   4.753  12.267  11.031 -0.0556 -0.0762  0.2312
  283loPI   GL2 4518   4.548  12.121  11.130  0.0107 -0.2192  0.0340
  283loPI   C1A 4519   4.810  12.419  10.600  0.0105  0.2541  0.2800
  283loPI   C2A 4520   4.765  12.355  10.187  0.1435 -0.1402 -0.2724
  283loPI   C3A 4521   4.782  12.348   9.785 -0.1524 -0.0183 -0.0021
  283loPI   C4A 4522   4.705  12.380   9.359  0.0069  0.2605 -0.2120
  283loPI   C5A 4523   4.741  12.594   8.963  0.0768  0.0383 -0.0792
  283loPI   C6A 4524   4.830  12.527   8.512 -0.4335 -0.1354  0.0815
  283loPI   C1B 4525   4.318  12.145  10.737  0.2146 -0.2826  0.0100
  283loPI   C2B 4526   4.312  12.164  10.389 -0.1149  0.2582  0.0478
  283loPI   C3B 4527   4.323  12.106   9.941  0.4151  0.2684 -0.1184
  283loPI   C4B 4528   4.229  12.335   9.585  0.0347 -0.1430 -0.5776
  284loPI    C1 4529  12.072  14.802  11.480  0.1363 -0.0863  0.0547
  284loPI    C2 4530  12.134  14.675  11.855 -0.1193  0.0514  0.1459
  284loPI    C3 4531  12.155  15.066  11.769  0.0329  0.0113 -0.0037
  284loPI   PO4 4532  12.147  14.673  11.326  0.0010 -0.1559 -0.2186
  284loPI   GL1 4533  12.201  14.700  10.975 -0.2198 -0.1699  0.0376
  284loPI   GL2 4534  12.023  14.934  10.902 -0.1238 -0.0706  0.1762
  284loPI   C1A 4535  12.252  14.619  10.581 -0.1058  0.0609  0.1412
  284loPI   C2A 4536  12.195  14.531  10.157 -0.0657 -0.0217 -0.0862
  284loPI   C3A 4537  12.347  14.536   9.687  0.3201 -0.0236 -0.3261
  284loPI   C4A 4538  12.332  14.603   9.283  0.0356  0.1050 -0.1578
  284loPI   C5A 4539  12.519  14.509   9.003 -0.2094 -0.1471  0.3604
  284loPI   C6A 4540  12.422  14.207   8.621 -0.2017 -0.0931  0.0269
  284loPI   C1B 4541  11.845  14.962  10.482 -0.1075  0.1229  0.1801
  284loPI   C2B 4542  11.819  14.958  10.019  0.0015  0.3617  0.0656
  284loPI   C3B 4543  11.916  14.898   9.499  0.0615  0.0544 -0.1488
  284loPI   C4B 4544  11.757  14.731   9.218 -0.1227 -0.2966 -0.0862
  285loPI    C1 4545   1.077   1.214  11.261 -0.4095 -0.1649  0.0057
  285loPI    C2 4546   0.926   1.339  11.610 -0.1089  0.0439  0.0641
  285loPI    C3 4547   1.221   1.069  11.605 -0.0820  0.0748 -0.0266
  285loPI   PO4 4548   1.011   1.226  11.091  0.1899 -0.1592 -0.3087
  285loPI   GL1 4549   1.149   1.301  10.651  0.1447 -0.2438 -0.1301
  285loPI   GL2 4550   1.439   1.133  10.755  0.2156 -0.2457  0.3295
  285loPI   C1A 4551   1.224   1.220  10.240 -0.2374 -0.0816 -0.3389
  285loPI   C2A 4552   1.265   1.237   9.862 -0.0480 -0.0416 -0.0170
  285loPI   C3A 4553   1.350   1.300   9.604 -0.0696  0.0192 -0.0695
  285loPI   C4A 4554   1.340   1.354   9.264 -0.0459  0.4083  0.1753
  285loPI   C5A 4555   1.349   1.287   8.791 -0.4274 -0.1009  0.1546
  285loPI   C6A 4556   1.295   1.313   8.345 -0.1636  0.1538 -0.0684
  285loPI   C1B 4557   1.623   0.945  10.346  0.0874 -0.1792  0.0918
  285loPI   C2B 4558   1.678   0.901   9.864 -0.1222 -0.1752  0.0432
  285loPI   C3B 4559   1.741   1.015   9.475 -0.2068 -0.1757 -0.1909
  285loPI   C4B 4560   1.691   0.866   9.085 -0.0721  0.2216 -0.0630
  286loPI    C1 4561  17.598   0.302  11.712  0.0019  0.0263 -0.0109
  286loPI    C2 4562  17.561   0.698  11.761 -0.0011  0.0064  0.1532
  286loPI    C3 4563  17.790   0.486  12.011  0.2339 -0.0544 -0.1080
  286loPI   PO4 4564  17.716   0.310  11.412 -0.5317 -0.1267  0.1259
  286loPI   GL1 4565  17.774   0.394  11.014  0.2211  0.5132  0.1496
  286loPI   GL2 4566  17.862   0.674  10.907 -0.0467 -0.1452  0.0088
  286loPI   C1A 4567  17.730   0.426  10.534  0.2050  0.2927 -0.0873
  286loPI   C2A 4568  17.864   0.553  10.161 -0.1145 -0.2014 -0.1868
  286loPI   C3A 4569  17.879   0.343   9.732  0.0779 -0.0419  0.0040
  286loPI   C4A 4570  17.920   0.426   9.322  0.2023 -0.0786  0.1987
  286loPI   C5A 4571  17.872   0.385   8.860  0.0267 -0.0810 -0.0448
  286loPI   C6A 4572  17.849   0.869   8.666  0.0300 -0.0163  0.1212
  286loPI   C1B 4573  17.746   0.938  10.569 -0.0385  0.1080 -0.5143
  286loPI   C2B 4574  17.735   1.036  10.172 -0.0372  0.1873  0.1188
  286loPI   C3B 4575  17.857   1.044   9.695 -0.1584 -0.0716  0.3371
  286loPI   C4B 4576  18.058   0.878   9.325  0.0969  0.0592 -0.2341
  287loPI    C1 4577  11.305  17.199  11.539  0.2049  0.2362 -0.0772
  287loPI    C2 4578  11.559  17.008  11.781 -0.0035 -0.0453 -0.0755
  287loPI    C3 4579  11.370  17.335  11.910 -0.0327 -0.1324  0.1057
  287loPI   PO4 4580  11.430  17.214  11.305 -0.1602 -0.0507  0.2611
  287loPI   GL1 4581  11.678  17.324  10.945  0.3620 -0.0326 -0.0929
  287loPI   GL2 4582  11.642  17.640  10.667  0.0799 -0.0831 -0.2642
  287loPI   C1A 4583  11.555  17.175  10.534 -0.1232 -0.0254 -0.3465
  287loPI   C2A 4584  11.562  17.206  10.130  0.1365  0.1796 -0.1021
  287loPI   C3A 4585  11.500  17.179   9.693  0.0444 -0.0442 -0.4093
  287loPI   C4A 4586  11.411  17.028   9.213  0.0371  0.0339  0.1353
  287loPI   C5A 4587  11.043  16.982   9.109  0.0973  0.2946 -0.1425
  287loPI   C6A 4588  10.653  16.766   9.274  0.2419 -0.1413 -0.0977
  287loPI   C1B 4589  11.655  17.739  10.196  0.0795 -0.1683 -0.1847
  287loPI   C2B 4590  11.605  17.661   9.805  0.0753 -0.1364 -0.1577
  287loPI   C3B 4591  11.703  17.673   9.402 -0.0658 -0.0739  0.0778
  287loPI   C4B 4592  11.494  17.725   9.010 -0.0994 -0.0605  0.0783
  288loPI    C1 4593  12.834  13.463  11.461  0.1073  0.0957  0.0125
  288loPI    C2 4594  12.774  13.626  11.821 -0.2575 -0.0899  0.0408
  288loPI    C3 4595  12.564  13.305  11.710 -0.1220 -0.0567 -0.3254
  288loPI   PO4 4596  13.041  13.468  11.364 -0.0166 -0.0862  0.0688
  288loPI   GL1 4597  13.166  13.660  10.983  0.0803 -0.0594 -0.3371
  288loPI   GL2 4598  12.952  13.898  10.854 -0.0264  0.2311  0.0287
  288loPI   C1A 4599  13.372  13.515  10.703 -0.0477  0.1987  0.0812
  288loPI   C2A 4600  13.364  13.446  10.317  0.0566  0.0291  0.1732
  288loPI   C3A 4601  13.364  13.414   9.908 -0.0248  0.3171  0.4113
  288loPI   C4A 4602  13.327  13.481   9.565 -0.1475  0.1766  0.0652
  288loPI   C5A 4603  13.567  13.486   9.182  0.0582  0.0479  0.0454
  288loPI   C6A 4604  13.820  13.224   9.003  0.0057  0.0763 -0.2293
  288loPI   C1B 4605  13.030  13.761  10.403  0.0107 -0.2202  0.0260
  288loPI   C2B 4606  13.026  13.846   9.961  0.1965 -0.2343  0.0916
  288loPI   C3B 4607  13.003  13.812   9.466 -0.2371  0.0817 -0.0336
  288loPI   C4B 4608  13.235  13.804   9.053  0.0835  0.2577  0.0024
  289loPI    C1 4609  13.341   8.455  11.645  0.1175 -0.2934  0.1963
  289loPI    C2 4610  12.999   8.662  11.661  0.2704 -0.0325  0.1597
  289loPI    C3 4611  13.002   8.291  11.510  0.0236  0.0017  0.0659
  289loPI   PO4 4612  13.534   8.645  11.476  0.2696  0.2053  0.0865
  289loPI   GL1 4613  13.365   8.777  11.095 -0.0292  0.1689  0.0282
  289loPI   GL2 4614  13.104   8.658  11.150 -0.0221 -0.1277  0.3992
  289loPI   C1A 4615  13.264   8.754  10.620 -0.0698 -0.0792  0.3374
  289loPI   C2A 4616  13.185   8.811  10.222  0.0872 -0.2983 -0.1468
  289loPI   C3A 4617  13.158   8.696   9.842  0.1560 -0.3518 -0.1725
  289loPI   C4A 4618  13.085   8.789   9.452  0.0110  0.0781 -0.1870
  289loPI   C5A 4619  13.164   8.656   8.940  0.0878  0.1619  0.0775
  289loPI   C6A 4620  13.057   8.740   8.517 -0.3703  0.2910  0.0876
  289loPI   C1B 4621  12.851   8.394  10.894  0.0487  0.2348 -0.2473
  289loPI   C2B 4622  12.728   8.490  10.607 -0.2916  0.1182 -0.2066
  289loPI   C3B 4623  12.634   8.601  10.260 -0.3243 -0.3114  0.3621
  289loPI   C4B 4624  12.593   8.581   9.820  0.0429 -0.1082 -0.2743
  290loPI    C1 4625   8.765  14.788  11.520  0.2401 -0.0703 -0.1408
  290loPI    C2 4626   8.980  14.765  11.856  0.2040  0.2217 -0.0951
  290loPI    C3 4627   8.657  14.534  11.809  0.2644  0.1107  0.0292
  290loPI   PO4 4628   8.957  14.736  11.314 -0.0364  0.1349  0.1577
  290loPI   GL1 4629   8.885  14.595  10.944  0.1095 -0.5891 -0.2767
  290loPI   GL2 4630   8.715  14.866  10.729 -0.0764 -0.2653  0.0279
  290loPI   C1A 4631   8.668  14.392  10.514 -0.1792  0.0977  0.0223
  290loPI   C2A 4632   8.712  14.362  10.141  0.1805  0.1447 -0.0799
  290loPI   C3A 4633   8.629  14.444   9.770  0.0011  0.1936  0.0639
  290loPI   C4A 4634   8.502  14.363   9.338  0.2592 -0.1804 -0.1978
  290loPI   C5A 4635   8.432  14.401   8.943  0.2300  0.1442 -0.0203
  290loPI   C6A 4636   8.090  14.509   8.628 -0.1785  0.0397  0.0398
  290loPI   C1B 4637   8.738  14.901  10.326  0.0979  0.0442 -0.0875
  290loPI   C2B 4638   8.687  14.991   9.989  0.1009  0.0186 -0.2822
  290loPI   C3B 4639   8.702  14.913   9.537 -0.1061  0.0260 -0.0056
  290loPI   C4B 4640   8.637  14.782   9.078 -0.0396 -0.1580 -0.0745
  291loPI    C1 4641   8.864   7.630  11.732 -0.0106  0.2129  0.1551
  291loPI    C2 4642   9.025   7.709  12.089 -0.2426 -0.0392  0.3202
  291loPI    C3 4643   8.646   7.810  12.014 -0.2052 -0.0171  0.1554
  291loPI   PO4 4644   9.012   7.734  11.536  0.0272 -0.0203 -0.2016
  291loPI   GL1 4645   9.036   7.921  11.138  0.0996 -0.3575  0.1014
  291loPI   GL2 4646   8.710   7.820  10.984  0.2004 -0.1980  0.2205
  291loPI   C1A 4647   9.286   7.839  10.771  0.1616  0.0680  0.1295
  291loPI   C2A 4648   9.330   7.951  10.388  0.2145  0.0156  0.0632
  291loPI   C3A 4649   9.301   7.959  10.005 -0.2337 -0.1469  0.1029
  291loPI   C4A 4650   9.339   8.070   9.583 -0.2424  0.1538  0.4663
  291loPI   C5A 4651   9.452   8.009   9.100 -0.2823  0.0995 -0.0704
  291loPI   C6A 4652   9.460   7.758   8.745 -0.1120 -0.1837  0.1492
  291loPI   C1B 4653   8.764   7.688  10.529  0.1909  0.2494 -0.0542
  291loPI   C2B 4654   8.788   7.791  10.082 -0.2195 -0.0932  0.0704
  291loPI   C3B 4655   8.830   7.865   9.582  0.1195  0.4346  0.4332
  291loPI   C4B 4656   8.951   8.066   9.201  0.0053  0.2840  0.0214
  292loPI    C1 4657   2.150   0.257  11.561  0.0401  0.1247  0.0378
  292loPI    C2 4658   2.264   0.045  11.880 -0.2590 -0.0389  0.0395
  292loPI    C3 4659   2.212   0.440  11.911  0.1015  0.0074  0.0886
  292loPI   PO4 4660   1.980   0.108  11.432  0.0765  0.0015 -0.3846
  292loPI   GL1 4661   2.084  -0.123  11.000 -0.1755  0.0717  0.1327
  292loPI   GL2 4662   1.816  -0.023  10.971 -0.1409 -0.1905 -0.0695
  292loPI   C1A 4663   2.340  -0.299  10.649  0.1012 -0.1547  0.0961
  292loPI   C2A 4664   2.327  -0.334  10.199 -0.0213 -0.0288  0.3230
  292loPI   C3A 4665   2.231  -0.358   9.774 -0.2247 -0.3084 -0.0280
  292loPI   C4A 4666   2.414  -0.339   9.400  0.1390 -0.0906 -0.1786
  292loPI   C5A 4667   2.497  -0.278   8.960  0.0982 -0.1671 -0.1318
  292loPI   C6A 4668   2.325  -0.286   8.554  0.3118  0.0551  0.1370
  292loPI   C1B 4669   1.900   0.098  10.514  0.2269 -0.1633 -0.1276
  292loPI   C2B 4670   1.907  -0.079  10.017  0.2498 -0.2527 -0.0243
  292loPI   C3B 4671   1.936   0.017   9.537  0.0049  0.0549 -0.1630
  292loPI   C4B 4672   2.042   0.159   9.072 -0.0549 -0.2065 -0.0792
  293loPI    C1 4673   7.458   5.770  11.557  0.0228  0.1135  0.0120
  293loPI    C2 4674   7.156   5.568  11.725 -0.0433  0.1757 -0.0312
  293loPI    C3 4675   7.528   5.422  11.741 -0.0340  0.2247  0.2474
  293loPI   PO4 4676   7.446   5.761  11.356 -0.0057 -0.1664 -0.1110
  293loPI   GL1 4677   7.675   5.680  10.960 -0.2013 -0.0929  0.2861
  293loPI   GL2 4678   7.863   5.941  10.970 -0.1502  0.0204  0.0257
  293loPI   C1A 4679   7.809   5.560  10.566  0.1038  0.5285  0.0274
  293loPI   C2A 4680   7.820   5.649  10.148 -0.2749 -0.3227  0.1917
  293loPI   C3A 4681   7.828   5.687   9.697 -0.0311 -0.2143  0.2619
  293loPI   C4A 4682   7.860   5.658   9.238  0.0322  0.2330  0.0361
  293loPI   C5A 4683   8.050   6.051   8.989 -0.1630 -0.1957 -0.0820
  293loPI   C6A 4684   8.329   6.038   8.750  0.1452  0.2547 -0.2802
  293loPI   C1B 4685   7.932   6.031  10.607 -0.0995  0.1020  0.3039
  293loPI   C2B 4686   7.944   6.166  10.255 -0.0168 -0.0583 -0.1134
  293loPI   C3B 4687   7.931   6.168   9.872  0.1226  0.1420 -0.1001
  293loPI   C4B 4688   7.947   6.139   9.501 -0.2759  0.3721  0.1099
  294loPI    C1 4689  11.800   6.793  11.625 -0.1169  0.2186  0.1474
  294loPI    C2 4690  12.008   6.451  11.639 -0.1222  0.1934 -0.2645
  294loPI    C3 4691  11.951   6.665  11.973 -0.1449 -0.2205  0.0042
  294loPI   PO4 4692  11.850   6.858  11.343  0.2650  0.3251 -0.0330
  294loPI   GL1 4693  11.816   6.843  10.927 -0.1705 -0.0227 -0.1058
  294loPI   GL2 4694  11.530   7.137  11.019  0.0211 -0.3363  0.2213
  294loPI   C1A 4695  11.783   6.901  10.544  0.1800 -0.1326 -0.0817
  294loPI   C2A 4696  11.812   6.915  10.093  0.0665  0.0667 -0.1898
  294loPI   C3A 4697  11.794   6.899   9.628  0.0185  0.1595 -0.0450
  294loPI   C4A 4698  11.778   6.831   9.227  0.0728  0.1165  0.1413
  294loPI   C5A 4699  11.777   6.544   8.782  0.1813 -0.5957 -0.0039
  294loPI   C6A 4700  11.887   6.272   8.552 -0.1389  0.1614  0.1723
  294loPI   C1B 4701  11.386   7.244  10.534  0.1151 -0.0600  0.1358
  294loPI   C2B 4702  11.389   7.242  10.043  0.1068 -0.2087  0.2101
  294loPI   C3B 4703  11.388   7.228   9.610 -0.2017 -0.1993  0.3160
  294loPI   C4B 4704  11.449   7.213   9.170  0.0240 -0.2004 -0.3010
  295loPI    C1 4705  14.462  14.737  11.495 -0.0490 -0.0298  0.0046
  295loPI    C2 4706  14.575  14.433  11.729  0.0056 -0.0349 -0.0282
  295loPI    C3 4707  14.584  14.807  11.870  0.2766 -0.0114 -0.1018
  295loPI   PO4 4708  14.557  14.724  11.257 -0.2017  0.0206 -0.2275
  295loPI   GL1 4709  14.558  14.663  10.808  0.0304 -0.1217  0.2047
  295loPI   GL2 4710  14.595  15.039  10.856  0.2400  0.1854  0.3763
  295loPI   C1A 4711  14.691  14.648  10.288  0.3599 -0.1285  0.0637
  295loPI   C2A 4712  14.638  14.710   9.804  0.0088 -0.1697  0.1797
  295loPI   C3A 4713  14.654  14.744   9.364  0.0440 -0.0421 -0.1770
  295loPI   C4A 4714  14.417  14.728   8.916  0.0796 -0.0600  0.0774
  295loPI   C5A 4715  14.396  14.819   8.564 -0.0440 -0.5020 -0.1089
  295loPI   C6A 4716  14.257  14.996   8.174 -0.0465  0.2396 -0.1240
  295loPI   C1B 4717  14.261  15.065  10.410  0.0687  0.2206  0.0771
  295loPI   C2B 4718  14.271  14.994   9.990  0.4151  0.0393  0.0327
  295loPI   C3B 4719  14.241  15.046   9.563 -0.0713 -0.1242  0.0486
  295loPI   C4B 4720  14.330  15.192   9.186  0.1494 -0.0054 -0.0999
  296loPI    C1 4721   3.875  17.438  11.388 -0.1316  0.0709 -0.0422
  296loPI    C2 4722   4.117  17.643  11.631 -0.1854 -0.0376  0.1043
  296loPI    C3 4723   3.905  17.335  11.773 -0.3397 -0.0011 -0.0438
  296loPI   PO4 4724   3.805  17.672  11.184 -0.1548  0.0514  0.1520
  296loPI   GL1 4725   3.898  17.808  10.747  0.0535 -0.2841  0.1387
  296loPI   GL2 4726   4.247  17.829  10.773 -0.0711  0.1325  0.1832
  296loPI   C1A 4727   3.838  17.672  10.397 -0.1818  0.2597 -0.0843
  296loPI   C2A 4728   3.744  17.695   9.906  0.0119 -0.1795  0.2555
  296loPI   C3A 4729   3.886  17.791   9.407  0.1992  0.0782  0.0666
  296loPI   C4A 4730   4.107  17.902   9.028 -0.1270 -0.0269  0.1937
  296loPI   C5A 4731   4.274  17.971   8.623 -0.2059  0.0188  0.2595
  296loPI   C6A 4732   4.143  17.815   8.304 -0.0915 -0.3036 -0.0733
  296loPI   C1B 4733   4.280  17.877  10.344  0.1111 -0.0149  0.2984
  296loPI   C2B 4734   4.371  17.820   9.912 -0.1200 -0.2590  0.0667
  296loPI   C3B 4735   4.392  17.837   9.487  0.2708 -0.0983 -0.0185
  296loPI   C4B 4736   4.596  17.810   9.030  0.0077  0.0143  0.0980
  297loPI    C1 4737   5.502  14.447  11.614 -0.4937  0.1810  0.1087
  297loPI    C2 4738   5.478  14.356  12.002  0.0567 -0.0763  0.0924
  297loPI    C3 4739   5.630  14.708  11.888 -0.1101  0.0015  0.1072
  297loPI   PO4 4740   5.575  14.284  11.521  0.0292  0.0933  0.2668
  297loPI   GL1 4741   5.708  14.246  11.091  0.5092 -0.1226  0.2026
  297loPI   GL2 4742   6.091  14.181  11.050 -0.0423  0.0228 -0.0123
  297loPI   C1A 4743   5.708  14.099  10.612  0.2738  0.0634 -0.0137
  297loPI   C2A 4744   5.677  14.049  10.179 -0.0752  0.0661  0.0519
  297loPI   C3A 4745   5.783  14.091   9.699 -0.1930 -0.0148  0.2436
  297loPI   C4A 4746   5.661  13.979   9.295 -0.0041 -0.1466 -0.2282
  297loPI   C5A 4747   5.761  14.039   8.939  0.1125 -0.0320 -0.1797
  297loPI   C6A 4748   5.995  14.132   8.655 -0.1905  0.1972  0.0343
  297loPI   C1B 4749   6.186  14.252  10.595 -0.3576 -0.1787  0.0299
  297loPI   C2B 4750   6.214  14.228  10.157 -0.4477 -0.0927 -0.1194
  297loPI   C3B 4751   6.233  14.197   9.640  0.1279 -0.0269  0.0189
  297loPI   C4B 4752   6.209  14.118   9.168 -0.2954 -0.0267 -0.0256
  298loPI    C1 4753   5.874   9.864  11.681  0.0512  0.1054 -0.2381
  298loPI    C2 4754   6.187   9.626  11.758  0.0219  0.1330 -0.0273
  298loPI    C3 4755   6.188  10.006  11.884 -0.1137  0.1215  0.0102
  298loPI   PO4 4756   5.829   9.809  11.468  0.1593  0.2159 -0.2311
  298loPI   GL1 4757   5.854   9.897  11.134 -0.0520  0.5046 -0.0526
  298loPI   GL2 4758   5.618  10.135  10.923  0.5617  0.0237  0.0021
  298loPI   C1A 4759   5.950   9.853  10.678  0.1349 -0.3078 -0.1585
  298loPI   C2A 4760   5.979   9.922  10.236 -0.2419 -0.1861 -0.3552
  298loPI   C3A 4761   6.020   9.900   9.831  0.0895 -0.0405  0.0113
  298loPI   C4A 4762   6.025   9.943   9.346  0.0470 -0.0071  0.1021
  298loPI   C5A 4763   6.097  10.042   8.889 -0.0718 -0.1307 -0.1538
  298loPI   C6A 4764   6.168  10.245   8.485 -0.0764  0.2906 -0.0776
  298loPI   C1B 4765   5.623  10.249  10.463  0.0869 -0.1016 -0.0751
  298loPI   C2B 4766   5.640  10.251  10.070  0.2163 -0.0883 -0.0722
  298loPI   C3B 4767   5.677  10.250   9.567 -0.2193 -0.1168  0.0618
  298loPI   C4B 4768   5.701  10.372   9.098  0.0225  0.2014 -0.3287
  299loPI    C1 4769   3.794  10.514  11.633 -0.1082  0.0659 -0.0284
  299loPI    C2 4770   3.819  10.543  12.031 -0.2557 -0.1552 -0.0013
  299loPI    C3 4771   3.960  10.219  11.845 -0.1300 -0.0243 -0.1362
  299loPI   PO4 4772   3.946  10.584  11.516 -0.1430 -0.2574  0.1037
  299loPI   GL1 4773   4.214  10.484  11.073  0.3221 -0.0226 -0.2149
  299loPI   GL2 4774   4.380  10.200  10.986  0.3084  0.1173 -0.1613
  299loPI   C1A 4775   4.462  10.679  10.777 -0.4410 -0.0097  0.0828
  299loPI   C2A 4776   4.360  10.848  10.390 -0.0816 -0.4296 -0.0436
  299loPI   C3A 4777   4.394  10.733   9.964 -0.0206 -0.0084 -0.0305
  299loPI   C4A 4778   4.439  10.843   9.565  0.0566  0.5186  0.0997
  299loPI   C5A 4779   4.579  10.906   9.183  0.3243 -0.0863  0.1584
  299loPI   C6A 4780   4.657  10.638   8.950  0.0573 -0.0425 -0.1314
  299loPI   C1B 4781   4.278  10.247  10.468 -0.0669 -0.0265 -0.1216
  299loPI   C2B 4782   4.320  10.284   9.956  0.0533  0.3137  0.0810
  299loPI   C3B 4783   4.393  10.228   9.525  0.5545  0.1709  0.2085
  299loPI   C4B 4784   4.258  10.137   9.188  0.0632  0.3795  0.0253
  300loPI    C1 4785   9.073   5.805  11.758 -0.1650  0.0354 -0.1777
  300loPI    C2 4786   8.773   5.603  11.929 -0.0070 -0.1149 -0.0744
  300loPI    C3 4787   8.876   5.963  12.068 -0.0865 -0.0980 -0.0585
  300loPI   PO4 4788   9.021   5.716  11.519  0.1028 -0.1536 -0.0709
  300loPI   GL1 4789   9.182   5.870  11.203 -0.0555 -0.0391 -0.1593
  300loPI   GL2 4790   9.227   6.027  11.053 -0.1169  0.1925  0.1603
  300loPI   C1A 4791   9.097   5.625  10.793  0.1719 -0.2318 -0.1201
  300loPI   C2A 4792   9.177   5.617  10.410 -0.0355 -0.1353  0.2905
  300loPI   C3A 4793   9.319   5.496  10.045 -0.1255  0.0711  0.0874
  300loPI   C4A 4794   9.151   5.545   9.604 -0.1974 -0.0485  0.1567
  300loPI   C5A 4795   9.192   5.537   9.185 -0.0653 -0.0841  0.0983
  300loPI   C6A 4796   9.051   5.400   8.789  0.2783 -0.0798  0.1461
  300loPI   C1B 4797   9.332   6.032  10.585  0.1373 -0.0026  0.0004
  300loPI   C2B 4798   9.417   6.011  10.099 -0.1455 -0.1280 -0.1308
  300loPI   C3B 4799   9.276   6.082   9.648  0.0593  0.0069 -0.1019
  300loPI   C4B 4800   9.246   6.055   9.190 -0.1386 -0.2189 -0.0905
  301loPI    C1 4801   5.303   7.737  11.500 -0.3610  0.0184 -0.0552
  301loPI    C2 4802   5.015   7.998  11.406 -0.1054  0.3011 -0.0695
  301loPI    C3 4803   5.369   8.130  11.537 -0.0421 -0.0485  0.1235
  301loPI   PO4 4804   5.347   7.545  11.310  0.0204  0.0028  0.2716
  301loPI   GL1 4805   5.318   7.493  10.913 -0.1718  0.0519 -0.1518
  301loPI   GL2 4806   5.311   7.237  10.825 -0.4630 -0.2861 -0.3153
  301loPI   C1A 4807   5.489   7.772  10.637  0.1005 -0.3752 -0.1181
  301loPI   C2A 4808   5.521   7.815  10.220  0.3353  0.2429 -0.2679
  301loPI   C3A 4809   5.579   7.863   9.794 -0.0523 -0.2973 -0.0448
  301loPI   C4A 4810   5.557   7.762   9.360 -0.0057 -0.3252 -0.1188
  301loPI   C5A 4811   5.521   7.778   9.012 -0.1769 -0.1790  0.0353
  301loPI   C6A 4812   5.307   7.985   8.775  0.1074  0.1401 -0.4314
  301loPI   C1B 4813   5.366   7.318  10.405 -0.0447  0.1998  0.3830
  301loPI   C2B 4814   5.518   7.356   9.968  0.3084 -0.0576 -0.0386
  301loPI   C3B 4815   5.524   7.249   9.493 -0.1274 -0.1059  0.1820
  301loPI   C4B 4816   5.354   7.278   9.164 -0.0401 -0.1025  0.1270
  302loPI    C1 4817  14.541   1.269  11.460  0.1063 -0.0640  0.2261
  302loPI    C2 4818  14.148   1.212  11.410  0.1317 -0.0080 -0.0512
  302loPI    C3 4819  14.281   1.429  11.719 -0.0523 -0.0593  0.0655
  302loPI   PO4 4820  14.696   1.287  11.248  0.3768 -0.3634  0.0272
  302loPI   GL1 4821  14.879   1.223  10.922  0.0676  0.2032 -0.0915
  302loPI   GL2 4822  14.768   1.468  10.742 -0.2835 -0.0543 -0.2408
  302loPI   C1A 4823  15.043   1.103  10.445  0.0235  0.1901 -0.0191
  302loPI   C2A 4824  15.014   1.074  10.126 -0.1342 -0.0955  0.0440
  302loPI   C3A 4825  15.078   0.983   9.725 -0.2255  0.0697 -0.1736
  302loPI   C4A 4826  15.186   1.036   9.383  0.0982 -0.2410 -0.0249
  302loPI   C5A 4827  15.261   0.922   8.973  0.1086  0.1373  0.3628
  302loPI   C6A 4828  15.555   1.032   8.598  0.0864 -0.1444  0.0517
  302loPI   C1B 4829  14.782   1.530  10.306 -0.1297 -0.0149  0.1661
  302loPI   C2B 4830  14.690   1.437   9.937  0.0788  0.1146  0.4180
  302loPI   C3B 4831  14.798   1.350   9.445  0.1191  0.0083  0.0584
  302loPI   C4B 4832  14.848   1.202   9.047 -0.1056  0.0846  0.1954
  303loPI    C1 4833  13.074   2.980  11.218 -0.1597 -0.1657 -0.0127
  303loPI    C2 4834  13.210   2.748  11.514 -0.0293 -0.1967 -0.0960
  303loPI    C3 4835  12.931   3.025  11.589 -0.2123 -0.4031 -0.0023
  303loPI   PO4 4836  13.370   3.109  11.039  0.0946 -0.0388  0.3976
  303loPI   GL1 4837  13.482   3.279  10.676  0.0999  0.3596  0.3900
  303loPI   GL2 4838  13.542   3.081  10.477  0.2055 -0.0405 -0.0609
  303loPI   C1A 4839  13.896   3.372  10.393 -0.1474 -0.0513 -0.1295
  303loPI   C2A 4840  13.982   3.090  10.123 -0.2870 -0.0216 -0.0217
  303loPI   C3A 4841  13.816   2.919   9.744 -0.1509  0.3464  0.1491
  303loPI   C4A 4842  13.803   2.945   9.269 -0.0754 -0.0308  0.4344
  303loPI   C5A 4843  13.638   3.007   8.979  0.0058 -0.1409  0.1345
  303loPI   C6A 4844  13.434   3.472   8.987  0.1795 -0.1866 -0.1375
  303loPI   C1B 4845  13.488   2.936  10.110  0.0207 -0.0647  0.0662
  303loPI   C2B 4846  13.228   2.828   9.810 -0.0349 -0.2090  0.2974
  303loPI   C3B 4847  13.288   2.736   9.315  0.2000  0.2654 -0.3816
  303loPI   C4B 4848  13.015   2.692   9.028 -0.1185 -0.0383  0.0404
  304loPI    C1 4849  13.169   5.446  11.513  0.0508  0.1475  0.0299
  304loPI    C2 4850  12.972   5.236  11.791  0.0620  0.1515  0.0410
  304loPI    C3 4851  13.367   5.190  11.747  0.0640  0.1676  0.0410
  304loPI   PO4 4852  13.079   5.433  11.315  0.1717  0.0076 -0.3153
  304loPI   GL1 4853  13.266   5.254  10.926 -0.2236  0.0299  0.3450
  304loPI   GL2 4854  13.200   5.425  10.816  0.1693  0.0954 -0.1158
  304loPI   C1A 4855  13.422   4.977  10.600 -0.2485  0.2161 -0.0174
  304loPI   C2A 4856  13.296   4.956  10.118 -0.2446  0.3430 -0.1972
  304loPI   C3A 4857  13.400   4.906   9.637  0.2041 -0.0723  0.1878
  304loPI   C4A 4858  13.287   5.133   9.223 -0.3018  0.1960 -0.0257
  304loPI   C5A 4859  13.620   5.175   8.800  0.1380  0.0979 -0.0719
  304loPI   C6A 4860  13.869   5.309   8.550 -0.0657  0.0809  0.1800
  304loPI   C1B 4861  13.290   5.463  10.370 -0.2281 -0.3298  0.3052
  304loPI   C2B 4862  13.341   5.430   9.970 -0.1442  0.0099  0.1165
  304loPI   C3B 4863  13.279   5.546   9.583 -0.0243  0.0018  0.2469
  304loPI   C4B 4864  13.351   5.647   9.034 -0.1808  0.2449  0.1460
  305loPI    C1 4865   4.598   4.547  11.510 -0.0262 -0.2853 -0.0936
  305loPI    C2 4866   4.880   4.809  11.618 -0.0551 -0.2359 -0.1376
  305loPI    C3 4867   4.864   4.449  11.792 -0.0286 -0.2006 -0.0616
  305loPI   PO4 4868   4.658   4.623  11.201  0.2372 -0.0332  0.0893
  305loPI   GL1 4869   4.769   4.900  10.853 -0.1142  0.0819 -0.3641
  305loPI   GL2 4870   5.008   5.116  10.760 -0.1283 -0.0863  0.0053
  305loPI   C1A 4871   4.605   4.863  10.447 -0.1490 -0.2230  0.0702
  305loPI   C2A 4872   4.665   4.778  10.000  0.1960  0.2636  0.1681
  305loPI   C3A 4873   4.808   4.739   9.599 -0.0433 -0.0313 -0.1567
  305loPI   C4A 4874   4.880   4.687   9.125  0.0742 -0.0003 -0.0212
  305loPI   C5A 4875   4.987   4.437   8.865 -0.3903  0.0992  0.1258
  305loPI   C6A 4876   5.131   4.204   8.534 -0.2660 -0.2963  0.0925
  305loPI   C1B 4877   5.065   5.141  10.337 -0.2313  0.1717 -0.2142
  305loPI   C2B 4878   5.181   4.925   9.913  0.2030 -0.0862 -0.2542
  305loPI   C3B 4879   5.373   4.929   9.515  0.0592  0.2420  0.4124
  305loPI   C4B 4880   5.374   4.925   9.119  0.0954 -0.1395 -0.0682
  306loPI    C1 4881   5.595  16.888  11.748  0.1052  0.0488 -0.0865
  306loPI    C2 4882   5.611  17.286  11.779  0.2832  0.0232  0.1912
  306loPI    C3 4883   5.373  17.077  12.022  0.0588 -0.0300 -0.0695
  306loPI   PO4 4884   5.586  16.856  11.510 -0.3021  0.3174  0.1428
  306loPI   GL1 4885   5.803  16.791  11.128  0.1590 -0.1697 -0.1663
  306loPI   GL2 4886   6.018  16.496  11.118  0.3421  0.2900 -0.1066
  306loPI   C1A 4887   5.985  16.930  10.810  0.2827  0.1688  0.2150
  306loPI   C2A 4888   6.014  16.984  10.392 -0.0778  0.0640  0.1782
  306loPI   C3A 4889   6.055  16.960   9.884  0.3328 -0.1658 -0.3399
  306loPI   C4A 4890   6.046  17.033   9.474  0.0677  0.0659 -0.0794
  306loPI   C5A 4891   6.082  17.055   8.976 -0.2448  0.1891  0.1441
  306loPI   C6A 4892   6.236  16.731   8.568 -0.0080 -0.1172  0.1911
  306loPI   C1B 4893   5.846  16.519  10.576  0.1073 -0.1355  0.0340
  306loPI   C2B 4894   5.944  16.526  10.158 -0.2286 -0.1374  0.3091
  306loPI   C3B 4895   5.942  16.404   9.649  0.0375  0.2149 -0.0722
  306loPI   C4B 4896   5.774  16.551   9.225 -0.3813 -0.0750 -0.1134
  307loPI    C1 4897  16.083   2.472  11.073 -0.0753 -0.1309  0.0111
  307loPI    C2 4898  16.376   2.525  11.339 -0.0915 -0.2047  0.0438
  307loPI    C3 4899  16.031   2.358  11.453 -0.1536 -0.1007  0.0097
  307loPI   PO4 4900  16.031   2.717  10.989  0.0914 -0.1179 -0.2779
  307loPI   GL1 4901  16.117   2.865  10.581  0.1525  0.2633 -0.0751
  307loPI   GL2 4902  15.809   3.042  10.648  0.2709 -0.0484 -0.0319
  307loPI   C1A 4903  15.891   2.872  10.205  0.1037 -0.1076 -0.2327
  307loPI   C2A 4904  15.980   2.800   9.789  0.3648 -0.1462 -0.5112
  307loPI   C3A 4905  16.030   2.665   9.374 -0.1928 -0.0505  0.0259
  307loPI   C4A 4906  16.159   2.702   8.913 -0.0976  0.1886 -0.1511
  307loPI   C5A 4907  16.386   2.475   8.553  0.0692  0.0228  0.2630
  307loPI   C6A 4908  16.579   2.709   8.199 -0.0993 -0.0101 -0.1012
  307loPI   C1B 4909  15.601   3.246  10.323 -0.1363  0.5519  0.0155
  307loPI   C2B 4910  15.595   3.142   9.882 -0.0956 -0.2184 -0.0928
  307loPI   C3B 4911  15.649   3.049   9.454  0.3873 -0.0905 -0.0303
  307loPI   C4B 4912  15.586   3.158   9.014 -0.0022 -0.5202 -0.3708
  308loPI    C1 4913   4.586  13.897  11.987  0.1345 -0.1463  0.1023
  308loPI    C2 4914   4.822  14.019  12.286 -0.0541 -0.1431  0.2516
  308loPI    C3 4915   4.429  13.973  12.347 -0.0661 -0.3165  0.0527
  308loPI   PO4 4916   4.661  14.004  11.677  0.3268 -0.2983 -0.1346
  308loPI   GL1 4917   4.733  13.987  11.168 -0.0884  0.0094 -0.1147
  308loPI   GL2 4918   4.825  14.230  10.950  0.1955  0.4003  0.1574
  308loPI   C1A 4919   4.803  13.807  10.770 -0.1293  0.0416  0.1316
  308loPI   C2A 4920   4.739  13.699  10.333 -0.1105  0.1301 -0.2042
  308loPI   C3A 4921   4.752  13.799   9.863  0.1808 -0.1533  0.3684
  308loPI   C4A 4922   4.656  13.732   9.428 -0.4230  0.0634 -0.0121
  308loPI   C5A 4923   4.699  13.750   9.054  0.1455 -0.0309 -0.0686
  308loPI   C6A 4924   4.955  13.562   8.765  0.2215 -0.1726 -0.1754
  308loPI   C1B 4925   4.843  14.266  10.543 -0.0531  0.0708 -0.0108
  308loPI   C2B 4926   4.852  14.206  10.184 -0.2641  0.2214  0.1907
  308loPI   C3B 4927   4.850  14.290   9.785  0.0624  0.1174 -0.0162
  308loPI   C4B 4928   4.915  14.328   9.298 -0.1647 -0.2778 -0.2003
  309loPI    C1 4929  15.589   0.440  11.447  0.1868  0.1360  0.0478
  309loPI    C2 4930  15.494   0.382  11.831 -0.0212 -0.3772 -0.0714
  309loPI    C3 4931  15.855   0.275  11.696  0.0670 -0.1582 -0.0149
  309loPI   PO4 4932  15.566   0.705  11.313 -0.2260 -0.0699  0.0713
  309loPI   GL1 4933  15.374   0.536  10.935  0.1217  0.1104  0.2362
  309loPI   GL2 4934  15.558   0.220  10.844  0.0886  0.0311  0.2529
  309loPI   C1A 4935  15.365   0.770  10.559  0.1703 -0.1760  0.2279
  309loPI   C2A 4936  15.403   0.676  10.192 -0.1300 -0.1006 -0.1398
  309loPI   C3A 4937  15.441   0.673   9.807  0.0381  0.0621  0.1371
  309loPI   C4A 4938  15.570   0.661   9.472  0.3168  0.0842  0.0661
  309loPI   C5A 4939  15.678   0.546   9.065 -0.1665  0.0487 -0.0907
  309loPI   C6A 4940  15.499   0.486   8.665 -0.0909 -0.0680  0.1155
  309loPI   C1B 4941  15.337   0.150  10.349  0.0653  0.0287 -0.1553
  309loPI   C2B 4942  15.369   0.106   9.944 -0.0356  0.0017  0.2063
  309loPI   C3B 4943  15.410   0.179   9.483  0.1437 -0.1885  0.1509
  309loPI   C4B 4944  15.291   0.139   9.028  0.0468  0.0262  0.2308
  310loPI    C1 4945  13.055  14.396  11.704  0.0390 -0.1081  0.0526
  310loPI    C2 4946  13.105  14.031  11.858  0.1284 -0.0177  0.2406
  310loPI    C3 4947  12.951  14.324  12.083 -0.1033  0.0185  0.0388
  310loPI   PO4 4948  13.192  14.385  11.358  0.3165  0.0607 -0.0869
  310loPI   GL1 4949  13.091  14.399  10.861 -0.1332  0.1361 -0.1760
  310loPI   GL2 4950  13.432  14.117  10.983  0.0964 -0.0362  0.0561
  310loPI   C1A 4951  13.114  14.372  10.481  0.2767  0.1546  0.0430
  310loPI   C2A 4952  13.210  14.293  10.025  0.0281 -0.1764 -0.1041
  310loPI   C3A 4953  13.127  14.287   9.631  0.0702  0.2343 -0.0971
  310loPI   C4A 4954  13.148  14.412   9.181  0.2006  0.2659  0.0536
  310loPI   C5A 4955  13.186  14.221   8.794  0.1833 -0.1482 -0.2038
  310loPI   C6A 4956  13.165  14.305   8.434 -0.2953  0.2719 -0.1864
  310loPI   C1B 4957  13.391  14.004  10.596  0.0638  0.1419  0.1185
  310loPI   C2B 4958  13.523  13.902  10.235 -0.2675  0.0315  0.0074
  310loPI   C3B 4959  13.494  13.963   9.809 -0.1668  0.1130 -0.0560
  310loPI   C4B 4960  13.561  13.963   9.405 -0.2007  0.1296 -0.1328
  311loPI    C1 4961   3.002  17.006  11.782  0.0042  0.1265 -0.1095
  311loPI    C2 4962   3.401  17.011  11.755  0.0037  0.1183 -0.1194
  311loPI    C3 4963   3.217  16.716  11.954  0.0012  0.1074 -0.1379
  311loPI   PO4 4964   2.945  17.025  11.583  0.0894 -0.1832  0.0026
  311loPI   GL1 4965   2.841  16.821  11.180  0.1028 -0.0462  0.0427
  311loPI   GL2 4966   3.140  16.879  11.045 -0.0766 -0.2798 -0.0820
  311loPI   C1A 4967   2.729  16.871  10.807 -0.0633  0.1847  0.0509
  311loPI   C2A 4968   2.704  16.945  10.415 -0.1642  0.2587  0.2081
  311loPI   C3A 4969   2.732  16.909   9.974 -0.1111  0.1145  0.0202
  311loPI   C4A 4970   2.751  16.910   9.534 -0.0116  0.2270 -0.1245
  311loPI   C5A 4971   2.713  16.784   9.105 -0.3480  0.2022 -0.1145
  311loPI   C6A 4972   2.807  17.060   8.654  0.2063  0.1942  0.0619
  311loPI   C1B 4973   3.163  17.097  10.681  0.0127 -0.1719  0.1514
  311loPI   C2B 4974   3.142  17.156  10.178 -0.0365 -0.2609 -0.0049
  311loPI   C3B 4975   3.272  17.135   9.787 -0.0558 -0.0138  0.0476
  311loPI   C4B 4976   3.254  17.090   9.295 -0.0558  0.1777  0.1474
  312loPI    C1 4977   4.598   1.133  11.780  0.1527  0.0575  0.3629
  312loPI    C2 4978   4.324   1.421  11.737  0.3017  0.1536  0.0244
  312loPI    C3 4979   4.560   1.416  12.059  0.0264  0.1737  0.2298
  312loPI   PO4 4980   4.805   1.149  11.522 -0.4846  0.0546 -0.1699
  312loPI   GL1 4981   4.770   1.076  11.061  0.2080 -0.0459 -0.1207
  312loPI   GL2 4982   4.523   1.206  10.847  0.2766  0.0349  0.0973
  312loPI   C1A 4983   4.891   0.816  10.737 -0.0194 -0.1730  0.1864
  312loPI   C2A 4984   4.899   0.864  10.259  0.1340 -0.0382  0.0273
  312loPI   C3A 4985   4.949   0.944   9.756  0.2692 -0.0775  0.0647
  312loPI   C4A 4986   5.102   0.982   9.398  0.2507  0.2444  0.1800
  312loPI   C5A 4987   4.999   0.881   9.073 -0.1193  0.2197  0.1107
  312loPI   C6A 4988   4.958   1.062   8.686  0.0045 -0.0650 -0.3644
  312loPI   C1B 4989   4.566   1.224  10.407 -0.2711  0.0768 -0.0503
  312loPI   C2B 4990   4.575   1.278   9.980  0.4543  0.0390  0.0531
  312loPI   C3B 4991   4.674   1.327   9.570  0.1102 -0.2650  0.1945
  312loPI   C4B 4992   4.708   1.278   9.139  0.4671 -0.0340  0.1416
  313loPI    C1 4993  13.431  16.113  11.446  0.1979 -0.1230  0.0861
  313loPI    C2 4994  13.480  16.331  11.778 -0.1231 -0.0383  0.0812
  313loPI    C3 4995  13.250  16.003  11.785 -0.1581 -0.0179 -0.0644
  313loPI   PO4 4996  13.311  16.293  11.254  0.2119 -0.5818  0.1152
  313loPI   GL1 4997  13.274  16.163  10.920  0.0273  0.0854 -0.0700
  313loPI   GL2 4998  13.058  15.953  10.913  0.1076  0.1220 -0.1477
  313loPI   C1A 4999  13.195  16.210  10.448  0.0975 -0.1082  0.1085
  313loPI   C2A 5000  13.107  16.260   9.985 -0.0552  0.0209  0.1639
  313loPI   C3A 5001  13.117  16.246   9.546 -0.1764  0.0525 -0.4741
  313loPI   C4A 5002  13.283  16.338   9.134 -0.1778 -0.0161 -0.0256
  313loPI   C5A 5003  13.577  16.430   8.708 -0.0549  0.1645  0.0890
  313loPI   C6A 5004  13.636  16.219   8.322  0.0661 -0.0462 -0.3310
  313loPI   C1B 5005  13.097  15.682  10.495 -0.2350 -0.0235  0.1288
  313loPI   C2B 5006  13.043  15.670   9.995 -0.0168  0.1777  0.4140
  313loPI   C3B 5007  13.025  15.765   9.527 -0.2881 -0.1500  0.5907
  313loPI   C4B 5008  13.178  15.755   9.063  0.3893  0.0267  0.0222
  314loPI    C1 5009  10.071   6.605  11.689 -0.2324  0.2217 -0.2070
  314loPI    C2 5010  10.073   6.895  11.964 -0.1965 -0.1995  0.2505
  314loPI    C3 5011   9.987   6.519  12.071 -0.0001 -0.4058 -0.2848
  314loPI   PO4 5012  10.291   6.598  11.515  0.0614 -0.1360  0.1114
  314loPI   GL1 5013  10.267   6.461  11.071  0.1179 -0.0623  0.0813
  314loPI   GL2 5014  10.591   6.250  11.174  0.2120  0.1235  0.3863
  314loPI   C1A 5015  10.302   6.305  10.747  0.1366  0.3605  0.4160
  314loPI   C2A 5016  10.359   6.351  10.379  0.1996  0.0921 -0.3021
  314loPI   C3A 5017  10.328   6.477   9.947 -0.0053 -0.3625  0.2434
  314loPI   C4A 5018  10.297   6.352   9.505 -0.1385 -0.1030 -0.0947
  314loPI   C5A 5019  10.078   6.407   9.083  0.0564 -0.1260 -0.0583
  314loPI   C6A 5020   9.679   6.328   8.910  0.0296 -0.1484  0.0564
  314loPI   C1B 5021  10.805   6.493  10.877  0.3094 -0.0697  0.1692
  314loPI   C2B 5022  10.849   6.556  10.408 -0.0549 -0.4684 -0.1697
  314loPI   C3B 5023  10.804   6.500  10.028  0.1018 -0.0353 -0.1666
  314loPI   C4B 5024  10.783   6.557   9.617 -0.0785  0.1896  0.3849
  315loPI    C1 5025   2.585   9.657  11.406 -0.0830  0.1844  0.0559
  315loPI    C2 5026   2.413   9.654  11.767 -0.3384 -0.1446 -0.0632
  315loPI    C3 5027   2.203   9.767  11.445 -0.1143  0.1400 -0.1144
  315loPI   PO4 5028   2.829   9.756  11.417 -0.0379 -0.0920 -0.1168
  315loPI   GL1 5029   3.029   9.804  11.187 -0.1460 -0.1240  0.1190
  315loPI   GL2 5030   3.137   9.566  10.976 -0.0090  0.1282  0.1039
  315loPI   C1A 5031   2.768   9.873  10.783 -0.2135 -0.0097  0.0782
  315loPI   C2A 5032   2.751   9.875  10.415  0.3672 -0.4912 -0.1894
  315loPI   C3A 5033   2.838   9.895  10.036 -0.0224 -0.0772 -0.0042
  315loPI   C4A 5034   2.832   9.918   9.584 -0.2778  0.0824 -0.0723
  315loPI   C5A 5035   2.931  10.045   9.146  0.1603  0.2629  0.1816
  315loPI   C6A 5036   3.239  10.273   8.907  0.1036 -0.0138 -0.0613
  315loPI   C1B 5037   3.124   9.540  10.545  0.2316 -0.0269 -0.4055
  315loPI   C2B 5038   3.186   9.512  10.044  0.1657  0.0918 -0.1508
  315loPI   C3B 5039   3.303   9.516   9.687  0.0195  0.2901  0.0240
  315loPI   C4B 5040   3.154   9.594   9.323  0.0316 -0.0141  0.0627
  316loPI    C1 5041  10.325   8.497  11.702 -0.1636 -0.1188  0.0245
  316loPI    C2 5042  10.466   8.145  11.831  0.0016  0.0145  0.2132
  316loPI    C3 5043  10.327   8.413  12.093  0.1461  0.2056  0.0972
  316loPI   PO4 5044  10.226   8.377  11.412 -0.1250  0.3254 -0.0713
  316loPI   GL1 5045  10.212   8.300  10.973 -0.2236 -0.0256 -0.0107
  316loPI   GL2 5046  10.323   8.017  10.996  0.2957  0.1965  0.0092
  316loPI   C1A 5047  10.214   8.254  10.542 -0.0196 -0.2153  0.1879
  316loPI   C2A 5048  10.258   8.219  10.188 -0.1393  0.0270 -0.0889
  316loPI   C3A 5049  10.321   8.253   9.730  0.2578 -0.0799 -0.4256
  316loPI   C4A 5050  10.318   8.257   9.328 -0.1849 -0.0909  0.1706
  316loPI   C5A 5051  10.195   8.293   8.908 -0.4009 -0.0693  0.1393
  316loPI   C6A 5052  10.146   8.254   8.502 -0.5135 -0.0214 -0.3916
  316loPI   C1B 5053  10.588   7.837  10.641 -0.4181 -0.0963  0.0306
  316loPI   C2B 5054  10.655   7.923  10.221  0.1479 -0.0339  0.1289
  316loPI   C3B 5055  10.688   7.906   9.760 -0.0075 -0.0834 -0.0121
  316loPI   C4B 5056  10.707   7.945   9.319 -0.3732  0.2966 -0.0903
  317loPI    C1 5057  15.353   5.921  11.414  0.2095  0.2366 -0.0122
  317loPI    C2 5058  15.387   5.576  11.615 -0.0913  0.1200 -0.1551
  317loPI    C3 5059  15.285   5.911  11.808  0.1219  0.1145 -0.0298
  317loPI   PO4 5060  15.333   5.751  11.131 -0.1443 -0.1269 -0.0722
  317loPI   GL1 5061  15.149   5.559  10.830 -0.0617  0.0858 -0.2307
  317loPI   GL2 5062  14.885   5.704  10.609 -0.3272 -0.1793  0.2183
  317loPI   C1A 5063  15.315   5.463  10.461  0.1815  0.1292 -0.1470
  317loPI   C2A 5064  15.604   5.534  10.099  0.1983  0.2209  0.0314
  317loPI   C3A 5065  15.664   5.463   9.652  0.0185 -0.0688  0.0510
  317loPI   C4A 5066  15.688   5.410   9.262  0.0018  0.2648 -0.2228
  317loPI   C5A 5067  15.915   5.350   8.813  0.1902  0.3340 -0.1485
  317loPI   C6A 5068  16.219   5.633   8.591  0.4768  0.1642  0.0001
  317loPI   C1B 5069  14.792   5.386  10.189 -0.0393  0.0232  0.1385
  317loPI   C2B 5070  14.741   5.318   9.725 -0.1293 -0.0811  0.0093
  317loPI   C3B 5071  14.695   5.304   9.255 -0.1278 -0.0575 -0.1009
  317loPI   C4B 5072  14.716   5.183   8.845 -0.0695  0.0257 -0.2641
  318loPI    C1 5073   1.924  15.286  11.497  0.0096 -0.0256 -0.0120
  318loPI    C2 5074   1.819  15.006  11.762 -0.1399 -0.1040 -0.1530
  318loPI    C3 5075   1.565  15.301  11.672  0.0605  0.1447  0.0805
  318loPI   PO4 5076   2.087  15.239  11.342  0.0621  0.3473 -0.3608
  318loPI   GL1 5077   2.315  15.068  11.034 -0.1034  0.3085  0.0722
  318loPI   GL2 5078   2.236  15.393  10.850 -0.0678 -0.2594  0.1349
  318loPI   C1A 5079   2.201  14.935  10.680  0.1026 -0.0729  0.0851
  318loPI   C2A 5080   2.137  14.965  10.242 -0.1129  0.0695 -0.0394
  318loPI   C3A 5081   2.230  14.943   9.804 -0.0497  0.0813 -0.0013
  318loPI   C4A 5082   2.279  14.869   9.391 -0.3162  0.0104 -0.1260
  318loPI   C5A 5083   2.173  14.722   9.050  0.1931 -0.1356  0.1715
  318loPI   C6A 5084   2.224  14.204   8.971  0.0147  0.0648  0.2952
  318loPI   C1B 5085   2.320  15.405  10.411 -0.2229 -0.0115 -0.4308
  318loPI   C2B 5086   2.241  15.403  10.023 -0.0680  0.2879 -0.2357
  318loPI   C3B 5087   2.330  15.372   9.585  0.0916  0.0227 -0.1943
  318loPI   C4B 5088   2.292  15.316   9.126  0.0253 -0.1051 -0.1079
  319loPI    C1 5089   4.634   6.161  11.774  0.0099 -0.1030  0.0067
  319loPI    C2 5090   4.424   6.432  11.980  0.0002 -0.0145 -0.1181
  319loPI    C3 5091   4.639   6.156  12.174 -0.0853  0.0078  0.0099
  319loPI   PO4 5092   4.685   6.269  11.557 -0.1573 -0.1438 -0.1662
  319loPI   GL1 5093   4.387   6.160  11.144 -0.1694 -0.0091  0.0895
  319loPI   GL2 5094   4.502   5.937  10.921  0.1801  0.0743  0.0377
  319loPI   C1A 5095   4.757   6.370  10.850  0.1318 -0.0349 -0.0161
  319loPI   C2A 5096   4.794   6.489  10.488  0.1717  0.2480  0.1186
  319loPI   C3A 5097   4.806   6.166  10.104 -0.0540 -0.1541 -0.0009
  319loPI   C4A 5098   4.710   6.167   9.634 -0.0541 -0.0206 -0.2648
  319loPI   C5A 5099   4.588   6.078   9.175 -0.1800 -0.2216  0.1980
  319loPI   C6A 5100   4.467   5.942   8.789 -0.0948  0.1171  0.1684
  319loPI   C1B 5101   4.638   5.924  10.475  0.0235  0.2226  0.2226
  319loPI   C2B 5102   4.504   5.782  10.052  0.1261 -0.2338 -0.2161
  319loPI   C3B 5103   4.589   5.665   9.632  0.1770  0.3395  0.1670
  319loPI   C4B 5104   4.527   5.594   9.147  0.2344  0.1568 -0.2329
  320loPI    C1 5105   1.510   3.943  11.381  0.1989  0.1316  0.3011
  320loPI    C2 5106   1.466   3.598  11.578 -0.3765  0.0368  0.0283
  320loPI    C3 5107   1.308   3.934  11.726 -0.1559  0.1122  0.0973
  320loPI   PO4 5108   1.497   3.894  11.125  0.0562 -0.1770  0.2502
  320loPI   GL1 5109   1.709   3.884  10.741 -0.1753  0.0399 -0.0044
  320loPI   GL2 5110   1.869   3.669  10.717  0.1226 -0.0919 -0.1643
  320loPI   C1A 5111   1.500   4.089  10.416 -0.1105 -0.1245  0.1420
  320loPI   C2A 5112   1.534   4.160  10.005 -0.0656 -0.0441 -0.3331
  320loPI   C3A 5113   1.433   4.138   9.632 -0.1084 -0.4597 -0.1474
  320loPI   C4A 5114   1.526   4.166   9.220 -0.2607  0.4485 -0.1199
  320loPI   C5A 5115   1.370   4.159   8.840 -0.0598  0.2088  0.4870
  320loPI   C6A 5116   1.058   4.388   8.716 -0.0792 -0.1164  0.4009
  320loPI   C1B 5117   1.823   3.769  10.202  0.2336 -0.1261 -0.1610
  320loPI   C2B 5118   1.907   3.854   9.807 -0.0987  0.1117 -0.1859
  320loPI   C3B 5119   1.802   3.818   9.423  0.1904  0.2497  0.0413
  320loPI   C4B 5120   1.799   3.712   9.014 -0.0698  0.3629 -0.2160
  321loPI    C1 5121   1.045   0.559  11.416  0.0007 -0.2155  0.0719
  321loPI    C2 5122   0.981   0.283  11.697  0.3885 -0.3301  0.0540
  321loPI    C3 5123   1.231   0.587  11.769 -0.0506  0.0361  0.0814
  321loPI   PO4 5124   1.058   0.366  11.129  0.1480  0.1463  0.0042
  321loPI   GL1 5125   1.279   0.148  10.844  0.2020  0.0466  0.1001
  321loPI   GL2 5126   1.386  -0.194  10.744 -0.0241  0.0592  0.1264
  321loPI   C1A 5127   1.060   0.166  10.531 -0.2123  0.0355  0.0537
  321loPI   C2A 5128   1.086   0.197  10.028  0.4795 -0.1370  0.5858
  321loPI   C3A 5129   1.185   0.219   9.547  0.1014  0.0471 -0.1125
  321loPI   C4A 5130   1.160   0.021   9.166  0.0729  0.3193  0.3194
  321loPI   C5A 5131   0.913  -0.259   8.815  0.2417 -0.0248  0.0253
  321loPI   C6A 5132   0.752  -0.343   8.418 -0.0632  0.0884 -0.0773
  321loPI   C1B 5133   1.518  -0.144  10.297 -0.0647  0.5135 -0.0251
  321loPI   C2B 5134   1.395  -0.160   9.920  0.2522  0.0740 -0.5018
  321loPI   C3B 5135   1.551  -0.213   9.430 -0.1144 -0.0805  0.1377
  321loPI   C4B 5136   1.518  -0.209   8.941 -0.2686 -0.1100 -0.3640
  322loPI    C1 5137   5.581  12.341  11.494 -0.1218  0.0076  0.0715
  322loPI    C2 5138   5.681  12.705  11.363 -0.2659  0.0305  0.0235
  322loPI    C3 5139   5.542  12.657  11.735 -0.4187  0.0516 -0.0302
  322loPI   PO4 5140   5.665  12.197  11.250  0.0853 -0.0428  0.0028
  322loPI   GL1 5141   5.954  12.328  11.009  0.1935 -0.0785  0.2032
  322loPI   GL2 5142   5.797  12.572  10.804 -0.4033 -0.2496  0.2193
  322loPI   C1A 5143   5.997  12.097  10.604 -0.3442 -0.0809 -0.0931
  322loPI   C2A 5144   6.084  12.194  10.240  0.1054 -0.2448  0.2899
  322loPI   C3A 5145   6.184  12.199   9.915  0.0147  0.1368 -0.3916
  322loPI   C4A 5146   6.160  12.229   9.448 -0.0978 -0.0667  0.2508
  322loPI   C5A 5147   6.298  12.170   9.113 -0.3274 -0.2413 -0.1552
  322loPI   C6A 5148   6.345  12.318   8.659  0.0941  0.2593 -0.2520
  322loPI   C1B 5149   5.950  12.668  10.365 -0.0096 -0.0002  0.3463
  322loPI   C2B 5150   5.818  12.634   9.855  0.0540  0.0391 -0.2271
  322loPI   C3B 5151   5.816  12.684   9.406 -0.2074  0.0169  0.1538
  322loPI   C4B 5152   5.973  12.548   9.031 -0.1616  0.1044 -0.1050
  323loPI    C1 5153   6.077   6.269  11.610  0.2522 -0.2167 -0.0038
  323loPI    C2 5154   6.252   6.332  11.963 -0.2059  0.0296  0.1880
  323loPI    C3 5155   5.919   6.112  11.942 -0.2985  0.1892 -0.0587
  323loPI   PO4 5156   6.218   6.265  11.446  0.1141 -0.1395 -0.2194
  323loPI   GL1 5157   6.048   6.128  11.116  0.3506 -0.1480 -0.1007
  323loPI   GL2 5158   6.149   6.437  11.001  0.0116 -0.0065  0.1636
  323loPI   C1A 5159   6.044   5.951  10.767 -0.0015 -0.2139 -0.0277
  323loPI   C2A 5160   6.086   6.014  10.310  0.2240  0.2695  0.0455
  323loPI   C3A 5161   5.998   6.067   9.854  0.1299 -0.1358  0.1142
  323loPI   C4A 5162   5.968   6.210   9.379 -0.0342 -0.1915 -0.0698
  323loPI   C5A 5163   5.586   6.569   9.239  0.2875  0.3199  0.1122
  323loPI   C6A 5164   5.148   6.822   9.100 -0.3288 -0.1578 -0.2497
  323loPI   C1B 5165   6.139   6.499  10.658 -0.1561 -0.1631  0.0684
  323loPI   C2B 5166   6.109   6.645  10.288 -0.2107 -0.3158  0.5476
  323loPI   C3B 5167   6.137   6.582   9.845 -0.4280  0.1158 -0.2733
  323loPI   C4B 5168   6.263   6.609   9.405  0.2174 -0.0061  0.0862
  324loPI    C1 5169  13.372  16.861  11.772 -0.1013 -0.2406 -0.0646
  324loPI    C2 5170  13.212  16.675  12.088 -0.0283 -0.2727 -0.0464
  324loPI    C3 5171  12.996  16.942  11.883 -0.1301 -0.3697 -0.0665
  324loPI   PO4 5172  13.395  16.773  11.579 -0.0728  0.2039  0.0926
  324loPI   GL1 5173  13.416  16.855  11.082  0.1271 -0.3123 -0.1883
  324loPI   GL2 5174  13.731  16.741  11.208  0.1215 -0.0070  0.3539
  324loPI   C1A 5175  13.262  16.677  10.682 -0.1078  0.1375  0.0951
  324loPI   C2A 5176  13.281  16.685  10.273  0.2677 -0.1070 -0.0571
  324loPI   C3A 5177  13.241  16.737   9.831  0.2019 -0.1387  0.1354
  324loPI   C4A 5178  13.216  16.778   9.470  0.1856 -0.1159  0.1472
  324loPI   C5A 5179  13.085  16.735   8.953  0.3344  0.0452 -0.0200
  324loPI   C6A 5180  12.685  16.857   8.850  0.2167  0.4747 -0.0064
  324loPI   C1B 5181  13.783  16.685  10.756  0.0670 -0.1875  0.1398
  324loPI   C2B 5182  13.797  16.781  10.335 -0.3915 -0.0348  0.0120
  324loPI   C3B 5183  13.803  16.868   9.986  0.1692 -0.1002 -0.0453
  324loPI   C4B 5184  13.872  16.914   9.585  0.1392  0.0216 -0.3294
  325loPI    C1 5185   6.213   6.757  11.364  0.1357  0.2778  0.0323
  325loPI    C2 5186   6.423   6.741  11.704  0.0893 -0.1409  0.0463
  325loPI    C3 5187   6.024   6.758  11.717  0.0921 -0.0417  0.0125
  325loPI   PO4 5188   6.122   6.939  11.192 -0.2417 -0.2360 -0.2919
  325loPI   GL1 5189   6.122   7.109  10.885  0.2159 -0.1085  0.0803
  325loPI   GL2 5190   6.411   6.870  10.796 -0.3108  0.0094 -0.0290
  325loPI   C1A 5191   6.225   7.212  10.471  0.1983 -0.2254 -0.1221
  325loPI   C2A 5192   6.273   7.102  10.093  0.1627 -0.1861  0.0577
  325loPI   C3A 5193   6.362   7.127   9.595 -0.0935 -0.0282 -0.1270
  325loPI   C4A 5194   6.339   7.192   9.204  0.3253  0.1572  0.2652
  325loPI   C5A 5195   6.410   7.300   8.807 -0.1355 -0.0645  0.1200
  325loPI   C6A 5196   6.501   7.355   8.437  0.0443 -0.0417  0.1013
  325loPI   C1B 5197   6.657   6.701  10.510 -0.4172  0.0364 -0.0329
  325loPI   C2B 5198   6.575   6.708  10.125 -0.3358 -0.2138  0.2054
  325loPI   C3B 5199   6.747   6.722   9.726 -0.3781 -0.0392 -0.2774
  325loPI   C4B 5200   6.748   6.790   9.313  0.1518 -0.2980  0.1426
  326loPI    C1 5201  10.907  12.185  11.599 -0.0003  0.2900  0.1317
  326loPI    C2 5202  10.715  12.210  11.949 -0.0916  0.2097  0.0876
  326loPI    C3 5203  11.014  11.948  11.904 -0.0621  0.2391  0.1139
  326loPI   PO4 5204  10.666  12.252  11.397 -0.1912  0.2565  0.0610
  326loPI   GL1 5205  10.521  12.341  11.050 -0.1555  0.4861  0.1880
  326loPI   GL2 5206  10.798  12.164  10.899  0.0458 -0.1033 -0.2285
  326loPI   C1A 5207  10.357  12.438  10.617 -0.0527  0.0759  0.1686
  326loPI   C2A 5208  10.356  12.583  10.165 -0.1606 -0.0054 -0.3301
  326loPI   C3A 5209  10.383  12.593   9.768 -0.1759  0.0637  0.1996
  326loPI   C4A 5210  10.360  12.572   9.357  0.0463 -0.0614 -0.1431
  326loPI   C5A 5211  10.498  12.527   8.904  0.1567 -0.1753  0.1196
  326loPI   C6A 5212  10.357  12.571   8.503 -0.5381 -0.0696  0.0370
  326loPI   C1B 5213  10.666  12.145  10.428  0.2904  0.3258  0.0723
  326loPI   C2B 5214  10.701  12.165   9.973 -0.0909  0.1171  0.1864
  326loPI   C3B 5215  10.750  12.198   9.532 -0.0894  0.0028 -0.1612
  326loPI   C4B 5216  10.891  12.362   9.179  0.0748  0.1469 -0.3229
  327loPI    C1 5217  15.926  11.607  11.542 -0.1543  0.1400  0.0472
  327loPI    C2 5218  16.124  11.400  11.262  0.1916  0.1549  0.2736
  327loPI    C3 5219  15.815  11.233  11.454  0.0429  0.0940 -0.0127
  327loPI   PO4 5220  15.989  11.912  11.403  0.1695 -0.0197  0.0602
  327loPI   GL1 5221  15.984  11.852  11.008 -0.0420 -0.0641  0.1234
  327loPI   GL2 5222  15.827  11.731  10.743 -0.3142  0.0001 -0.1671
  327loPI   C1A 5223  15.904  12.298  10.758  0.5446 -0.0373  0.1108
  327loPI   C2A 5224  15.859  12.382  10.352 -0.1765  0.2583 -0.0759
  327loPI   C3A 5225  15.939  12.276   9.857 -0.0023 -0.1471  0.0788
  327loPI   C4A 5226  15.955  12.360   9.389  0.0088 -0.2084 -0.1080
  327loPI   C5A 5227  16.055  12.271   8.928  0.0463  0.0425  0.0119
  327loPI   C6A 5228  16.184  12.254   8.538  0.2526 -0.1347 -0.1665
  327loPI   C1B 5229  15.879  11.850  10.345 -0.1003  0.2616  0.2769
  327loPI   C2B 5230  15.834  11.796   9.940 -0.0463  0.1173  0.0969
  327loPI   C3B 5231  15.815  11.808   9.617  0.2496 -0.0237  0.2797
  327loPI   C4B 5232  15.932  11.801   9.256 -0.2782 -0.1834  0.3548
  328loPI    C1 5233  14.739   5.459  11.081 -0.0617 -0.0127  0.0501
  328loPI    C2 5234  14.526   5.315  11.388  0.0368 -0.0142  0.1183
  328loPI    C3 5235  14.865   5.134  11.277  0.0403  0.0300  0.0559
  328loPI   PO4 5236  14.577   5.723  11.091 -0.4994  0.0773 -0.0222
  328loPI   GL1 5237  14.470   6.145  10.837  0.0437 -0.0543  0.1255
  328loPI   GL2 5238  14.099   6.084  10.928 -0.0371  0.2573 -0.0920
  328loPI   C1A 5239  14.457   6.147  10.464 -0.1362  0.2188 -0.0551
  328loPI   C2A 5240  14.511   6.266  10.044  0.2848  0.3279 -0.0909
  328loPI   C3A 5241  14.581   6.362   9.662 -0.2736 -0.4487  0.2861
  328loPI   C4A 5242  14.686   6.211   9.284 -0.1830 -0.1146  0.3333
  328loPI   C5A 5243  14.813   6.185   8.925  0.0864 -0.4610  0.0852
  328loPI   C6A 5244  14.985   6.037   8.516  0.1976  0.0118 -0.1250
  328loPI   C1B 5245  13.965   6.046  10.493  0.2823 -0.2220  0.1889
  328loPI   C2B 5246  13.963   6.038  10.108 -0.1299  0.2907  0.1025
  328loPI   C3B 5247  14.079   6.205   9.751 -0.3179  0.0528  0.1078
  328loPI   C4B 5248  13.840   6.153   9.351  0.3944 -0.0856  0.2612
  329loPI    C1 5249  13.462   6.940  11.536  0.1645  0.0785  0.0665
  329loPI    C2 5250  13.427   6.542  11.519  0.0302  0.1002 -0.2404
  329loPI    C3 5251  13.390   6.731  11.869  0.1041 -0.1565 -0.0909
  329loPI   PO4 5252  13.329   7.029  11.317 -0.0911  0.0597 -0.0093
  329loPI   GL1 5253  13.362   7.035  10.937 -0.0548  0.1297 -0.2340
  329loPI   GL2 5254  13.267   7.379  10.932 -0.1967 -0.1653 -0.3592
  329loPI   C1A 5255  13.244   6.826  10.543  0.1350 -0.0254 -0.1187
  329loPI   C2A 5256  13.120   6.791  10.095  0.3456  0.1150 -0.2333
  329loPI   C3A 5257  13.161   6.821   9.686 -0.0556 -0.2639  0.2272
  329loPI   C4A 5258  13.037   6.831   9.190  0.0831 -0.0136  0.0033
  329loPI   C5A 5259  12.813   6.921   8.764  0.1566  0.2234  0.0068
  329loPI   C6A 5260  12.629   7.150   8.547  0.1155  0.0698 -0.0046
  329loPI   C1B 5261  13.247   7.353  10.451  0.1597 -0.0652 -0.0294
  329loPI   C2B 5262  13.273   7.304  10.020  0.1190  0.1055  0.2953
  329loPI   C3B 5263  13.242   7.293   9.547 -0.2208 -0.1341 -0.0102
  329loPI   C4B 5264  13.120   7.295   9.113 -0.1006  0.2545 -0.1732
  330loPI    C1 5265   9.766   1.302  11.849  0.0806 -0.1691  0.1765
  330loPI    C2 5266   9.814   1.639  12.059 -0.2695  0.0337 -0.0579
  330loPI    C3 5267   9.709   1.301  12.245 -0.0803  0.0901  0.1564
  330loPI   PO4 5268   9.791   1.371  11.621 -0.1076 -0.1197  0.0836
  330loPI   GL1 5269  10.010   1.659  11.290  0.0721  0.2312 -0.0404
  330loPI   GL2 5270  10.247   1.731  11.277 -0.1663 -0.0916  0.2661
  330loPI   C1A 5271  10.145   1.473  10.857 -0.1356 -0.3100  0.2031
  330loPI   C2A 5272  10.079   1.612  10.492 -0.0472  0.1179  0.3936
  330loPI   C3A 5273  10.169   1.577  10.007  0.1430  0.0086 -0.2603
  330loPI   C4A 5274  10.236   1.549   9.551  0.1823 -0.1556 -0.0236
  330loPI   C5A 5275  10.144   1.678   9.163 -0.2317  0.1483 -0.3954
  330loPI   C6A 5276  10.232   1.923   8.840 -0.0903 -0.0052  0.0653
  330loPI   C1B 5277  10.286   1.965  10.985 -0.0327 -0.1131  0.0191
  330loPI   C2B 5278  10.201   2.076  10.512  0.2097 -0.1664  0.0964
  330loPI   C3B 5279  10.306   2.064  10.078  0.0082  0.0864  0.4388
  330loPI   C4B 5280  10.348   2.036   9.637  0.2058  0.1216 -0.0051
  331loPI    C1 5281  16.388  16.579  11.368 -0.0215  0.0831 -0.1543
  331loPI    C2 5282  16.043  16.586  11.571  0.1239 -0.1742  0.1102
  331loPI    C3 5283  16.391  16.592  11.768  0.2709 -0.1238 -0.1465
  331loPI   PO4 5284  16.384  16.642  11.227 -0.3441 -0.2344 -0.4430
  331loPI   GL1 5285  16.451  16.453  10.879  0.1642  0.0591 -0.0440
  331loPI   GL2 5286  16.621  16.741  10.712  0.1602 -0.2730 -0.0277
  331loPI   C1A 5287  16.462  16.232  10.540  0.0927  0.1427 -0.0608
  331loPI   C2A 5288  16.309  16.312  10.136 -0.0679 -0.1314 -0.0432
  331loPI   C3A 5289  16.284  16.123   9.699 -0.0816  0.3197  0.1259
  331loPI   C4A 5290  16.439  16.248   9.254 -0.0378 -0.1388  0.2542
  331loPI   C5A 5291  16.520  16.192   8.835  0.2929 -0.0777  0.1074
  331loPI   C6A 5292  16.417  16.059   8.418 -0.1755 -0.0075 -0.0175
  331loPI   C1B 5293  16.464  16.820  10.305  0.4767  0.0263  0.1251
  331loPI   C2B 5294  16.496  16.765   9.829 -0.3476 -0.1261 -0.0034
  331loPI   C3B 5295  16.509  16.881   9.294  0.3497  0.2379  0.0108
  331loPI   C4B 5296  16.696  16.669   8.884 -0.0814  0.2116 -0.0831
  332loPI    C1 5297   6.058   0.090  11.652  0.0512 -0.0816 -0.1932
  332loPI    C2 5298   6.341  -0.182  11.730 -0.1120 -0.2272 -0.1012
  332loPI    C3 5299   6.085  -0.072  12.017  0.1138  0.2189 -0.0617
  332loPI   PO4 5300   5.995   0.015  11.441 -0.1960 -0.2961  0.0255
  332loPI   GL1 5301   6.096  -0.117  11.136 -0.1677 -0.2137 -0.1937
  332loPI   GL2 5302   6.398  -0.255  11.217 -0.0569 -0.0867  0.0111
  332loPI   C1A 5303   6.073  -0.178  10.651  0.2443 -0.1306 -0.2566
  332loPI   C2A 5304   6.112  -0.086  10.212  0.3347 -0.0661 -0.2049
  332loPI   C3A 5305   6.203  -0.168   9.766  0.1553  0.1429  0.1562
  332loPI   C4A 5306   6.110  -0.090   9.378 -0.3706  0.2724  0.1774
  332loPI   C5A 5307   6.172  -0.042   9.043 -0.1089 -0.0867 -0.2661
  332loPI   C6A 5308   6.117   0.099   8.670 -0.0516  0.3746 -0.0885
  332loPI   C1B 5309   6.594  -0.105  10.871 -0.2054  0.0889 -0.1279
  332loPI   C2B 5310   6.584   0.052  10.508 -0.2138  0.0840  0.2862
  332loPI   C3B 5311   6.605   0.059  10.037 -0.1699 -0.1624 -0.2333
  332loPI   C4B 5312   6.673  -0.029   9.666 -0.0234  0.1013  0.3053
  333loPI    C1 5313   2.364   2.212  11.673  0.2363  0.1660  0.1766
  333loPI    C2 5314   2.201   2.573  11.730 -0.0600  0.0334  0.1822
  333loPI    C3 5315   2.158   2.288  12.008 -0.1059 -0.1060  0.0338
  333loPI   PO4 5316   2.549   2.290  11.491  0.0431 -0.0682 -0.3858
  333loPI   GL1 5317   2.780   2.264  11.136  0.0043  0.3079 -0.0232
  333loPI   GL2 5318   2.742   2.547  10.936 -0.2504  0.0869  0.0104
  333loPI   C1A 5319   2.826   2.086  10.700  0.0084  0.3245  0.0778
  333loPI   C2A 5320   2.932   2.211  10.314  0.1746 -0.1133 -0.0662
  333loPI   C3A 5321   2.929   2.186   9.935  0.0961  0.3287  0.0131
  333loPI   C4A 5322   2.906   2.077   9.526  0.0166 -0.3572 -0.2785
  333loPI   C5A 5323   2.997   2.138   9.126 -0.2742  0.0370  0.1898
  333loPI   C6A 5324   2.776   2.403   8.852 -0.1731 -0.0179  0.2774
  333loPI   C1B 5325   2.546   2.565  10.560 -0.2547  0.1378  0.1474
  333loPI   C2B 5326   2.498   2.554  10.232 -0.0430 -0.2171  0.2507
  333loPI   C3B 5327   2.593   2.525   9.772 -0.1216 -0.0569 -0.1987
  333loPI   C4B 5328   2.544   2.521   9.353 -0.1667  0.3058  0.1970
  334loPI    C1 5329  12.530  16.787  11.760 -0.1269 -0.0663  0.1015
  334loPI    C2 5330  12.295  16.744  12.081 -0.0225 -0.2058  0.1605
  334loPI    C3 5331  12.680  16.638  12.099  0.0343 -0.0237  0.0498
  334loPI   PO4 5332  12.459  16.662  11.540  0.0497 -0.0324 -0.0315
  334loPI   GL1 5333  12.393  16.660  11.056 -0.1039 -0.0318 -0.1398
  334loPI   GL2 5334  12.358  16.964  10.835 -0.0053  0.4626 -0.2863
  334loPI   C1A 5335  12.274  16.519  10.639  0.0896 -0.2035  0.3061
  334loPI   C2A 5336  12.308  16.487  10.092 -0.3112 -0.1179 -0.0797
  334loPI   C3A 5337  12.218  16.463   9.614  0.3070 -0.2702  0.1751
  334loPI   C4A 5338  12.172  16.365   9.117  0.2421  0.2484  0.1553
  334loPI   C5A 5339  12.168  16.526   8.585  0.1183 -0.2044 -0.2023
  334loPI   C6A 5340  12.234  16.872   8.227  0.1039  0.0560 -0.2850
  334loPI   C1B 5341  12.396  17.012  10.413 -0.1040  0.0420 -0.4227
  334loPI   C2B 5342  12.370  17.066   9.971 -0.1502 -0.0447 -0.0339
  334loPI   C3B 5343  12.404  16.976   9.606  0.1916  0.0154 -0.0255
  334loPI   C4B 5344  12.302  16.869   9.257 -0.0442 -0.3074 -0.2143
  335loPI    C1 5345  16.405  14.602  11.390  0.1917 -0.1698 -0.0020
  335loPI    C2 5346  16.148  14.440  11.651 -0.0024 -0.0888 -0.1408
  335loPI    C3 5347  16.541  14.378  11.693 -0.0541 -0.3457 -0.0187
  335loPI   PO4 5348  16.370  14.555  11.202 -0.0339  0.1559  0.0028
  335loPI   GL1 5349  16.409  14.253  10.812 -0.0935 -0.0715  0.0371
  335loPI   GL2 5350  16.112  14.473  10.787  0.2097 -0.0640  0.2971
  335loPI   C1A 5351  16.362  14.272  10.371  0.0030 -0.2720  0.2355
  335loPI   C2A 5352  16.469  14.347  10.011 -0.2456  0.1176 -0.1073
  335loPI   C3A 5353  16.313  14.321   9.601 -0.2864  0.4792 -0.0199
  335loPI   C4A 5354  16.341  14.369   9.215  0.1626 -0.0389  0.1236
  335loPI   C5A 5355  16.318  14.457   8.749 -0.2363 -0.2548  0.0936
  335loPI   C6A 5356  16.406  14.844   8.625 -0.0266  0.0035 -0.0238
  335loPI   C1B 5357  16.025  14.622  10.307  0.0716 -0.3566 -0.3605
  335loPI   C2B 5358  15.990  14.667   9.878 -0.1109 -0.1048 -0.0036
  335loPI   C3B 5359  16.035  14.754   9.468  0.0868  0.0794 -0.0662
  335loPI   C4B 5360  16.019  14.786   9.105  0.1054  0.0631  0.0687
  336loPI    C1 5361   9.949   3.435  11.731  0.0138 -0.0946 -0.1022
  336loPI    C2 5362  10.298   3.533  11.900 -0.0165 -0.1557 -0.0038
  336loPI    C3 5363  10.123   3.185  11.990 -0.0019 -0.2176 -0.2092
  336loPI   PO4 5364   9.897   3.452  11.546  0.2880 -0.2264 -0.0431
  336loPI   GL1 5365   9.908   3.240  11.209  0.0032  0.0987 -0.1621
  336loPI   GL2 5366  10.220   3.372  10.959 -0.1254 -0.2249  0.0305
  336loPI   C1A 5367   9.662   3.322  10.974 -0.3421 -0.1126 -0.4688
  336loPI   C2A 5368   9.726   3.266  10.483  0.0715 -0.1915  0.0414
  336loPI   C3A 5369   9.620   3.345   9.958  0.1474 -0.0231 -0.0658
  336loPI   C4A 5370   9.730   3.393   9.536  0.1838  0.0205  0.1438
  336loPI   C5A 5371   9.681   3.410   9.108 -0.2242 -0.3148  0.0705
  336loPI   C6A 5372   9.807   3.198   8.663 -0.1578 -0.2212  0.0774
  336loPI   C1B 5373  10.167   3.455  10.554 -0.0502  0.0972 -0.0542
  336loPI   C2B 5374  10.121   3.406  10.043 -0.1437 -0.2783  0.2615
  336loPI   C3B 5375  10.207   3.521   9.674  0.1507  0.1763 -0.0858
  336loPI   C4B 5376  10.226   3.358   9.147 -0.0856 -0.2693 -0.3009
  337loPI    C1 5377   3.736   2.471  11.739 -0.0313 -0.0736  0.0283
  337loPI    C2 5378   3.362   2.607  11.783 -0.0345 -0.0872  0.0426
  337loPI    C3 5379   3.648   2.721  12.038  0.0577  0.2362 -0.1994
  337loPI   PO4 5380   3.768   2.408  11.432  0.0176 -0.1987 -0.0371
  337loPI   GL1 5381   3.605   2.443  11.076  0.0830  0.2092  0.0235
  337loPI   GL2 5382   3.340   2.288  10.924  0.1640 -0.1206 -0.4691
  337loPI   C1A 5383   3.817   2.474  10.728 -0.1370  0.2151 -0.1443
  337loPI   C2A 5384   3.842   2.435  10.310 -0.0409  0.3535 -0.0290
  337loPI   C3A 5385   3.966   2.393   9.861 -0.1047 -0.4213 -0.3475
  337loPI   C4A 5386   3.979   2.511   9.389  0.0097 -0.0252 -0.0309
  337loPI   C5A 5387   4.082   2.543   9.016  0.2139  0.3889  0.0453
  337loPI   C6A 5388   4.095   2.499   8.584  0.2610 -0.1853 -0.1556
  337loPI   C1B 5389   3.401   2.307  10.502  0.1360  0.0588 -0.3623
  337loPI   C2B 5390   3.456   2.212  10.081 -0.2198  0.1875  0.1025
  337loPI   C3B 5391   3.383   2.271   9.624  0.0051  0.0069 -0.1832
  337loPI   C4B 5392   3.479   2.260   9.287  0.3051  0.0374 -0.0605
  338loPI    C1 5393   6.643   2.719  11.546 -0.1720  0.3000  0.3299
  338loPI    C2 5394   6.614   2.592  11.924  0.1186  0.2366  0.3331
  338loPI    C3 5395   6.932   2.492  11.703 -0.2046 -0.0049 -0.0356
  338loPI   PO4 5396   6.477   2.586  11.447  0.2877 -0.0884  0.0505
  338loPI   GL1 5397   6.537   2.537  11.011  0.1580  0.1082  0.1406
  338loPI   GL2 5398   6.416   2.800  10.808 -0.0318 -0.2241 -0.1736
  338loPI   C1A 5399   6.832   2.435  10.699 -0.0037  0.1341  0.3650
  338loPI   C2A 5400   6.632   2.332  10.358 -0.3254 -0.0389  0.1749
  338loPI   C3A 5401   6.711   2.476   9.821 -0.0925  0.1024  0.0171
  338loPI   C4A 5402   6.739   2.386   9.358 -0.1223  0.2849  0.3392
  338loPI   C5A 5403   7.168   2.409   9.080 -0.1797 -0.2172  0.0330
  338loPI   C6A 5404   7.556   2.565   9.047  0.0508  0.1818 -0.0176
  338loPI   C1B 5405   6.327   2.754  10.395  0.4786 -0.1018 -0.1022
  338loPI   C2B 5406   6.323   2.726   9.999  0.1363 -0.1663  0.0186
  338loPI   C3B 5407   6.364   2.844   9.577  0.0501  0.4257  0.0073
  338loPI   C4B 5408   6.363   2.774   9.140 -0.1598 -0.0426 -0.3233
  339loPI    C1 5409  11.183  15.419  11.305 -0.2082 -0.2049 -0.1302
  339loPI    C2 5410  11.390  15.251  11.603 -0.0064  0.0640 -0.1150
  339loPI    C3 5411  10.992  15.286  11.630  0.0144  0.1199  0.1401
  339loPI   PO4 5412  11.270  15.345  11.157 -0.0778  0.1338  0.3763
  339loPI   GL1 5413  11.022  15.177  10.810 -0.2155 -0.2817  0.0889
  339loPI   GL2 5414  11.345  15.004  10.746  0.3180 -0.2940 -0.0733
  339loPI   C1A 5415  10.922  15.107  10.367 -0.1840 -0.1422 -0.1804
  339loPI   C2A 5416  10.995  15.171   9.957  0.0541  0.2705 -0.1469
  339loPI   C3A 5417  10.961  15.077   9.492  0.3976  0.0890  0.1638
  339loPI   C4A 5418  10.941  15.263   9.036 -0.2726  0.0788  0.1422
  339loPI   C5A 5419  11.205  15.496   8.790 -0.1278  0.0031 -0.2579
  339loPI   C6A 5420  11.407  15.861   8.549  0.3353  0.1093  0.2475
  339loPI   C1B 5421  11.351  14.837  10.455 -0.4757 -0.1825 -0.1321
  339loPI   C2B 5422  11.377  14.802  10.015  0.0951 -0.2452  0.0637
  339loPI   C3B 5423  11.458  14.747   9.595 -0.0809 -0.0743 -0.1129
  339loPI   C4B 5424  11.293  14.822   9.137  0.1042 -0.1895  0.1236
  340loPI    C1 5425   0.530  11.488  11.848 -0.0244 -0.3364  0.0918
  340loPI    C2 5426   0.914  11.514  11.959 -0.0070  0.0117 -0.0348
  340loPI    C3 5427   0.623  11.583  12.225  0.0233  0.0828 -0.0200
  340loPI   PO4 5428   0.482  11.708  11.700  0.2143 -0.3218  0.1948
  340loPI   GL1 5429   0.730  11.983  11.361 -0.0300  0.3267  0.1242
  340loPI   GL2 5430   0.475  11.772  11.203 -0.0704  0.3275 -0.1294
  340loPI   C1A 5431   0.671  12.132  10.882 -0.0634  0.0165  0.2763
  340loPI   C2A 5432   0.576  12.130  10.439  0.2283  0.1301 -0.1786
  340loPI   C3A 5433   0.581  12.043  10.104 -0.0699 -0.2430  0.4654
  340loPI   C4A 5434   0.604  11.939   9.677  0.1610 -0.0545 -0.1297
  340loPI   C5A 5435   0.615  11.919   9.225  0.1586  0.0362  0.1587
  340loPI   C6A 5436   0.550  11.691   9.007 -0.1903  0.1186  0.4245
  340loPI   C1B 5437   0.418  11.690  10.765 -0.1444 -0.0174 -0.1402
  340loPI   C2B 5438   0.460  11.570  10.426  0.0002  0.1074  0.1452
  340loPI   C3B 5439   0.452  11.590  10.010  0.1744  0.2860 -0.1181
  340loPI   C4B 5440   0.424  11.544   9.500  0.1673 -0.2244 -0.2013
  341loPI    C1 5441   8.414  12.958  11.350 -0.0725  0.1613 -0.0500
  341loPI    C2 5442   8.270  13.253  11.579  0.0178  0.1053  0.0796
  341loPI    C3 5443   8.230  12.872  11.694 -0.1482  0.0626 -0.1145
  341loPI   PO4 5444   8.358  12.963  11.116 -0.1313  0.2737 -0.0263
  341loPI   GL1 5445   8.059  12.920  10.894 -0.2044 -0.1736 -0.2034
  341loPI   GL2 5446   8.135  12.772  10.607 -0.0533 -0.1139 -0.0921
  341loPI   C1A 5447   7.769  13.113  10.567 -0.1913  0.0507 -0.0863
  341loPI   C2A 5448   7.843  13.266  10.126  0.2083  0.0346 -0.3196
  341loPI   C3A 5449   7.850  13.113   9.654  0.2188 -0.0669 -0.1274
  341loPI   C4A 5450   7.830  13.191   9.219 -0.2405  0.2630  0.0642
  341loPI   C5A 5451   7.850  13.256   8.809 -0.2098 -0.0994 -0.3170
  341loPI   C6A 5452   7.852  13.156   8.362  0.1833 -0.1749 -0.0303
  341loPI   C1B 5453   8.105  12.771  10.215 -0.2253 -0.0834 -0.0990
  341loPI   C2B 5454   8.268  12.794   9.812  0.0805  0.1660 -0.3114
  341loPI   C3B 5455   8.139  12.735   9.371  0.1576 -0.0977  0.0639
  341loPI   C4B 5456   8.180  12.915   8.916 -0.1468  0.0752 -0.4156
  342loPI    C1 5457   0.743   4.451  11.334  0.1619 -0.0737  0.0671
  342loPI    C2 5458   0.784   4.790  11.542 -0.1356 -0.0365  0.0693
  342loPI    C3 5459   0.737   4.442  11.734  0.0912 -0.0707  0.0661
  342loPI   PO4 5460   0.545   4.513  11.120  0.1205 -0.1465 -0.3123
  342loPI   GL1 5461   0.357   4.287  10.775  0.0186  0.0518 -0.3812
  342loPI   GL2 5462   0.775   4.255  10.780 -0.1411 -0.2164 -0.1388
  342loPI   C1A 5463   0.088   4.197  10.442 -0.1438  0.2101  0.0078
  342loPI   C2A 5464  -0.218   4.424  10.287 -0.0094 -0.0022  0.1580
  342loPI   C3A 5465  -0.234   4.605  10.013 -0.0431 -0.1537  0.0719
  342loPI   C4A 5466  -0.270   4.643   9.594  0.0815  0.0907  0.1202
  342loPI   C5A 5467  -0.347   4.594   9.202 -0.1579  0.0951  0.1300
  342loPI   C6A 5468  -0.256   4.662   8.815 -0.3184 -0.1606  0.2947
  342loPI   C1B 5469   0.541   4.411  10.352  0.0967 -0.1004 -0.0288
  342loPI   C2B 5470   0.148   4.278   9.913  0.2532 -0.2143  0.2692
  342loPI   C3B 5471   0.034   4.212   9.489 -0.2084 -0.1074  0.0370
  342loPI   C4B 5472   0.207   4.221   8.988 -0.1900  0.2962 -0.0853
  343loPI    C1 5473  14.724   1.712  11.589  0.0360 -0.3108 -0.0491
  343loPI    C2 5474  15.010   1.989  11.559 -0.2248 -0.0006  0.2409
  343loPI    C3 5475  14.900   1.854  11.919 -0.3262 -0.2448  0.1206
  343loPI   PO4 5476  14.533   1.773  11.451  0.0799 -0.1063 -0.0620
  343loPI   GL1 5477  14.400   1.702  10.990 -0.4855  0.0914  0.2025
  343loPI   GL2 5478  14.251   1.496  10.924  0.1830  0.4295  0.1971
  343loPI   C1A 5479  13.988   1.788  10.629 -0.1428  0.0529  0.2551
  343loPI   C2A 5480  13.898   1.547  10.285 -0.2061  0.1686  0.1389
  343loPI   C3A 5481  13.898   1.597   9.884 -0.1289  0.3773  0.0826
  343loPI   C4A 5482  13.931   1.625   9.448 -0.0675 -0.0431 -0.3573
  343loPI   C5A 5483  14.032   1.566   9.055  0.1422  0.1498  0.1018
  343loPI   C6A 5484  14.463   1.603   8.863 -0.2861  0.1928  0.0633
  343loPI   C1B 5485  14.332   1.422  10.508 -0.0978  0.1822  0.0828
  343loPI   C2B 5486  14.272   1.217  10.125  0.1361  0.0616 -0.0237
  343loPI   C3B 5487  14.273   1.229   9.606  0.0179 -0.1838 -0.2483
  343loPI   C4B 5488  14.303   1.194   9.163 -0.0005 -0.2376  0.1998
  344loPI    C1 5489  10.761   0.132  11.521  0.1901 -0.0796  0.0544
  344loPI    C2 5490  10.523  -0.130  11.708  0.2389 -0.0768  0.1209
  344loPI    C3 5491  10.917  -0.194  11.693  0.2190 -0.1559 -0.1142
  344loPI   PO4 5492  10.645   0.184  11.252 -0.2546 -0.0326  0.2255
  344loPI   GL1 5493  10.426  -0.006  10.896 -0.3363 -0.0736 -0.2319
  344loPI   GL2 5494  10.741  -0.170  10.777  0.0351 -0.3005  0.0468
  344loPI   C1A 5495  10.186   0.117  10.513  0.0965 -0.0100  0.0178
  344loPI   C2A 5496  10.184   0.189  10.136 -0.2419 -0.0344 -0.4586
  344loPI   C3A 5497  10.274   0.211   9.733 -0.2100  0.3168  0.0541
  344loPI   C4A 5498  10.350   0.138   9.406  0.2347  0.1343 -0.1168
  344loPI   C5A 5499  10.425   0.457   9.025  0.2293 -0.2958 -0.0036
  344loPI   C6A 5500  10.338   0.893   8.956 -0.0588 -0.1535  0.3058
  344loPI   C1B 5501  10.624  -0.213  10.403  0.1058  0.1247 -0.0142
  344loPI   C2B 5502  10.694  -0.263  10.068 -0.2741  0.2464  0.1991
  344loPI   C3B 5503  10.645  -0.129   9.649 -0.0159  0.2296 -0.1537
  344loPI   C4B 5504  10.597  -0.363   9.281  0.2651  0.2135 -0.2266
  345loPI    C1 5505   0.962  16.643  11.757  0.1696 -0.0687 -0.0360
  345loPI    C2 5506   1.267  16.796  11.966  0.0755  0.0893 -0.0128
  345loPI    C3 5507   1.004  16.553  12.145  0.1921 -0.0546 -0.0351
  345loPI   PO4 5508   1.092  16.550  11.469  0.1821 -0.0565  0.1317
  345loPI   GL1 5509   1.014  16.431  11.062  0.0542 -0.0601  0.1326
  345loPI   GL2 5510   1.305  16.462  10.865  0.1401  0.2935 -0.1651
  345loPI   C1A 5511   0.866  16.627  10.787  0.2633  0.1250 -0.2059
  345loPI   C2A 5512   0.836  16.714  10.346  0.1460 -0.3021 -0.0725
  345loPI   C3A 5513   0.867  16.765   9.849 -0.2412 -0.2318  0.3373
  345loPI   C4A 5514   0.833  16.805   9.446 -0.0109 -0.1609  0.0519
  345loPI   C5A 5515   0.923  16.838   8.968  0.3333  0.0119  0.2770
  345loPI   C6A 5516   1.035  16.876   8.573 -0.3446 -0.0134 -0.0902
  345loPI   C1B 5517   1.263  16.401  10.463  0.0005 -0.0062  0.2431
  345loPI   C2B 5518   1.162  16.442  10.015 -0.1945  0.1852 -0.0763
  345loPI   C3B 5519   1.271  16.453   9.612  0.0104 -0.1432 -0.3036
  345loPI   C4B 5520   1.248  16.331   9.085 -0.0345  0.2324 -0.2984
  346loPI    C1 5521   8.736   6.782  11.888  0.1250 -0.2461  0.0732
  346loPI    C2 5522   8.764   6.466  12.132 -0.1145 -0.4587 -0.1681
  346loPI    C3 5523   8.627   6.815  12.272  0.0155 -0.4991  0.0656
  346loPI   PO4 5524   8.747   6.689  11.661  0.1774  0.0901  0.2702
  346loPI   GL1 5525   8.941   6.557  11.261  0.0545 -0.0212 -0.1028
  346loPI   GL2 5526   8.821   6.346  11.104 -0.0476 -0.2907  0.1791
  346loPI   C1A 5527   8.991   6.853  10.986  0.0734  0.0387 -0.1407
  346loPI   C2A 5528   9.029   6.909  10.662 -0.0735 -0.0056 -0.0309
  346loPI   C3A 5529   9.130   6.852  10.275 -0.1356  0.2440  0.4274
  346loPI   C4A 5530   9.091   6.994   9.855  0.1378 -0.0570  0.1803
  346loPI   C5A 5531   9.003   6.960   9.373  0.0913 -0.0467 -0.3216
  346loPI   C6A 5532   8.990   6.548   9.019 -0.1658 -0.0571 -0.1948
  346loPI   C1B 5533   8.872   6.433  10.731  0.4168 -0.0664  0.0811
  346loPI   C2B 5534   9.006   6.358  10.299  0.0083 -0.3222  0.0528
  346loPI   C3B 5535   8.932   6.480   9.852 -0.0476 -0.0921  0.3357
  346loPI   C4B 5536   8.888   6.342   9.402 -0.1048  0.2628 -0.1266
  347loPI    C1 5537   5.449  11.189  11.775  0.1481  0.0395 -0.0662
  347loPI    C2 5538   5.461  11.587  11.819  0.1978  0.0087  0.2243
  347loPI    C3 5539   5.189  11.372  12.018  0.0867 -0.0928 -0.0317
  347loPI   PO4 5540   5.428  11.176  11.491  0.0146 -0.2262 -0.2430
  347loPI   GL1 5541   5.352  10.876  11.218  0.1704  0.0456 -0.2031
  347loPI   GL2 5542   5.523  10.588  11.218 -0.2808 -0.0030  0.0659
  347loPI   C1A 5543   5.382  10.987  10.735  0.0820  0.0336  0.1798
  347loPI   C2A 5544   5.358  10.980  10.269  0.0761  0.1320 -0.0160
  347loPI   C3A 5545   5.452  11.087   9.838  0.2441  0.2468 -0.0096
  347loPI   C4A 5546   5.457  11.133   9.487 -0.1435  0.0641 -0.0892
  347loPI   C5A 5547   5.446  10.992   9.087 -0.2617  0.1004  0.3137
  347loPI   C6A 5548   5.452  10.843   8.707  0.0862 -0.1570  0.0229
  347loPI   C1B 5549   5.277  10.439  10.780 -0.2263  0.3029 -0.0865
  347loPI   C2B 5550   5.229  10.527  10.388  0.0524  0.2641 -0.1364
  347loPI   C3B 5551   5.285  10.569   9.914  0.0526 -0.1306 -0.1997
  347loPI   C4B 5552   5.289  10.587   9.529 -0.0700  0.0645 -0.0097
  348loPI    C1 5553   9.142   3.018  11.755 -0.5330 -0.1750  0.1383
  348loPI    C2 5554   9.422   3.079  12.034 -0.1632 -0.0889 -0.2395
  348loPI    C3 5555   9.046   2.993  12.142 -0.0533  0.0463  0.2794
  348loPI   PO4 5556   9.269   2.871  11.545 -0.2251  0.0975  0.1889
  348loPI   GL1 5557   9.294   3.022  11.151  0.0187  0.1350  0.0309
  348loPI   GL2 5558   9.339   2.709  11.035  0.2108  0.0309 -0.2280
  348loPI   C1A 5559   9.195   3.247  10.740 -0.3015  0.0256 -0.1899
  348loPI   C2A 5560   9.250   3.245  10.267  0.0709 -0.0126  0.0776
  348loPI   C3A 5561   9.221   3.075   9.935 -0.0051 -0.0686 -0.0176
  348loPI   C4A 5562   9.151   3.197   9.541  0.3682 -0.0487  0.1422
  348loPI   C5A 5563   9.140   3.162   9.133  0.0039 -0.0893 -0.0878
  348loPI   C6A 5564   8.918   3.156   8.733  0.3464 -0.2225  0.0283
  348loPI   C1B 5565   9.521   2.878  10.665  0.1092 -0.0124 -0.2183
  348loPI   C2B 5566   9.584   2.816  10.182  0.2069 -0.2516 -0.0973
  348loPI   C3B 5567   9.588   2.814   9.745  0.0665 -0.0323  0.0978
  348loPI   C4B 5568   9.563   2.929   9.297  0.0687  0.0344 -0.0725
  349loPI    C1 5569  13.685  15.753  11.805  0.4020 -0.3227 -0.0512
  349loPI    C2 5570  13.902  15.653  12.125  0.0032  0.0010  0.3333
  349loPI    C3 5571  13.512  15.728  12.164 -0.0304  0.1530 -0.2149
  349loPI   PO4 5572  13.854  15.866  11.612  0.1236  0.0599 -0.2868
  349loPI   GL1 5573  13.757  15.958  11.130  0.1467 -0.4426 -0.0889
  349loPI   GL2 5574  13.759  16.221  11.013 -0.0731  0.0300 -0.0621
  349loPI   C1A 5575  13.558  15.779  10.714  0.1963 -0.1102 -0.2601
  349loPI   C2A 5576  13.566  15.858  10.327 -0.1494 -0.4084  0.0541
  349loPI   C3A 5577  13.495  15.820   9.862  0.0042 -0.1855 -0.0821
  349loPI   C4A 5578  13.490  15.895   9.474  0.4170 -0.1964  0.0742
  349loPI   C5A 5579  13.678  16.040   9.118 -0.2866  0.3296 -0.0992
  349loPI   C6A 5580  14.079  16.261   8.961  0.0873  0.0456  0.0199
  349loPI   C1B 5581  13.757  16.280  10.531 -0.2808 -0.1223  0.0925
  349loPI   C2B 5582  13.713  16.271  10.178  0.0928 -0.1540 -0.0564
  349loPI   C3B 5583  13.587  16.392   9.710  0.2667  0.0549  0.1577
  349loPI   C4B 5584  13.709  16.483   9.313  0.2181 -0.0213  0.0736
  350loPI    C1 5585   5.186  14.846  11.804  0.0485  0.0732 -0.0491
  350loPI    C2 5586   4.846  14.930  11.998 -0.0933 -0.1106 -0.2133
  350loPI    C3 5587   5.158  14.779  12.198 -0.1324 -0.0105 -0.0749
  350loPI   PO4 5588   5.117  14.792  11.524 -0.0851 -0.0146 -0.1390
  350loPI   GL1 5589   5.229  14.679  11.155 -0.1750  0.1276 -0.0372
  350loPI   GL2 5590   5.522  14.719  11.132  0.0107 -0.0594  0.3287
  350loPI   C1A 5591   4.956  14.674  10.807  0.1058 -0.1227 -0.1676
  350loPI   C2A 5592   4.930  14.764  10.480  0.1504  0.0488  0.1410
  350loPI   C3A 5593   4.945  14.776  10.023  0.0353 -0.0840 -0.0088
  350loPI   C4A 5594   5.050  14.810   9.708 -0.0770 -0.0263 -0.0580
  350loPI   C5A 5595   4.955  14.906   9.266 -0.0377  0.1135  0.0156
  350loPI   C6A 5596   4.910  14.749   8.893  0.0150 -0.2753  0.2793
  350loPI   C1B 5597   5.574  14.933  10.720  0.1132  0.0096 -0.1839
  350loPI   C2B 5598   5.457  14.909  10.295 -0.1552 -0.0851 -0.0155
  350loPI   C3B 5599   5.503  14.885   9.900 -0.0808 -0.1872  0.1374
  350loPI   C4B 5600   5.470  14.951   9.469  0.0245  0.0102  0.0309
  351loPI    C1 5601  10.741   1.389  11.562 -0.0320  0.2930  0.1437
  351loPI    C2 5602  10.594   1.143  11.840  0.1890  0.0011  0.0083
  351loPI    C3 5603  10.965   1.286  11.876  0.0784  0.2821  0.0622
  351loPI   PO4 5604  10.717   1.355  11.404 -0.3685  0.1208  0.0809
  351loPI   GL1 5605  10.821   1.445  10.954  0.3871  0.1293 -0.2917
  351loPI   GL2 5606  11.014   1.284  10.932 -0.3776 -0.0576 -0.1594
  351loPI   C1A 5607  10.639   1.739  10.649 -0.1754  0.0103  0.0114
  351loPI   C2A 5608  10.570   1.720  10.354  0.4201  0.0486 -0.2225
  351loPI   C3A 5609  10.635   1.707   9.954 -0.0031  0.0960 -0.0838
  351loPI   C4A 5610  10.683   1.751   9.480 -0.2595 -0.2047  0.0790
  351loPI   C5A 5611  10.614   2.087   9.168  0.2043 -0.0370  0.2658
  351loPI   C6A 5612  10.618   2.144   8.712 -0.2676  0.0852  0.0875
  351loPI   C1B 5613  10.994   1.309  10.496 -0.1872 -0.1604  0.1772
  351loPI   C2B 5614  11.011   1.306  10.000 -0.0623 -0.1516 -0.1834
  351loPI   C3B 5615  11.080   1.383   9.560 -0.0176  0.0408  0.1368
  351loPI   C4B 5616  11.091   1.611   9.181  0.0850 -0.0284 -0.3603
  352loPI    C1 5617   0.953  12.326  11.717 -0.0845  0.0129 -0.2097
  352loPI    C2 5618   0.926  12.281  12.114 -0.0059  0.0074 -0.2047
  352loPI    C3 5619   0.845  11.973  11.872  0.0168 -0.0100 -0.1901
  352loPI   PO4 5620   0.916  12.468  11.623 -0.2953 -0.0142  0.1552
  352loPI   GL1 5621   0.722  12.589  11.241 -0.1456 -0.1057 -0.2040
  352loPI   GL2 5622   1.054  12.392  11.128  0.3295 -0.3101 -0.0443
  352loPI   C1A 5623   0.706  12.670  10.830  0.1946 -0.6744  0.1181
  352loPI   C2A 5624   0.666  12.587  10.377 -0.1311 -0.2983 -0.0726
  352loPI   C3A 5625   0.761  12.551   9.967  0.2372 -0.1255  0.2305
  352loPI   C4A 5626   0.690  12.493   9.502 -0.0255 -0.1900  0.0745
  352loPI   C5A 5627   0.926  12.481   9.029  0.1491 -0.1946  0.0918
  352loPI   C6A 5628   1.173  12.488   8.669 -0.1171 -0.1429 -0.0777
  352loPI   C1B 5629   1.146  12.240  10.687  0.0800 -0.0990 -0.0974
  352loPI   C2B 5630   1.017  12.163  10.191 -0.3891  0.0494  0.1144
  352loPI   C3B 5631   1.116  12.179   9.826  0.0556  0.1746 -0.1555
  352loPI   C4B 5632   1.029  12.135   9.423  0.0174  0.2329 -0.0164
  353loPI    C1 5633  10.431  12.670  11.539  0.0171  0.1743  0.0465
  353loPI    C2 5634  10.084  12.693  11.735  0.0659  0.0862  0.1445
  353loPI    C3 5635  10.423  12.625  11.936  0.1031 -0.1073  0.0186
  353loPI   PO4 5636  10.449  12.941  11.427  0.0970  0.2833 -0.0247
  353loPI   GL1 5637  10.443  13.100  10.899  0.0412 -0.2360  0.0740
  353loPI   GL2 5638  10.357  12.808  10.957  0.0253  0.1258  0.3015
  353loPI   C1A 5639  10.606  13.189  10.446 -0.0171 -0.1417 -0.0137
  353loPI   C2A 5640  10.432  13.088  10.071 -0.0294 -0.2680  0.1454
  353loPI   C3A 5641  10.456  13.084   9.682  0.3551 -0.1969 -0.1206
  353loPI   C4A 5642  10.501  13.150   9.236  0.0684  0.2537 -0.1286
  353loPI   C5A 5643  10.324  12.988   8.883  0.0956  0.1940 -0.0260
  353loPI   C6A 5644   9.943  13.059   8.713  0.1450  0.0465 -0.0962
  353loPI   C1B 5645  10.180  12.865  10.533 -0.0741 -0.1422 -0.0125
  353loPI   C2B 5646   9.982  12.912  10.055 -0.0748 -0.0348  0.1487
  353loPI   C3B 5647   9.991  12.938   9.646 -0.0440 -0.0156  0.0287
  353loPI   C4B 5648   9.969  13.008   9.251  0.2237  0.0569 -0.2719
  354loPI    C1 5649  13.544   7.383  11.835  0.1648  0.0921 -0.0020
  354loPI    C2 5650  13.498   7.641  12.138 -0.0254 -0.0339  0.0791
  354loPI    C3 5651  13.738   7.323  12.180  0.0256  0.0023  0.0621
  354loPI   PO4 5652  13.646   7.439  11.641  0.0133 -0.1137  0.3913
  354loPI   GL1 5653  13.661   7.386  11.203  0.0847  0.1122 -0.1581
  354loPI   GL2 5654  13.586   7.672  11.181 -0.1289 -0.0975 -0.1119
  354loPI   C1A 5655  13.793   7.419  10.835  0.0485  0.0841 -0.0180
  354loPI   C2A 5656  13.734   7.504  10.424  0.1729  0.1427  0.2200
  354loPI   C3A 5657  13.794   7.494   9.933  0.0196  0.3452  0.1495
  354loPI   C4A 5658  13.744   7.473   9.493 -0.1876  0.0767 -0.0324
  354loPI   C5A 5659  13.632   7.484   9.096 -0.0954  0.0370  0.1650
  354loPI   C6A 5660  13.396   7.691   8.751  0.1631  0.2860 -0.2016
  354loPI   C1B 5661  13.483   7.835  10.722  0.2364 -0.3458  0.0043
  354loPI   C2B 5662  13.322   7.807  10.318  0.1114  0.1549  0.0246
  354loPI   C3B 5663  13.316   7.792   9.834 -0.0535  0.1668 -0.1863
  354loPI   C4B 5664  13.328   7.755   9.417  0.1149 -0.2490 -0.2936
  355loPI    C1 5665  17.381   0.665  11.264  0.2083  0.0751  0.2426
  355loPI    C2 5666  17.211   0.344  11.433  0.2065  0.0207  0.1388
  355loPI    C3 5667  17.043   0.705  11.475 -0.0157 -0.0544 -0.0830
  355loPI   PO4 5668  17.368   0.650  11.060 -0.1281 -0.1685  0.0902
  355loPI   GL1 5669  17.267   0.807  10.687 -0.0456 -0.2332 -0.0130
  355loPI   GL2 5670  16.998   0.571  10.676 -0.1042  0.0490  0.4441
  355loPI   C1A 5671  17.342   0.794  10.244 -0.0909  0.0266 -0.3055
  355loPI   C2A 5672  17.462   0.821   9.866 -0.0294  0.0954  0.3426
  355loPI   C3A 5673  17.501   0.833   9.431 -0.1209 -0.1561 -0.0676
  355loPI   C4A 5674  17.578   0.757   9.103  0.2600 -0.0786 -0.0092
  355loPI   C5A 5675  17.423   0.538   8.727  0.2057 -0.0401  0.1519
  355loPI   C6A 5676  17.659   0.511   8.408  0.1434  0.0623  0.3095
  355loPI   C1B 5677  16.813   0.711  10.384  0.1780 -0.0339  0.2549
  355loPI   C2B 5678  16.901   0.628  10.054  0.2074  0.3044 -0.1212
  355loPI   C3B 5679  16.980   0.603   9.647 -0.0109  0.0678 -0.0134
  355loPI   C4B 5680  17.031   0.647   9.222 -0.2461 -0.0552  0.3973
  356loPI    C1 5681  15.117  17.159  11.389  0.1159  0.0230 -0.1631
  356loPI    C2 5682  14.815  17.171  11.652  0.0837 -0.0585 -0.1959
  356loPI    C3 5683  15.168  17.017  11.760  0.1732  0.2089 -0.0990
  356loPI   PO4 5684  15.122  17.105  11.234 -0.0422  0.1089  0.1622
  356loPI   GL1 5685  14.999  16.946  10.916 -0.0616  0.0116 -0.0226
  356loPI   GL2 5686  14.819  17.178  10.770 -0.0160  0.1528  0.1393
  356loPI   C1A 5687  15.094  16.773  10.510  0.1498 -0.2688  0.2151
  356loPI   C2A 5688  15.149  16.706  10.064 -0.0206  0.0098  0.0063
  356loPI   C3A 5689  15.165  16.791   9.666  0.0086 -0.1535  0.4584
  356loPI   C4A 5690  15.137  16.778   9.212 -0.0440 -0.1846  0.2105
  356loPI   C5A 5691  15.205  16.859   8.784  0.1807  0.0515  0.0923
  356loPI   C6A 5692  14.932  16.908   8.486  0.1848 -0.0902  0.0445
  356loPI   C1B 5693  14.777  17.143  10.323 -0.1673  0.0893 -0.1264
  356loPI   C2B 5694  14.783  17.062   9.928 -0.0826 -0.1597 -0.0096
  356loPI   C3B 5695  14.743  17.190   9.445 -0.0536  0.3185 -0.0400
  356loPI   C4B 5696  14.855  17.152   8.988  0.0080 -0.1850  0.1061
  357loPI    C1 5697   4.075   9.290  11.813 -0.1436  0.0034 -0.0219
  357loPI    C2 5698   4.015   9.011  12.093  0.0006  0.0839  0.0907
  357loPI    C3 5699   4.034   9.397  12.196  0.1288  0.1080 -0.0199
  357loPI   PO4 5700   4.204   9.122  11.621 -0.0032 -0.0825  0.3192
  357loPI   GL1 5701   4.165   9.249  11.139 -0.0285  0.0847 -0.0150
  357loPI   GL2 5702   4.529   9.213  11.106  0.2802  0.0956 -0.0419
  357loPI   C1A 5703   3.933   9.297  10.861 -0.2209 -0.3027  0.1437
  357loPI   C2A 5704   3.978   9.244  10.469  0.1073  0.2318  0.0148
  357loPI   C3A 5705   4.077   9.311  10.071  0.3730  0.0854  0.2584
  357loPI   C4A 5706   4.069   9.310   9.576 -0.0677 -0.0206  0.0869
  357loPI   C5A 5707   4.053   9.187   9.216 -0.2030 -0.1563 -0.1380
  357loPI   C6A 5708   3.813   9.008   8.941 -0.2579  0.0108 -0.1736
  357loPI   C1B 5709   4.422   9.351  10.728 -0.2764 -0.0993 -0.0511
  357loPI   C2B 5710   4.557   9.477  10.315  0.2191 -0.0208  0.1361
  357loPI   C3B 5711   4.539   9.419   9.843 -0.1152  0.1600 -0.1662
  357loPI   C4B 5712   4.537   9.397   9.461 -0.2585  0.0346  0.2358
  358loPI    C1 5713  13.932  13.947  11.821  0.1329  0.2757  0.2445
  358loPI    C2 5714  14.323  14.010  11.873  0.1741  0.0011  0.2856
  358loPI    C3 5715  14.143  13.705  12.059  0.0138 -0.0895 -0.0116
  358loPI   PO4 5716  13.908  13.975  11.508  0.0821  0.0048 -0.2025
  358loPI   GL1 5717  13.936  13.925  11.101  0.0956  0.3321 -0.0685
  358loPI   GL2 5718  13.860  13.588  10.936 -0.0632  0.2417 -0.2242
  358loPI   C1A 5719  13.893  14.044  10.688 -0.2977 -0.2048 -0.0348
  358loPI   C2A 5720  13.978  14.029  10.188 -0.4134 -0.2899 -0.2748
  358loPI   C3A 5721  14.025  14.084   9.785 -0.2748 -0.0531 -0.1324
  358loPI   C4A 5722  14.117  14.121   9.304  0.0140  0.0633 -0.1283
  358loPI   C5A 5723  14.197  14.062   8.938 -0.3713  0.1802  0.1015
  358loPI   C6A 5724  14.131  13.961   8.517 -0.0261 -0.4770  0.0233
  358loPI   C1B 5725  13.896  13.597  10.444  0.1167 -0.2908  0.0146
  358loPI   C2B 5726  13.906  13.511  10.116  0.1550 -0.0100  0.0979
  358loPI   C3B 5727  13.957  13.592   9.705 -0.0985 -0.2957  0.0257
  358loPI   C4B 5728  14.088  13.614   9.246 -0.7189  0.2569 -0.5832
  359loPI    C1 5729   1.199   6.447  11.112 -0.0861 -0.0785  0.1992
  359loPI    C2 5730   0.847   6.551  11.269  0.0316  0.0356  0.3915
  359loPI    C3 5731   0.979   6.176  11.306 -0.1762 -0.0692  0.1112
  359loPI   PO4 5732   1.272   6.689  10.952 -0.2586  0.0437  0.3437
  359loPI   GL1 5733   1.401   6.718  10.534  0.1350  0.2085  0.1946
  359loPI   GL2 5734   1.269   7.015  10.488  0.1300 -0.1574 -0.0719
  359loPI   C1A 5735   1.512   6.635  10.096 -0.1155  0.0621  0.1887
  359loPI   C2A 5736   1.419   6.842   9.806 -0.1818  0.1868  0.1825
  359loPI   C3A 5737   1.345   7.010   9.418  0.2250  0.0513  0.0194
  359loPI   C4A 5738   0.942   7.131   9.121  0.0772 -0.0786  0.1260
  359loPI   C5A 5739   1.018   7.541   8.961  0.2786  0.0795 -0.0888
  359loPI   C6A 5740   0.675   7.867   8.858 -0.1114 -0.0197  0.2017
  359loPI   C1B 5741   1.176   7.145  10.070  0.3960  0.0327  0.1298
  359loPI   C2B 5742   1.091   7.410   9.781  0.1109  0.0118 -0.0384
  359loPI   C3B 5743   1.012   7.591   9.423  0.0674 -0.1104 -0.0493
  359loPI   C4B 5744   1.108   7.922   9.243 -0.1478 -0.2124 -0.0684
  360loPI    C1 5745   2.740  14.308  11.512 -0.2018 -0.1485 -0.0269
  360loPI    C2 5746   2.713  14.109  11.858  0.0406  0.0630  0.1175
  360loPI    C3 5747   2.386  14.168  11.635 -0.0454 -0.4439  0.0981
  360loPI   PO4 5748   2.918  14.203  11.411 -0.2107 -0.0367  0.2081
  360loPI   GL1 5749   3.047  13.797  11.049  0.1195  0.1419 -0.0214
  360loPI   GL2 5750   3.234  14.023  11.006 -0.2918 -0.0481 -0.0046
  360loPI   C1A 5751   3.370  13.763  10.646  0.1226  0.1817  0.1291
  360loPI   C2A 5752   3.403  13.734  10.156 -0.0847 -0.3047  0.2332
  360loPI   C3A 5753   3.419  13.758   9.851  0.1038 -0.0297 -0.0968
  360loPI   C4A 5754   3.292  13.803   9.415  0.1037  0.0437 -0.1175
  360loPI   C5A 5755   3.239  14.126   8.961  0.3532 -0.0514  0.3605
  360loPI   C6A 5756   2.977  14.358   8.611  0.1620  0.2774  0.0170
  360loPI   C1B 5757   2.940  14.052  10.615  0.0100  0.1116  0.0229
  360loPI   C2B 5758   2.891  14.224  10.277  0.2783  0.1473  0.2754
  360loPI   C3B 5759   2.962  14.166   9.870  0.2429  0.1182 -0.0620
  360loPI   C4B 5760   2.943  14.168   9.387  0.0868 -0.0925 -0.1380
  361loPI    C1 5761  16.222   6.015  11.293 -0.0150  0.0854  0.1663
  361loPI    C2 5762  16.288   5.621  11.282  0.1078  0.1060  0.1510
  361loPI    C3 5763  16.281   5.812  11.633  0.1433  0.1057  0.1518
  361loPI   PO4 5764  16.352   6.040  11.022 -0.2956 -0.0861 -0.1441
  361loPI   GL1 5765  16.549   5.676  10.862 -0.0622 -0.1058  0.2508
  361loPI   GL2 5766  16.560   5.393  10.724  0.1708 -0.3074  0.0471
  361loPI   C1A 5767  16.639   5.848  10.358 -0.1550 -0.1983  0.1251
  361loPI   C2A 5768  16.649   5.832   9.917 -0.1600 -0.2780  0.0088
  361loPI   C3A 5769  16.611   5.854   9.441 -0.1459 -0.1397 -0.4451
  361loPI   C4A 5770  16.672   5.972   9.063 -0.2187  0.0397 -0.1207
  361loPI   C5A 5771  16.726   6.183   8.585 -0.1433 -0.3567  0.1059
  361loPI   C6A 5772  16.788   6.599   8.469  0.2895  0.0638 -0.0353
  361loPI   C1B 5773  16.488   5.323  10.242  0.4186 -0.1856 -0.0790
  361loPI   C2B 5774  16.453   5.342   9.754  0.0126 -0.2201 -0.0643
  361loPI   C3B 5775  16.413   5.243   9.341 -0.2093 -0.0638 -0.4947
  361loPI   C4B 5776  16.601   5.354   8.918  0.3481  0.4374  0.0502
  362loPI    C1 5777  11.002   7.033  11.833 -0.0441 -0.0910 -0.2312
  362loPI    C2 5778  10.621   6.916  11.871 -0.0042 -0.1651 -0.0430
  362loPI    C3 5779  10.823   7.044  12.191  0.2192 -0.4053 -0.0842
  362loPI   PO4 5780  10.905   7.129  11.542 -0.2393  0.0949 -0.1296
  362loPI   GL1 5781  10.982   7.074  11.229 -0.2124 -0.0264  0.1343
  362loPI   GL2 5782  10.577   6.867  11.159 -0.5630 -0.0083  0.0490
  362loPI   C1A 5783  10.988   7.022  10.736  0.1926 -0.0578  0.0768
  362loPI   C2A 5784  10.973   7.083  10.269  0.0154  0.1657 -0.1366
  362loPI   C3A 5785  10.945   7.076   9.859 -0.1707 -0.1110 -0.2304
  362loPI   C4A 5786  10.808   7.071   9.480 -0.0247 -0.1246 -0.1964
  362loPI   C5A 5787  10.971   7.105   9.109 -0.0733 -0.1032 -0.0958
  362loPI   C6A 5788  10.979   6.942   8.722 -0.0098 -0.3893  0.1476
  362loPI   C1B 5789  10.410   6.854  10.654 -0.0599  0.0279 -0.1652
  362loPI   C2B 5790  10.473   6.918  10.172 -0.0462  0.1951  0.2224
  362loPI   C3B 5791  10.380   6.946   9.809  0.0017 -0.1470  0.0488
  362loPI   C4B 5792  10.379   6.816   9.352  0.0713 -0.1659 -0.4926
  363loPI    C1 5793   4.378   0.535  11.652  0.0512  0.0108  0.0186
  363loPI    C2 5794   4.275   0.347  11.989 -0.2257  0.2896  0.0944
  363loPI    C3 5795   4.477   0.691  12.007  0.0709  0.1264 -0.0374
  363loPI   PO4 5796   4.425   0.404  11.406 -0.0119 -0.1133 -0.1944
  363loPI   GL1 5797   4.539   0.502  11.031 -0.4519  0.1054  0.1930
  363loPI   GL2 5798   4.765   0.344  10.855 -0.0775 -0.1796  0.0364
  363loPI   C1A 5799   4.450   0.682  10.654  0.1065 -0.1207 -0.0056
  363loPI   C2A 5800   4.365   0.734  10.259 -0.2102 -0.0335 -0.0680
  363loPI   C3A 5801   4.435   0.803   9.858  0.0451 -0.0847  0.1276
  363loPI   C4A 5802   4.627   0.810   9.417 -0.1390 -0.1148 -0.0538
  363loPI   C5A 5803   4.474   0.749   9.019 -0.2028 -0.1156 -0.0167
  363loPI   C6A 5804   4.563   0.779   8.600  0.4400 -0.2077  0.0557
  363loPI   C1B 5805   4.806   0.374  10.452  0.0750  0.3444 -0.1107
  363loPI   C2B 5806   4.753   0.430  10.141  0.0655 -0.1265  0.2513
  363loPI   C3B 5807   4.849   0.440   9.720 -0.1982  0.1640  0.3835
  363loPI   C4B 5808   4.956   0.365   9.368 -0.0808 -0.0403  0.1468
  364loPI    C1 5809  17.031  12.400  11.643 -0.1765  0.2515 -0.3422
  364loPI    C2 5810  16.829  12.479  11.979  0.0351 -0.2465 -0.0871
  364loPI    C3 5811  17.227  12.519  11.972  0.0269 -0.1925 -0.2952
  364loPI   PO4 5812  16.857  12.518  11.383  0.0062  0.0805  0.2977
  364loPI   GL1 5813  16.920  12.631  11.029 -0.1455  0.2430  0.0032
  364loPI   GL2 5814  17.299  12.768  10.979 -0.0097  0.0418  0.1189
  364loPI   C1A 5815  16.881  12.741  10.676 -0.0719  0.1827  0.2791
  364loPI   C2A 5816  16.855  12.668  10.118  0.2633 -0.1352 -0.0872
  364loPI   C3A 5817  16.898  12.711   9.691 -0.0273 -0.0201  0.0734
  364loPI   C4A 5818  16.902  12.703   9.268  0.2545 -0.1583  0.0192
  364loPI   C5A 5819  16.654  12.983   8.958 -0.0666  0.0903  0.0269
  364loPI   C6A 5820  16.578  13.375   8.737  0.0094  0.1849 -0.0590
  364loPI   C1B 5821  17.383  12.863  10.602 -0.1572 -0.0070 -0.1881
  364loPI   C2B 5822  17.320  12.853  10.158 -0.2186 -0.0497 -0.2057
  364loPI   C3B 5823  17.418  12.795   9.747  0.1466  0.0750  0.2123
  364loPI   C4B 5824  17.347  12.853   9.282 -0.1729 -0.0553  0.2168
  365loPI    C1 5825   6.940   6.037  11.440 -0.0879  0.0094  0.0129
  365loPI    C2 5826   7.036   6.082  11.826 -0.1146 -0.0189  0.0228
  365loPI    C3 5827   6.683   6.214  11.691 -0.0772  0.0519 -0.0060
  365loPI   PO4 5828   7.100   6.152  11.317  0.2250 -0.0655 -0.0497
  365loPI   GL1 5829   7.469   6.234  10.946 -0.1370 -0.2186 -0.1608
  365loPI   GL2 5830   7.297   5.923  10.919  0.5279  0.0122 -0.3297
  365loPI   C1A 5831   7.570   6.376  10.617  0.0149  0.0492  0.0395
  365loPI   C2A 5832   7.586   6.454  10.213 -0.0429 -0.0925 -0.4344
  365loPI   C3A 5833   7.547   6.490   9.768  0.0398  0.0344 -0.0120
  365loPI   C4A 5834   7.605   6.550   9.277  0.3845  0.0756  0.0045
  365loPI   C5A 5835   7.600   6.630   8.865  0.1796  0.0811  0.0650
  365loPI   C6A 5836   7.901   6.465   8.649 -0.0023  0.0456 -0.3122
  365loPI   C1B 5837   7.451   5.920  10.457  0.1680 -0.0581 -0.2646
  365loPI   C2B 5838   7.466   5.983  10.005 -0.0952 -0.1575 -0.1642
  365loPI   C3B 5839   7.404   6.005   9.659 -0.4507  0.2321 -0.0389
  365loPI   C4B 5840   7.565   6.108   9.160  0.2095  0.0796 -0.0276
  366loPI    C1 5841  12.273  13.799  11.625 -0.1964  0.1021 -0.0002
  366loPI    C2 5842  12.166  13.511  11.881  0.1933 -0.0275  0.0236
  366loPI    C3 5843  12.351  13.840  12.015  0.0308  0.0923 -0.0430
  366loPI   PO4 5844  12.355  13.655  11.427 -0.1348  0.2158  0.1972
  366loPI   GL1 5845  12.259  13.649  11.023  0.1096 -0.2140 -0.4115
  366loPI   GL2 5846  12.460  13.958  11.020 -0.0749  0.3915 -0.1791
  366loPI   C1A 5847  12.554  13.753  10.550  0.0946  0.0593  0.0554
  366loPI   C2A 5848  12.530  13.674  10.112 -0.0238  0.2574  0.0890
  366loPI   C3A 5849  12.533  13.674   9.650  0.1155 -0.1091 -0.0565
  366loPI   C4A 5850  12.582  13.558   9.225  0.0070 -0.0558 -0.0849
  366loPI   C5A 5851  12.831  13.463   8.936  0.1124 -0.2053 -0.1944
  366loPI   C6A 5852  13.268  13.240   8.916 -0.0599  0.1765 -0.1347
  366loPI   C1B 5853  12.179  14.078  10.661  0.1222 -0.4127 -0.0472
  366loPI   C2B 5854  12.153  13.983  10.179  0.0160  0.1161 -0.0850
  366loPI   C3B 5855  12.161  14.048   9.680 -0.2757  0.0194 -0.0950
  366loPI   C4B 5856  12.210  13.922   9.231  0.0167 -0.2346  0.3458
  367loPI    C1 5857  16.194   3.135  11.376 -0.2483 -0.2089 -0.1495
  367loPI    C2 5858  15.905   3.200  11.645 -0.0248 -0.0502  0.0562
  367loPI    C3 5859  16.112   2.858  11.652  0.1117  0.0342  0.2122
  367loPI   PO4 5860  16.115   3.269  11.155 -0.1080 -0.0314 -0.1499
  367loPI   GL1 5861  16.198   3.340  10.740  0.2463  0.0053 -0.0558
  367loPI   GL2 5862  16.142   3.745  10.641 -0.1416  0.1042  0.1971
  367loPI   C1A 5863  16.106   3.380  10.269  0.2864  0.3177  0.0359
  367loPI   C2A 5864  16.195   3.282   9.819 -0.2622  0.2071  0.3510
  367loPI   C3A 5865  16.209   3.170   9.442  0.1668  0.0697  0.0575
  367loPI   C4A 5866  16.058   3.212   9.082  0.0809 -0.0347  0.1639
  367loPI   C5A 5867  16.035   3.201   8.686  0.2257 -0.1573 -0.1011
  367loPI   C6A 5868  16.158   2.997   8.347 -0.0257 -0.4690  0.1189
  367loPI   C1B 5869  16.236   3.860  10.238  0.1256 -0.0686  0.0905
  367loPI   C2B 5870  16.369   3.768   9.824 -0.2278  0.0081  0.0617
  367loPI   C3B 5871  16.441   3.694   9.437 -0.0486  0.2042  0.1222
  367loPI   C4B 5872  16.263   3.707   9.031 -0.1054 -0.1516  0.0614
  368loPI    C1 5873   5.107   0.122  11.919 -0.0744  0.2832 -0.2939
  368loPI    C2 5874   4.818   0.374  11.805 -0.0236  0.3985 -0.1710
  368loPI    C3 5875   4.758   0.129  12.115 -0.1870  0.0370 -0.4799
  368loPI   PO4 5876   5.160   0.003  11.695  0.3722 -0.5790 -0.1276
  368loPI   GL1 5877   5.475   0.017  11.371 -0.0840  0.2740  0.2603
  368loPI   GL2 5878   5.557  -0.311  11.293 -0.2124  0.0300  0.2329
  368loPI   C1A 5879   5.254   0.040  11.051  0.1669 -0.0214  0.0601
  368loPI   C2A 5880   5.243   0.157  10.718  0.0250  0.2260  0.1035
  368loPI   C3A 5881   5.228   0.146  10.311 -0.1093  0.2223  0.3242
  368loPI   C4A 5882   5.223   0.089   9.911 -0.1924 -0.2783  0.2084
  368loPI   C5A 5883   5.257   0.015   9.537  0.3791  0.1096  0.1735
  368loPI   C6A 5884   5.239   0.076   9.099 -0.2707 -0.0643 -0.2045
  368loPI   C1B 5885   5.643  -0.323  10.867  0.1593  0.0004  0.3052
  368loPI   C2B 5886   5.646  -0.289  10.364 -0.0248  0.1074  0.3723
  368loPI   C3B 5887   5.680  -0.261   9.986  0.1902  0.0790  0.1639
  368loPI   C4B 5888   5.631  -0.322   9.553  0.0445 -0.2000 -0.1397
  369loPI    C1 5889  12.542   0.700  11.790  0.1535  0.0092 -0.0506
  369loPI    C2 5890  12.282   0.812  12.072  0.0742 -0.0135 -0.1146
  369loPI    C3 5891  12.666   0.918  12.102  0.1202 -0.2399  0.1399
  369loPI   PO4 5892  12.451   0.750  11.582 -0.1426 -0.0661 -0.4031
  369loPI   GL1 5893  12.534   0.768  11.187  0.2171 -0.0285 -0.1799
  369loPI   GL2 5894  12.780   0.888  10.912  0.0914  0.3929  0.2551
  369loPI   C1A 5895  12.240   0.713  10.831 -0.1223  0.0184 -0.1814
  369loPI   C2A 5896  12.181   0.719  10.472  0.0357 -0.2693  0.0147
  369loPI   C3A 5897  12.319   0.756  10.106 -0.2728  0.2891  0.1737
  369loPI   C4A 5898  12.241   0.810   9.676 -0.0966 -0.3446 -0.0720
  369loPI   C5A 5899  12.329   0.667   9.285 -0.0732  0.0536  0.0312
  369loPI   C6A 5900  12.371   0.573   8.872  0.1053  0.3158  0.0400
  369loPI   C1B 5901  12.658   0.817  10.483  0.2416 -0.3805 -0.1074
  369loPI   C2B 5902  12.798   0.866   9.979 -0.2943  0.0427 -0.1435
  369loPI   C3B 5903  12.801   0.868   9.553  0.0062  0.0468 -0.2263
  369loPI   C4B 5904  12.864   0.828   9.108  0.2040 -0.3491 -0.0111
  370loPI    C1 5905   0.098   3.741  11.492  0.0914  0.3267  0.0592
  370loPI    C2 5906  -0.216   3.623  11.711 -0.0359  0.0614 -0.2577
  370loPI    C3 5907  -0.020   3.959  11.806 -0.1494  0.0052  0.1978
  370loPI   PO4 5908   0.048   3.796  11.228 -0.0834 -0.1506  0.0328
  370loPI   GL1 5909   0.120   3.876  10.863 -0.3495 -0.0821  0.0333
  370loPI   GL2 5910  -0.192   4.045  10.791 -0.2157  0.0053  0.0845
  370loPI   C1A 5911   0.021   3.643  10.467 -0.0618  0.3570  0.1512
  370loPI   C2A 5912   0.026   3.794  10.079 -0.0055  0.0475 -0.1642
  370loPI   C3A 5913  -0.082   3.690   9.627  0.2314  0.1670 -0.1946
  370loPI   C4A 5914  -0.070   3.812   9.205  0.1661 -0.0117  0.0090
  370loPI   C5A 5915  -0.060   3.885   8.826 -0.0227  0.1126  0.1869
  370loPI   C6A 5916   0.289   3.896   8.492 -0.1834 -0.0265  0.0264
  370loPI   C1B 5917  -0.422   3.958  10.370 -0.0266  0.0001 -0.0894
  370loPI   C2B 5918  -0.380   4.057   9.921 -0.2324 -0.0791 -0.1706
  370loPI   C3B 5919  -0.423   4.101   9.372  0.2677  0.0432  0.3465
  370loPI   C4B 5920  -0.525   4.216   8.887 -0.0254  0.0259  0.1960
  371loPI    C1 5921  15.429   1.949  11.280 -0.0275  0.0386 -0.1457
  371loPI    C2 5922  15.474   2.159  11.617 -0.2735 -0.0844 -0.0340
  371loPI    C3 5923  15.751   1.891  11.510 -0.0280  0.1932 -0.1051
  371loPI   PO4 5924  15.367   2.123  11.052 -0.3075 -0.0251 -0.2777
  371loPI   GL1 5925  15.293   2.221  10.608 -0.1522  0.0169  0.1590
  371loPI   GL2 5926  15.002   2.196  10.633 -0.1802  0.1568 -0.1098
  371loPI   C1A 5927  15.353   2.194  10.164  0.0691 -0.0078  0.2995
  371loPI   C2A 5928  15.435   2.081   9.731  0.4091 -0.0790 -0.3333
  371loPI   C3A 5929  15.523   2.077   9.216  0.0958  0.0932 -0.0341
  371loPI   C4A 5930  15.406   1.936   8.865 -0.3776  0.0950  0.1589
  371loPI   C5A 5931  15.059   1.686   8.549 -0.3140 -0.2673  0.2216
  371loPI   C6A 5932  15.088   1.248   8.613  0.0309 -0.1772  0.1470
  371loPI   C1B 5933  14.905   2.031  10.297  0.0756  0.2386  0.0316
  371loPI   C2B 5934  14.876   1.914   9.952 -0.2983 -0.4202  0.0525
  371loPI   C3B 5935  14.867   1.902   9.518 -0.2434 -0.3173  0.0010
  371loPI   C4B 5936  14.949   1.824   9.090 -0.0262 -0.1158  0.0135
  372loPI    C1 5937  10.759  11.748  11.446  0.0171  0.2378  0.0333
  372loPI    C2 5938  10.369  11.832  11.412 -0.0467 -0.1425 -0.2363
  372loPI    C3 5939  10.518  11.714  11.764 -0.1202  0.2519 -0.0684
  372loPI   PO4 5940  10.740  11.624  11.135 -0.2045 -0.3051 -0.1807
  372loPI   GL1 5941  11.053  11.502  10.784  0.2820  0.0336  0.0843
  372loPI   GL2 5942  10.919  11.212  10.696 -0.3697 -0.1146  0.1688
  372loPI   C1A 5943  11.148  11.777  10.457 -0.0266  0.1090 -0.1769
  372loPI   C2A 5944  11.156  11.811   9.941 -0.1029  0.2349 -0.1037
  372loPI   C3A 5945  11.236  11.900   9.467  0.2063 -0.0193  0.1006
  372loPI   C4A 5946  11.161  12.021   9.029 -0.1204 -0.4708  0.0526
  372loPI   C5A 5947  10.915  12.352   8.681  0.1952  0.0595 -0.2327
  372loPI   C6A 5948  10.856  12.757   8.576  0.2062 -0.1181  0.1090
  372loPI   C1B 5949  10.991  11.305  10.179 -0.0717 -0.1792  0.0560
  372loPI   C2B 5950  11.066  11.343   9.643 -0.0016 -0.2357 -0.1975
  372loPI   C3B 5951  11.105  11.442   9.180  0.1005  0.2377 -0.1478
  372loPI   C4B 5952  11.378  11.408   8.837 -0.0247 -0.0673  0.0398
  373loPI    C1 5953   0.068  11.886  11.481  0.0427 -0.1116  0.1030
  373loPI    C2 5954  -0.028  11.722  11.833 -0.1709 -0.1183  0.0432
  373loPI    C3 5955  -0.019  12.120  11.793  0.3496 -0.1076  0.1888
  373loPI   PO4 5956  -0.066  11.828  11.334 -0.0159  0.0072  0.0023
  373loPI   GL1 5957  -0.223  11.772  11.073  0.0108  0.1702 -0.0956
  373loPI   GL2 5958  -0.058  11.508  10.875  0.1493  0.2197 -0.1661
  373loPI   C1A 5959  -0.454  11.804  10.658 -0.0264  0.1858 -0.2996
  373loPI   C2A 5960  -0.426  11.801  10.309  0.1152  0.0421 -0.0141
  373loPI   C3A 5961  -0.432  11.853   9.871 -0.0793  0.1123  0.1966
  373loPI   C4A 5962  -0.354  11.860   9.393 -0.0028  0.1688  0.0920
  373loPI   C5A 5963  -0.344  11.887   8.990  0.2033  0.1297 -0.0821
  373loPI   C6A 5964  -0.062  11.881   8.619  0.0147  0.3724  0.0948
  373loPI   C1B 5965  -0.126  11.458  10.464  0.1903  0.0564 -0.1990
  373loPI   C2B 5966  -0.112  11.461  10.047 -0.0490 -0.2713 -0.0941
  373loPI   C3B 5967  -0.106  11.490   9.672  0.2437 -0.0777  0.0589
  373loPI   C4B 5968   0.029  11.438   9.247 -0.0757 -0.1961 -0.0843
  374loPI    C1 5969   6.777   1.972  11.423 -0.2535 -0.1280 -0.0071
  374loPI    C2 5970   6.569   2.150  11.714 -0.1816  0.0188 -0.0443
  374loPI    C3 5971   6.935   2.008  11.788 -0.2347 -0.1055 -0.0175
  374loPI   PO4 5972   6.675   2.102  11.206  0.0307 -0.0916  0.1125
  374loPI   GL1 5973   6.415   2.004  10.830 -0.0337  0.1691  0.0151
  374loPI   GL2 5974   6.602   1.974  10.667  0.1742  0.0512 -0.1444
  374loPI   C1A 5975   6.133   2.235  10.556  0.0399  0.1660  0.1509
  374loPI   C2A 5976   6.171   2.278  10.126 -0.0065 -0.0683 -0.1197
  374loPI   C3A 5977   6.230   2.286   9.705 -0.0314  0.0627  0.1071
  374loPI   C4A 5978   6.227   2.260   9.284 -0.1926  0.0115 -0.0005
  374loPI   C5A 5979   6.569   2.407   8.890 -0.1223 -0.6521  0.2043
  374loPI   C6A 5980   6.915   2.636   8.631  0.1210  0.1712 -0.0654
  374loPI   C1B 5981   6.504   1.855  10.291  0.3302  0.2339 -0.1437
  374loPI   C2B 5982   6.554   1.994   9.891 -0.0132 -0.2027 -0.0847
  374loPI   C3B 5983   6.565   1.831   9.473  0.2398  0.0117 -0.1771
  374loPI   C4B 5984   6.655   1.906   9.134  0.1967 -0.1092  0.0597
  375loPI    C1 5985   2.160  15.810  11.499 -0.2713  0.1472  0.3473
  375loPI    C2 5986   2.302  15.507  11.719  0.1115  0.1256  0.0803
  375loPI    C3 5987   2.359  15.884  11.838 -0.0411  0.1045  0.2234
  375loPI   PO4 5988   2.228  15.894  11.180 -0.0159  0.1913 -0.2898
  375loPI   GL1 5989   1.940  15.984  10.964 -0.0007 -0.3595 -0.0071
  375loPI   GL2 5990   1.676  16.064  10.860  0.5871 -0.3517 -0.1930
  375loPI   C1A 5991   1.962  15.743  10.610  0.1195 -0.0335 -0.2687
  375loPI   C2A 5992   1.965  15.844  10.126  0.0138 -0.0673 -0.0229
  375loPI   C3A 5993   1.948  15.699   9.771  0.2064 -0.0521  0.1888
  375loPI   C4A 5994   1.989  15.721   9.370 -0.2515 -0.0660 -0.2648
  375loPI   C5A 5995   1.946  15.729   8.997  0.2527 -0.0218  0.2105
  375loPI   C6A 5996   1.783  15.423   8.735 -0.0348 -0.1256 -0.3203
  375loPI   C1B 5997   1.666  16.150  10.403 -0.1158  0.1847  0.1106
  375loPI   C2B 5998   1.533  16.095  10.017  0.2184 -0.1748 -0.0994
  375loPI   C3B 5999   1.604  16.071   9.580 -0.0106 -0.1066  0.2424
  375loPI   C4B 6000   1.720  16.147   9.215  0.0738 -0.0097  0.0072
  376loPI    C1 6001  16.028   8.697  11.227  0.0694 -0.1636  0.0069
  376loPI    C2 6002  15.955   8.503  11.569 -0.2926 -0.0329  0.0076
  376loPI    C3 6003  15.674   8.737  11.407  0.0532  0.3090 -0.1165
  376loPI   PO4 6004  16.230   8.852  11.231 -0.3491 -0.1394  0.2369
  376loPI   GL1 6005  16.390   8.975  10.742  0.1552  0.1228 -0.1579
  376loPI   GL2 6006  16.163   9.155  10.776  0.0465 -0.0170 -0.1411
  376loPI   C1A 6007  16.659   8.887  10.393 -0.0169  0.1566 -0.0254
  376loPI   C2A 6008  16.824   9.004   9.963  0.1964 -0.0245 -0.1436
  376loPI   C3A 6009  16.614   9.211   9.666 -0.1747  0.0398  0.1209
  376loPI   C4A 6010  16.721   9.365   9.271  0.2077  0.1151  0.0734
  376loPI   C5A 6011  16.980   9.486   8.973  0.4726  0.0776  0.0077
  376loPI   C6A 6012  16.913   9.666   8.538 -0.0270 -0.0391 -0.0587
  376loPI   C1B 6013  16.191   9.271  10.353 -0.0293 -0.0182 -0.3545
  376loPI   C2B 6014  16.213   9.111   9.983  0.0273  0.0474 -0.2144
  376loPI   C3B 6015  16.142   9.131   9.518  0.1790 -0.0559 -0.0326
  376loPI   C4B 6016  16.038   9.137   9.125  0.1040 -0.1875 -0.0127
  377loPI    C1 6017  11.731  14.399  11.532  0.0327  0.0978  0.1242
  377loPI    C2 6018  11.650  14.745  11.717 -0.0371 -0.0209  0.3186
  377loPI    C3 6019  11.674  14.406  11.928  0.1306 -0.1205  0.1435
  377loPI   PO4 6020  11.608  14.431  11.270 -0.1684  0.0794  0.1785
  377loPI   GL1 6021  11.446  14.533  10.873 -0.0826 -0.0422 -0.0276
  377loPI   GL2 6022  11.786  14.497  10.767 -0.3540 -0.0273  0.2458
  377loPI   C1A 6023  11.251  14.359  10.576  0.2886  0.2649 -0.0096
  377loPI   C2A 6024  11.262  14.280  10.129  0.0809 -0.0584 -0.0790
  377loPI   C3A 6025  11.317  14.202   9.717 -0.1151  0.1093 -0.0652
  377loPI   C4A 6026  11.338  14.212   9.322  0.1423 -0.0099  0.0274
  377loPI   C5A 6027  11.368  14.259   8.894  0.0522  0.0163 -0.3160
  377loPI   C6A 6028  11.428  14.012   8.576 -0.0594  0.0927  0.0254
  377loPI   C1B 6029  11.725  14.428  10.294 -0.0112 -0.0909 -0.5274
  377loPI   C2B 6030  11.813  14.493   9.855  0.2700  0.2660  0.0427
  377loPI   C3B 6031  11.803  14.342   9.470 -0.1722 -0.0830  0.2250
  377loPI   C4B 6032  11.851  14.281   9.042  0.0532 -0.1010  0.0231
  378loPI    C1 6033  12.986   0.715  11.309 -0.2158 -0.0471 -0.0387
  378loPI    C2 6034  13.042   0.747  11.704  0.0292  0.0889 -0.0821
  378loPI    C3 6035  12.864   1.043  11.501  0.0754  0.1025 -0.1031
  378loPI   PO4 6036  13.138   0.620  11.239  0.0575 -0.0266 -0.2579
  378loPI   GL1 6037  13.457   0.750  10.949 -0.1746  0.0666  0.2038
  378loPI   GL2 6038  13.295   0.966  10.896 -0.1296 -0.0306  0.0046
  378loPI   C1A 6039  13.583   0.676  10.612 -0.0118  0.0988  0.1977
  378loPI   C2A 6040  13.669   0.585  10.221 -0.0448  0.2500  0.1577
  378loPI   C3A 6041  13.662   0.605   9.706  0.2481  0.1527 -0.1084
  378loPI   C4A 6042  13.661   0.494   9.282  0.2575 -0.0881 -0.0451
  378loPI   C5A 6043  13.546   0.570   8.920 -0.0165  0.1993 -0.1624
  378loPI   C6A 6044  13.277   0.803   8.643  0.0305  0.1826 -0.2138
  378loPI   C1B 6045  13.236   0.979  10.436 -0.0885  0.3655  0.1224
  378loPI   C2B 6046  13.309   0.962   9.950 -0.1946  0.4169  0.0736
  378loPI   C3B 6047  13.345   0.906   9.488 -0.1994 -0.2848  0.1224
  378loPI   C4B 6048  13.311   1.058   9.083 -0.2787  0.0451  0.1832
  379loPI    C1 6049   0.148   2.410  11.442  0.1803 -0.0756  0.0987
  379loPI    C2 6050  -0.033   2.731  11.597 -0.0076 -0.1174 -0.0316
  379loPI    C3 6051   0.033   2.410  11.825 -0.2325 -0.1576 -0.0206
  379loPI   PO4 6052   0.064   2.336  11.179  0.0642  0.0903  0.2631
  379loPI   GL1 6053  -0.346   2.321  10.942 -0.3582 -0.1913  0.1980
  379loPI   GL2 6054  -0.461   2.204  10.778 -0.1267 -0.1731  0.1679
  379loPI   C1A 6055   0.018   2.351  10.533 -0.0799 -0.0230  0.2126
  379loPI   C2A 6056   0.081   2.316  10.072 -0.0105 -0.2809  0.3314
  379loPI   C3A 6057   0.164   2.371   9.694  0.0957  0.0796 -0.0072
  379loPI   C4A 6058   0.219   2.360   9.296 -0.1514  0.0366 -0.0437
  379loPI   C5A 6059   0.254   2.242   8.967 -0.1364  0.2097 -0.2414
  379loPI   C6A 6060   0.056   2.077   8.587  0.0067 -0.1801 -0.3768
  379loPI   C1B 6061  -0.348   2.147  10.362 -0.1269  0.1850  0.0447
  379loPI   C2B 6062  -0.360   2.257   9.907 -0.1411 -0.0581 -0.3985
  379loPI   C3B 6063  -0.263   2.258   9.410 -0.1085 -0.1197 -0.2298
  379loPI   C4B 6064  -0.351   2.131   8.936  0.2548 -0.0680 -0.0254
  380loPI    C1 6065   1.313   5.776  11.316 -0.0244  0.1313 -0.1080
  380loPI    C2 6066   1.589   5.757  11.605  0.0707 -0.0260 -0.2075
  380loPI    C3 6067   1.230   5.915  11.682 -0.0143 -0.3494  0.0851
  380loPI   PO4 6068   1.384   5.912  11.139 -0.2919 -0.2945 -0.0481
  380loPI   GL1 6069   1.176   6.061  10.763 -0.1070 -0.1762 -0.0141
  380loPI   GL2 6070   1.202   6.308  10.656  0.0454  0.1420 -0.0752
  380loPI   C1A 6071   1.104   5.793  10.438 -0.0493 -0.2657  0.1494
  380loPI   C2A 6072   0.936   5.511  10.062 -0.0522 -0.1235 -0.0156
  380loPI   C3A 6073   0.795   5.313   9.737  0.0312  0.3018  0.1700
  380loPI   C4A 6074   0.676   4.977   9.500 -0.0920  0.0112 -0.0168
  380loPI   C5A 6075   0.810   4.829   9.092  0.2342 -0.1114  0.5022
  380loPI   C6A 6076   1.296   4.822   8.989 -0.1457 -0.0845 -0.0346
  380loPI   C1B 6077   1.252   6.204  10.152 -0.2764 -0.0218 -0.2039
  380loPI   C2B 6078   1.371   6.264   9.725  0.1336 -0.0033 -0.2756
  380loPI   C3B 6079   1.112   6.430   9.349  0.1964  0.0857 -0.1461
  380loPI   C4B 6080   0.728   6.651   9.068 -0.3421  0.3996 -0.2263
  381loPI    C1 6081  10.866   3.139  11.574  0.0508 -0.0996  0.0820
  381loPI    C2 6082  10.688   3.233  11.920  0.0207 -0.0441  0.0516
  381loPI    C3 6083  10.873   2.881  11.880 -0.3310 -0.2255 -0.0110
  381loPI   PO4 6084  10.713   3.198  11.335  0.1763  0.0954  0.1986
  381loPI   GL1 6085  10.499   2.964  11.073  0.2881  0.2058 -0.0730
  381loPI   GL2 6086  10.831   2.831  10.981  0.1028  0.2165  0.1869
  381loPI   C1A 6087  10.504   3.035  10.677  0.2781 -0.2429  0.1346
  381loPI   C2A 6088  10.665   3.047  10.268 -0.1208 -0.3391 -0.1107
  381loPI   C3A 6089  10.540   3.154   9.796 -0.1525 -0.2121 -0.2518
  381loPI   C4A 6090  10.584   3.098   9.416  0.1212  0.2459 -0.1606
  381loPI   C5A 6091  10.721   3.248   8.897 -0.0618  0.1462 -0.3510
  381loPI   C6A 6092  10.754   3.114   8.455  0.1321 -0.1035 -0.3004
  381loPI   C1B 6093  10.927   2.742  10.657 -0.0629  0.0512  0.0193
  381loPI   C2B 6094  10.958   2.597  10.254 -0.2824  0.3564 -0.1406
  381loPI   C3B 6095  10.845   2.750   9.791  0.0209 -0.1191 -0.2353
  381loPI   C4B 6096  11.042   2.779   9.356 -0.1668  0.2326 -0.3581
  382loPI    C1 6097  15.549   7.676  11.480 -0.2116 -0.2578  0.0336
  382loPI    C2 6098  15.265   7.909  11.637 -0.0599 -0.1045  0.0832
  382loPI    C3 6099  15.438   7.627  11.861 -0.0671 -0.0977  0.0974
  382loPI   PO4 6100  15.453   7.598  11.219  0.0107 -0.2339 -0.1228
  382loPI   GL1 6101  15.394   7.922  10.885  0.1690  0.1112 -0.3346
  382loPI   GL2 6102  15.131   7.990  11.045 -0.1054 -0.1625  0.0295
  382loPI   C1A 6103  15.318   8.125  10.517 -0.0936 -0.2777 -0.0707
  382loPI   C2A 6104  15.392   8.331  10.084  0.2198  0.0805 -0.1343
  382loPI   C3A 6105  15.538   8.484   9.650  0.1815  0.2027  0.1454
  382loPI   C4A 6106  15.470   8.590   9.232  0.3195  0.0201 -0.1556
  382loPI   C5A 6107  15.380   8.627   8.875  0.2641  0.0428  0.1330
  382loPI   C6A 6108  15.530   8.693   8.491  0.3467  0.0563 -0.0151
  382loPI   C1B 6109  14.927   7.876  10.690 -0.1026 -0.0045 -0.2278
  382loPI   C2B 6110  14.738   7.707  10.321  0.0273  0.0210 -0.1198
  382loPI   C3B 6111  14.665   7.387   9.958  0.2183 -0.2493 -0.2847
  382loPI   C4B 6112  14.635   7.360   9.590 -0.1432 -0.0532  0.1260
  383loPI    C1 6113   8.722   0.682  11.787  0.1271  0.0900 -0.0571
  383loPI    C2 6114   8.988   0.784  12.067  0.0439  0.1024  0.0179
  383loPI    C3 6115   8.606   0.723  12.168 -0.0363  0.3421 -0.1313
  383loPI   PO4 6116   8.909   0.753  11.552 -0.1456 -0.0432 -0.0529
  383loPI   GL1 6117   8.634   0.729  11.218  0.1656  0.2729  0.0460
  383loPI   GL2 6118   8.744   1.097  11.120  0.0191 -0.2234 -0.1385
  383loPI   C1A 6119   8.590   0.597  10.756  0.1881 -0.0095 -0.0705
  383loPI   C2A 6120   8.532   0.578  10.383  0.0355  0.1805  0.1363
  383loPI   C3A 6121   8.555   0.564   9.974  0.4676  0.0385  0.2415
  383loPI   C4A 6122   8.625   0.578   9.508  0.0362 -0.1737 -0.0457
  383loPI   C5A 6123   8.548   0.800   9.095 -0.1053 -0.0033  0.2523
  383loPI   C6A 6124   8.483   0.872   8.628  0.0948 -0.0087 -0.2634
  383loPI   C1B 6125   8.666   1.154  10.682  0.0520  0.0441  0.0674
  383loPI   C2B 6126   8.679   1.033  10.258  0.0700  0.2046 -0.2418
  383loPI   C3B 6127   8.649   1.042   9.792 -0.1860 -0.1272  0.0171
  383loPI   C4B 6128   8.659   1.174   9.413  0.0102 -0.0453  0.1080
  384loPI    C1 6129   1.996  16.716  11.793  0.2839 -0.3931 -0.0112
  384loPI    C2 6130   2.191  17.040  11.923 -0.1748 -0.0499 -0.1528
  384loPI    C3 6131   2.254  16.686  12.097  0.2203  0.1401  0.1063
  384loPI   PO4 6132   2.009  16.753  11.503  0.1946 -0.0698  0.0214
  384loPI   GL1 6133   2.206  16.745  11.179  0.2420 -0.0654 -0.1627
  384loPI   GL2 6134   1.956  16.470  11.126  0.0960 -0.0600 -0.2832
  384loPI   C1A 6135   2.223  16.805  10.657 -0.1024 -0.2294 -0.3107
  384loPI   C2A 6136   2.219  16.817  10.274 -0.1074 -0.0080 -0.0841
  384loPI   C3A 6137   2.262  16.720   9.829 -0.0600  0.1039 -0.1755
  384loPI   C4A 6138   2.270  16.688   9.427  0.0870  0.0106  0.0368
  384loPI   C5A 6139   2.286  16.558   8.991  0.2647  0.0420 -0.0825
  384loPI   C6A 6140   2.080  16.164   8.816  0.0959 -0.0369  0.3637
  384loPI   C1B 6141   2.064  16.313  10.655 -0.2053 -0.0475  0.1790
  384loPI   C2B 6142   2.108  16.317  10.207  0.1755  0.0364  0.0555
  384loPI   C3B 6143   2.018  16.221   9.750  0.1099  0.1075  0.0244
  384loPI   C4B 6144   2.138  16.242   9.366 -0.5532 -0.0311  0.2532
  385loPI    C1 6145  14.211  12.709  12.038  0.0163  0.0854  0.1654
  385loPI    C2 6146  13.819  12.788  12.039 -0.0181 -0.0808  0.1360
  385loPI    C3 6147  13.983  12.590  12.345  0.0062 -0.1873  0.0545
  385loPI   PO4 6148  14.249  12.503  11.728  0.3318  0.0626 -0.1135
  385loPI   GL1 6149  14.259  12.525  11.236 -0.1324  0.0039 -0.2424
  385loPI   GL2 6150  14.517  12.277  11.037  0.2386 -0.2647 -0.0516
  385loPI   C1A 6151  14.171  12.755  10.804 -0.1711 -0.2379 -0.1695
  385loPI   C2A 6152  14.198  12.717  10.313  0.3445  0.0357  0.0220
  385loPI   C3A 6153  14.229  12.682   9.872 -0.0886  0.0215 -0.2444
  385loPI   C4A 6154  14.177  12.756   9.444 -0.0941 -0.2290  0.0490
  385loPI   C5A 6155  13.950  12.648   8.988 -0.2623 -0.3926 -0.0830
  385loPI   C6A 6156  14.000  12.443   8.534 -0.2175 -0.0157  0.1006
  385loPI   C1B 6157  14.488  12.400  10.628  0.0503  0.0736 -0.1557
  385loPI   C2B 6158  14.616  12.369  10.178  0.0759 -0.1283 -0.0271
  385loPI   C3B 6159  14.633  12.352   9.766 -0.1311 -0.0754 -0.3686
  385loPI   C4B 6160  14.555  12.433   9.385  0.0313  0.4105  0.1133
  386loPI    C1 6161   2.736   5.276  11.224 -0.1362  0.0851  0.1088
  386loPI    C2 6162   2.594   5.507  10.931  0.1039 -0.1932 -0.2356
  386loPI    C3 6163   2.630   5.654  11.301 -0.0847  0.2029 -0.3681
  386loPI   PO4 6164   2.942   5.147  11.076  0.2165  0.0725 -0.2582
  386loPI   GL1 6165   3.227   4.956  10.782 -0.3775 -0.0778 -0.0552
  386loPI   GL2 6166   3.315   5.272  10.761  0.0603  0.2189  0.2962
  386loPI   C1A 6167   3.150   4.662  10.436  0.0750  0.3312 -0.1141
  386loPI   C2A 6168   3.211   4.532   9.994  0.0852 -0.0320  0.0937
  386loPI   C3A 6169   3.316   4.630   9.600  0.0590 -0.2924  0.0847
  386loPI   C4A 6170   3.470   4.744   9.221 -0.0704 -0.0428 -0.1320
  386loPI   C5A 6171   3.642   4.969   8.851 -0.0964 -0.0558  0.1325
  386loPI   C6A 6172   3.859   4.699   8.481  0.2851 -0.1646 -0.2753
  386loPI   C1B 6173   3.265   5.224  10.329 -0.0350 -0.1727 -0.2615
  386loPI   C2B 6174   3.321   5.021   9.962 -0.1450 -0.3244 -0.0272
  386loPI   C3B 6175   3.595   5.047   9.642 -0.3164  0.2400 -0.0525
  386loPI   C4B 6176   3.901   4.901   9.360 -0.2584  0.1632  0.1630
  387loPI    C1 6177   9.212   8.204  11.496 -0.2065 -0.5120 -0.1568
  387loPI    C2 6178   9.399   7.983  11.772  0.1286  0.0855  0.1143
  387loPI    C3 6179   9.061   8.174  11.866 -0.0416 -0.1274 -0.0538
  387loPI   PO4 6180   9.390   8.267  11.386  0.0476 -0.0802 -0.1506
  387loPI   GL1 6181   9.648   8.322  11.073  0.1175  0.1669 -0.1749
  387loPI   GL2 6182   9.408   8.584  10.968  0.1077 -0.3963 -0.0037
  387loPI   C1A 6183   9.802   7.966  10.879  0.0416 -0.1482 -0.0721
  387loPI   C2A 6184   9.809   7.988  10.391 -0.1342  0.0710 -0.0870
  387loPI   C3A 6185   9.782   8.092   9.990 -0.1048  0.2089 -0.3241
  387loPI   C4A 6186   9.847   8.217   9.627  0.1722 -0.0679  0.1991
  387loPI   C5A 6187   9.803   8.329   9.195 -0.1660 -0.1467  0.4331
  387loPI   C6A 6188   9.703   8.529   8.785 -0.3794 -0.1536 -0.0514
  387loPI   C1B 6189   9.436   8.402  10.537  0.1162  0.0443 -0.1141
  387loPI   C2B 6190   9.422   8.461  10.118  0.1483 -0.0900  0.0171
  387loPI   C3B 6191   9.462   8.545   9.682 -0.1729  0.1275  0.2652
  387loPI   C4B 6192   9.334   8.502   9.250 -0.1110  0.1392  0.0889
  388loPI    C1 6193  12.996   6.276  11.937  0.0511 -0.4831 -0.1129
  388loPI    C2 6194  13.391   6.223  11.959  0.1233  0.0850  0.1353
  388loPI    C3 6195  13.197   6.406  12.258 -0.2914  0.0293 -0.0928
  388loPI   PO4 6196  12.990   6.301  11.666  0.1052 -0.2730 -0.0806
  388loPI   GL1 6197  12.916   6.251  11.224  0.3948  0.2026  0.2094
  388loPI   GL2 6198  12.678   6.213  11.091 -0.1832 -0.0532  0.0595
  388loPI   C1A 6199  13.091   6.301  10.676  0.2046  0.0392  0.1519
  388loPI   C2A 6200  13.049   6.266  10.268 -0.0942 -0.0304  0.1288
  388loPI   C3A 6201  13.026   6.312   9.862  0.2075 -0.0629  0.1813
  388loPI   C4A 6202  12.986   6.377   9.411  0.2409 -0.0145 -0.1621
  388loPI   C5A 6203  13.354   6.446   9.087  0.1036 -0.0034  0.0938
  388loPI   C6A 6204  13.714   6.386   8.911  0.1151 -0.1438 -0.1699
  388loPI   C1B 6205  12.527   6.133  10.672 -0.0140 -0.2869  0.0230
  388loPI   C2B 6206  12.593   6.116  10.112 -0.1668 -0.1602 -0.0289
  388loPI   C3B 6207  12.492   6.120   9.588  0.2547  0.3100 -0.0698
  388loPI   C4B 6208  12.564   5.973   9.154  0.2128  0.0190  0.1939
  389loPI    C1 6209  16.730   6.339  11.267  0.0984  0.0662 -0.0324
  389loPI    C2 6210  16.544   6.598  11.509  0.1582  0.1427 -0.0681
  389loPI    C3 6211  16.574   6.213  11.613  0.0360  0.1424 -0.0326
  389loPI   PO4 6212  16.741   6.462  11.044 -0.1581 -0.1582 -0.1085
  389loPI   GL1 6213  16.533   6.592  10.750  0.0246 -0.1480 -0.2757
  389loPI   GL2 6214  16.424   6.261  10.606 -0.1185  0.1119  0.1571
  389loPI   C1A 6215  16.476   6.751  10.345  0.1438 -0.0795  0.2816
  389loPI   C2A 6216  16.406   6.767   9.858  0.0997  0.4000 -0.1904
  389loPI   C3A 6217  16.511   6.629   9.480 -0.2461 -0.0047  0.1822
  389loPI   C4A 6218  16.440   6.916   9.221 -0.2016 -0.1848 -0.0822
  389loPI   C5A 6219  16.448   7.048   8.834 -0.2266 -0.1827  0.0156
  389loPI   C6A 6220  16.636   7.409   8.611  0.0238  0.2976  0.0347
  389loPI   C1B 6221  16.251   6.215  10.167  0.0090  0.3715 -0.2674
  389loPI   C2B 6222  16.365   6.218   9.767  0.1605  0.1087 -0.1473
  389loPI   C3B 6223  16.329   6.241   9.295  0.1571 -0.3462 -0.0948
  389loPI   C4B 6224  16.274   6.104   8.857  0.1013 -0.4433  0.0474
  390loPI    C1 6225  10.430  16.871  11.723  0.1298  0.0545  0.0411
  390loPI    C2 6226  10.481  17.051  12.077 -0.0037  0.0264  0.0755
  390loPI    C3 6227  10.117  17.033  11.913  0.0724  0.1183 -0.1067
  390loPI   PO4 6228  10.587  17.051  11.472 -0.0547  0.2118 -0.0644
  390loPI   GL1 6229  10.455  17.117  11.072 -0.0995  0.0917  0.0968
  390loPI   GL2 6230  10.608  16.861  11.008  0.1110  0.2004 -0.1650
  390loPI   C1A 6231  10.194  17.269  10.667  0.1457 -0.1177 -0.0028
  390loPI   C2A 6232  10.059  17.292  10.301 -0.1701 -0.2314  0.1039
  390loPI   C3A 6233  10.219  17.342   9.909  0.0414  0.2267 -0.1007
  390loPI   C4A 6234  10.175  17.227   9.585 -0.1890  0.1383  0.2433
  390loPI   C5A 6235  10.087  17.275   9.169  0.2342 -0.0461 -0.0090
  390loPI   C6A 6236   9.883  17.466   8.886  0.0868  0.4726  0.2618
  390loPI   C1B 6237  10.522  16.888  10.583  0.2532 -0.0905  0.3014
  390loPI   C2B 6238  10.350  16.945  10.199  0.0283  0.1536 -0.1521
  390loPI   C3B 6239  10.559  16.941   9.744  0.0344  0.3849  0.2570
  390loPI   C4B 6240  10.977  16.993   9.613 -0.0172 -0.0227  0.0512
  391loPI    C1 6241   5.314   0.630  11.792  0.0103  0.3308  0.0696
  391loPI    C2 6242   4.979   0.831  11.879 -0.2985 -0.1475  0.0270
  391loPI    C3 6243   5.134   0.576  12.145 -0.1546 -0.1763 -0.0824
  391loPI   PO4 6244   5.283   0.520  11.546  0.3099  0.2449 -0.1397
  391loPI   GL1 6245   5.490   0.473  11.084  0.1309  0.2521 -0.0673
  391loPI   GL2 6246   5.169   0.614  11.071 -0.0286  0.4958 -0.0235
  391loPI   C1A 6247   5.748   0.213  10.787 -0.1120 -0.0264 -0.1772
  391loPI   C2A 6248   5.690   0.266  10.361 -0.0525  0.1730  0.1985
  391loPI   C3A 6249   5.771   0.226   9.939 -0.2560  0.0879 -0.1321
  391loPI   C4A 6250   5.776   0.247   9.532 -0.2532 -0.3644  0.1339
  391loPI   C5A 6251   5.730   0.117   9.104  0.2173 -0.2289 -0.0805
  391loPI   C6A 6252   5.668  -0.309   9.057 -0.1311 -0.0139 -0.1308
  391loPI   C1B 6253   5.336   0.618  10.567 -0.1503  0.0884  0.3998
  391loPI   C2B 6254   5.267   0.569  10.045  0.0775 -0.1866 -0.1623
  391loPI   C3B 6255   5.351   0.600   9.593 -0.0335 -0.0232 -0.3036
  391loPI   C4B 6256   5.495   0.599   9.174  0.2414  0.0203  0.3686
  392loPI    C1 6257  16.098  16.113  11.364 -0.1090 -0.0685 -0.0143
  392loPI    C2 6258  16.038  15.827  11.637  0.1046 -0.0710  0.0319
  392loPI    C3 6259  16.400  15.993  11.597 -0.0593  0.3248  0.1329
  392loPI   PO4 6260  16.130  16.062  11.161  0.1806  0.1372 -0.0942
  392loPI   GL1 6261  16.098  15.947  10.853  0.0114  0.1003 -0.0236
  392loPI   GL2 6262  15.960  16.304  10.694  0.1271  0.2479  0.4309
  392loPI   C1A 6263  16.267  15.805  10.485  0.0348  0.3420  0.2969
  392loPI   C2A 6264  16.256  15.724   9.974 -0.0912 -0.1055 -0.0234
  392loPI   C3A 6265  16.342  15.684   9.534 -0.2285 -0.0939  0.4988
  392loPI   C4A 6266  16.356  15.752   9.101  0.0087  0.2201  0.2785
  392loPI   C5A 6267  16.378  15.660   8.708 -0.0985  0.1861 -0.0443
  392loPI   C6A 6268  16.215  15.620   8.219 -0.0457  0.0364 -0.3686
  392loPI   C1B 6269  15.863  16.070  10.360  0.4552  0.2979  0.0562
  392loPI   C2B 6270  15.839  16.084   9.836  0.2591 -0.0890 -0.1872
  392loPI   C3B 6271  15.939  16.133   9.363  0.0041  0.1143 -0.0203
  392loPI   C4B 6272  16.010  16.033   8.917 -0.1243 -0.2014 -0.0839
  393loPI    C1 6273  12.805   9.076  11.919  0.2249 -0.2754  0.0814
  393loPI    C2 6274  12.960   9.340  12.176  0.1524 -0.1614  0.0090
  393loPI    C3 6275  12.624   9.144  12.269  0.0298  0.0089 -0.0704
  393loPI   PO4 6276  12.807   9.142  11.674  0.0244 -0.2113  0.1486
  393loPI   GL1 6277  12.469   8.990  11.366  0.0124 -0.2415  0.3185
  393loPI   GL2 6278  12.089   8.990  11.367  0.1005 -0.0611  0.4533
  393loPI   C1A 6279  12.455   9.367  11.049  0.0531 -0.1037  0.1390
  393loPI   C2A 6280  12.353   9.346  10.596  0.0780 -0.0634 -0.3650
  393loPI   C3A 6281  12.318   9.350  10.162 -0.1150 -0.2157 -0.0882
  393loPI   C4A 6282  12.496   9.487   9.710  0.0540 -0.1842  0.0915
  393loPI   C5A 6283  12.414   9.447   9.330 -0.2899  0.0069  0.0822
  393loPI   C6A 6284  12.185   9.642   9.027  0.0021  0.2829 -0.1842
  393loPI   C1B 6285  12.022   9.058  10.872 -0.2032 -0.4217 -0.0434
  393loPI   C2B 6286  11.900   9.205  10.426 -0.1928 -0.0036  0.2659
  393loPI   C3B 6287  11.936   9.213   9.879 -0.0074  0.2194  0.1622
  393loPI   C4B 6288  11.929   9.410   9.472  0.4103  0.2694  0.1987
  394loPI    C1 6289   8.590  12.570  11.639 -0.0946  0.2224  0.0025
  394loPI    C2 6290   8.267  12.411  11.814 -0.0579 -0.0543 -0.1755
  394loPI    C3 6291   8.620  12.405  12.002 -0.1067  0.0352 -0.0803
  394loPI   PO4 6292   8.602  12.476  11.371 -0.2373 -0.0170 -0.2372
  394loPI   GL1 6293   8.475  12.529  10.918 -0.1186 -0.0137 -0.2971
  394loPI   GL2 6294   8.500  12.156  11.006  0.0621  0.3729  0.1219
  394loPI   C1A 6295   8.550  12.435  10.480 -0.0266  0.0656  0.2390
  394loPI   C2A 6296   8.642  12.473   9.940 -0.0810  0.2312  0.0070
  394loPI   C3A 6297   8.570  12.581   9.545  0.1468  0.2079 -0.0412
  394loPI   C4A 6298   8.557  12.624   9.066  0.1933  0.1478 -0.1446
  394loPI   C5A 6299   8.459  12.595   8.676  0.1182 -0.1802  0.1895
  394loPI   C6A 6300   8.541  12.867   8.273  0.0756 -0.3337 -0.0726
  394loPI   C1B 6301   8.416  11.967  10.557  0.1670 -0.1384  0.0857
  394loPI   C2B 6302   8.372  11.905  10.080  0.2075  0.0961  0.1885
  394loPI   C3B 6303   8.434  11.903   9.687 -0.3723 -0.0238  0.1672
  394loPI   C4B 6304   8.460  11.934   9.216  0.0132 -0.0400  0.2648
  395loPI    C1 6305  13.278  10.557  11.541  0.1144  0.2623  0.1347
  395loPI    C2 6306  13.048  10.796  11.764  0.1226  0.3325  0.0686
  395loPI    C3 6307  13.292  10.532  11.939  0.0110  0.2755  0.1395
  395loPI   PO4 6308  13.070  10.442  11.392 -0.1500 -0.0782 -0.2087
  395loPI   GL1 6309  13.016  10.397  10.951  0.0571  0.2278 -0.0159
  395loPI   GL2 6310  12.693  10.335  10.952 -0.0244 -0.3722  0.0315
  395loPI   C1A 6311  13.045  10.514  10.480 -0.0383 -0.3613 -0.0284
  395loPI   C2A 6312  13.187  10.584  10.033 -0.3119 -0.3215  0.0700
  395loPI   C3A 6313  13.236  10.625   9.638 -0.2750  0.1239  0.3209
  395loPI   C4A 6314  13.147  10.509   9.241  0.1570 -0.3124  0.2466
  395loPI   C5A 6315  12.768  10.266   8.995 -0.0735 -0.1831  0.1504
  395loPI   C6A 6316  12.532  10.326   8.688 -0.0666  0.0477 -0.1936
  395loPI   C1B 6317  12.542  10.352  10.613 -0.2394 -0.1926 -0.0933
  395loPI   C2B 6318  12.575  10.420  10.247 -0.1272  0.1967  0.4485
  395loPI   C3B 6319  12.648  10.428   9.909  0.3508  0.0955  0.0251
  395loPI   C4B 6320  12.685  10.416   9.502 -0.0195  0.0802  0.1218
  396loPI    C1 6321  12.583   6.587  11.850  0.2553 -0.1753 -0.0298
  396loPI    C2 6322  12.870   6.785  12.046 -0.0232 -0.0796  0.2925
  396loPI    C3 6323  12.550   6.650  12.244 -0.4040  0.1815 -0.1267
  396loPI   PO4 6324  12.425   6.737  11.677  0.0429  0.1041 -0.0415
  396loPI   GL1 6325  12.521   6.683  11.231  0.0641 -0.1744  0.3446
  396loPI   GL2 6326  12.306   6.931  11.084  0.1186 -0.2354 -0.2771
  396loPI   C1A 6327  12.723   6.675  10.885  0.2217  0.2213  0.1539
  396loPI   C2A 6328  12.714   6.589  10.481  0.2906 -0.3008  0.3038
  396loPI   C3A 6329  12.638   6.640  10.037  0.2315  0.0314 -0.0327
  396loPI   C4A 6330  12.586   6.647   9.581 -0.4051 -0.0292  0.2405
  396loPI   C5A 6331  12.546   6.687   9.167 -0.1699 -0.2377  0.0181
  396loPI   C6A 6332  12.635   6.445   8.966 -0.0201 -0.1855  0.1740
  396loPI   C1B 6333  12.327   6.987  10.734  0.0769 -0.0358  0.1626
  396loPI   C2B 6334  12.289   6.966  10.292  0.0533 -0.2001  0.1827
  396loPI   C3B 6335  12.251   6.946   9.846 -0.0804 -0.0465 -0.0148
  396loPI   C4B 6336  12.224   6.991   9.429 -0.0289  0.4923 -0.0646
  397loPI    C1 6337   7.804   1.194  11.712  0.0228 -0.5239  0.0804
  397loPI    C2 6338   8.061   1.279  12.006  0.0025 -0.0079 -0.0413
  397loPI    C3 6339   7.706   1.463  11.991 -0.0635 -0.1513 -0.2981
  397loPI   PO4 6340   7.962   1.180  11.475 -0.0390 -0.0450 -0.1455
  397loPI   GL1 6341   8.236   1.110  11.194  0.1879 -0.0067 -0.0450
  397loPI   GL2 6342   7.963   1.382  11.046  0.0835 -0.3513  0.1047
  397loPI   C1A 6343   8.237   0.948  10.754  0.2592  0.1392 -0.1628
  397loPI   C2A 6344   8.165   0.913  10.294 -0.1160  0.4148  0.1336
  397loPI   C3A 6345   8.148   0.884   9.896  0.5139  0.3752 -0.1061
  397loPI   C4A 6346   8.208   0.931   9.473 -0.1548  0.1874 -0.1558
  397loPI   C5A 6347   8.105   0.965   9.027 -0.1500 -0.3572 -0.2845
  397loPI   C6A 6348   8.017   1.125   8.557  0.1889  0.1098 -0.3960
  397loPI   C1B 6349   7.871   1.294  10.670  0.1576 -0.2369 -0.1222
  397loPI   C2B 6350   7.806   1.228  10.261 -0.0820 -0.1252  0.0842
  397loPI   C3B 6351   7.818   1.346   9.860  0.0661 -0.0628 -0.0848
  397loPI   C4B 6352   7.820   1.201   9.408  0.3601  0.1674 -0.0526
  398loPI    C1 6353   8.512   0.257  11.720 -0.2544  0.1229  0.0803
  398loPI    C2 6354   8.344  -0.056  11.905 -0.2950  0.0482 -0.0810
  398loPI    C3 6355   8.442   0.271  12.113  0.2331 -0.2693  0.1917
  398loPI   PO4 6356   8.510   0.272  11.476  0.1355  0.0609  0.2742
  398loPI   GL1 6357   8.545   0.114  11.063 -0.0354 -0.3780  0.0095
  398loPI   GL2 6358   8.878   0.292  11.020 -0.0796  0.0806 -0.1469
  398loPI   C1A 6359   8.405   0.159  10.726 -0.1576  0.1518 -0.1009
  398loPI   C2A 6360   8.408   0.084  10.343  0.0305 -0.0031  0.0109
  398loPI   C3A 6361   8.474   0.080   9.947  0.0785 -0.0833  0.2861
  398loPI   C4A 6362   8.491   0.061   9.568  0.1452 -0.2784  0.3383
  398loPI   C5A 6363   8.548  -0.003   9.127  0.2397 -0.0318  0.1053
  398loPI   C6A 6364   8.643  -0.056   8.784  0.2507  0.1964 -0.0613
  398loPI   C1B 6365   8.909   0.261  10.587 -0.1264 -0.2905 -0.2898
  398loPI   C2B 6366   8.922   0.201  10.165 -0.1504 -0.0151 -0.2141
  398loPI   C3B 6367   8.936   0.210   9.764 -0.2549 -0.0196  0.0639
  398loPI   C4B 6368   9.016   0.223   9.267  0.0353  0.1743 -0.0672
  399loPI    C1 6369   5.744  10.367  11.676  0.0053  0.1772 -0.0674
  399loPI    C2 6370   6.008  10.505  11.942  0.2337 -0.1124 -0.1384
  399loPI    C3 6371   5.752  10.216  12.046  0.0135  0.0922 -0.1021
  399loPI   PO4 6372   5.902  10.312  11.484 -0.1158 -0.0575 -0.1956
  399loPI   GL1 6373   6.034  10.541  11.167 -0.2578 -0.1035 -0.0861
  399loPI   GL2 6374   6.121  10.275  10.965  0.2290 -0.0332 -0.1088
  399loPI   C1A 6375   5.788  10.663  10.744 -0.2008 -0.2678 -0.2811
  399loPI   C2A 6376   5.769  10.769  10.326 -0.1828  0.2553  0.2523
  399loPI   C3A 6377   5.820  10.754   9.915  0.2972 -0.1948 -0.3469
  399loPI   C4A 6378   5.892  10.789   9.486 -0.2836  0.1623  0.1729
  399loPI   C5A 6379   5.890  10.783   9.099  0.1887 -0.3058 -0.1573
  399loPI   C6A 6380   5.962  10.651   8.821  0.0197  0.1900  0.1430
  399loPI   C1B 6381   6.115  10.335  10.504  0.0884  0.0533 -0.0491
  399loPI   C2B 6382   6.143  10.392  10.020  0.2950 -0.0094  0.1298
  399loPI   C3B 6383   6.198  10.405   9.605 -0.0613 -0.6379 -0.0320
  399loPI   C4B 6384   6.226  10.416   9.203 -0.0094  0.0939 -0.3978
  400loPI    C1 6385  15.917   4.140  11.364  0.0718  0.0675 -0.0829
  400loPI    C2 6386  15.735   4.437  11.561 -0.0243  0.0309 -0.1155
  400loPI    C3 6387  16.027   4.229  11.738 -0.0289  0.0761 -0.0549
  400loPI   PO4 6388  15.989   4.286  11.120  0.2058 -0.0386  0.0151
  400loPI   GL1 6389  16.089   4.288  10.686  0.1449 -0.1767  0.1907
  400loPI   GL2 6390  15.728   4.374  10.689  0.0298 -0.0568  0.0763
  400loPI   C1A 6391  16.355   4.301  10.341  0.0470  0.0643 -0.5191
  400loPI   C2A 6392  16.419   4.265   9.906  0.1511  0.0024  0.1273
  400loPI   C3A 6393  16.354   4.214   9.481 -0.4075  0.1540 -0.0896
  400loPI   C4A 6394  16.046   4.054   9.354 -0.1276 -0.0024  0.1310
  400loPI   C5A 6395  15.862   4.073   9.032  0.1178  0.1277  0.1875
  400loPI   C6A 6396  15.810   4.068   8.605 -0.2378 -0.0210  0.1188
  400loPI   C1B 6397  15.874   4.220  10.237 -0.2807  0.0824  0.2405
  400loPI   C2B 6398  15.972   4.304   9.816  0.0330 -0.0493 -0.0588
  400loPI   C3B 6399  15.713   4.498   9.440  0.0296  0.2621 -0.0072
  400loPI   C4B 6400  15.616   4.501   8.932 -0.1576  0.0478  0.0147
  401loPI    C1 6401   7.760   8.767  11.843  0.0576 -0.0533 -0.1839
  401loPI    C2 6402   7.395   8.616  11.905 -0.0515  0.1112 -0.4089
  401loPI    C3 6403   7.457   9.010  11.936  0.2063  0.0424  0.0616
  401loPI   PO4 6404   7.821   8.649  11.571 -0.1692  0.1986  0.0666
  401loPI   GL1 6405   7.999   8.725  11.114  0.1294  0.1921  0.2983
  401loPI   GL2 6406   7.929   8.487  10.929 -0.2206 -0.2834  0.1493
  401loPI   C1A 6407   8.098   8.899  10.705  0.0710 -0.2976 -0.4669
  401loPI   C2A 6408   8.183   8.964  10.292 -0.0784  0.2131 -0.1314
  401loPI   C3A 6409   8.225   8.987   9.887  0.0965 -0.2811  0.1527
  401loPI   C4A 6410   8.349   9.082   9.402 -0.3000 -0.1807 -0.2975
  401loPI   C5A 6411   8.220   9.079   8.883 -0.2473  0.0144 -0.0511
  401loPI   C6A 6412   8.255   8.962   8.460 -0.1276  0.1758  0.0056
  401loPI   C1B 6413   7.961   8.486  10.436  0.0164 -0.0687  0.1300
  401loPI   C2B 6414   8.007   8.547  10.092 -0.1565  0.2576  0.0833
  401loPI   C3B 6415   8.066   8.555   9.696  0.2577  0.1089 -0.1613
  401loPI   C4B 6416   8.035   8.662   9.321  0.0768  0.0268 -0.1080
  402loPI    C1 6417  14.168  16.825  11.725  0.0579  0.0531  0.2179
  402loPI    C2 6418  13.853  17.029  11.588 -0.0388 -0.1585  0.1210
  402loPI    C3 6419  13.995  17.102  11.955 -0.2491 -0.1159  0.1950
  402loPI   PO4 6420  14.272  16.744  11.433 -0.2039 -0.1141 -0.2201
  402loPI   GL1 6421  14.211  16.580  11.045  0.0014 -0.0539 -0.0660
  402loPI   GL2 6422  14.364  16.907  10.947  0.1159 -0.1762 -0.2826
  402loPI   C1A 6423  14.247  16.477  10.717  0.0700  0.0452  0.0727
  402loPI   C2A 6424  14.152  16.458  10.280 -0.1678 -0.5323  0.0377
  402loPI   C3A 6425  14.045  16.418   9.751  0.0745  0.3312  0.0013
  402loPI   C4A 6426  14.177  16.513   9.386  0.0610  0.0101  0.3543
  402loPI   C5A 6427  14.052  16.740   9.051  0.0265  0.1126  0.1718
  402loPI   C6A 6428  13.601  16.901   9.024 -0.0067 -0.1357 -0.1948
  402loPI   C1B 6429  14.202  17.018  10.582  0.1446 -0.1250  0.1438
  402loPI   C2B 6430  14.344  16.980  10.142 -0.0589  0.2936  0.0823
  402loPI   C3B 6431  14.328  16.992   9.723 -0.1130 -0.2156  0.0098
  402loPI   C4B 6432  14.281  17.059   9.339  0.0102 -0.1063  0.0333
  403loPI    C1 6433  10.266   0.259  11.904 -0.0717  0.2129  0.2540
  403loPI    C2 6434  10.611   0.140  12.069  0.0499  0.1344 -0.0494
  403loPI    C3 6435  10.279  -0.077  12.120  0.1366 -0.0103 -0.0948
  403loPI   PO4 6436  10.277   0.277  11.631  0.0989  0.3975  0.0315
  403loPI   GL1 6437  10.207   0.403  11.277 -0.1665  0.2812 -0.1258
  403loPI   GL2 6438  10.309   0.641  11.190 -0.0538 -0.0324  0.3033
  403loPI   C1A 6439   9.993   0.345  10.916 -0.1751 -0.1073 -0.0984
  403loPI   C2A 6440   9.836   0.603  10.488 -0.2759 -0.2425 -0.1342
  403loPI   C3A 6441   9.816   0.583  10.085 -0.1006 -0.3209 -0.1548
  403loPI   C4A 6442   9.878   0.623   9.652 -0.1319  0.0063 -0.0490
  403loPI   C5A 6443   9.962   0.627   9.249 -0.2042  0.0951  0.2689
  403loPI   C6A 6444   9.946   0.398   8.768  0.1223 -0.0169 -0.2008
  403loPI   C1B 6445  10.316   0.615  10.680 -0.1139  0.0366  0.0841
  403loPI   C2B 6446  10.324   0.755  10.295  0.0227 -0.0285 -0.1580
  403loPI   C3B 6447  10.293   0.718   9.934  0.1351 -0.1001 -0.0860
  403loPI   C4B 6448  10.447   0.702   9.480  0.0563 -0.0100  0.1006
  404loPI    C1 6449  12.413   1.356  12.026  0.1208 -0.0613  0.1906
  404loPI    C2 6450  12.106   1.611  11.993  0.2480  0.0992  0.2297
  404loPI    C3 6451  12.154   1.397  12.328 -0.0624 -0.2465  0.0612
  404loPI   PO4 6452  12.341   1.216  11.704  0.0662 -0.1047 -0.2617
  404loPI   GL1 6453  12.459   1.237  11.257  0.3458 -0.1557 -0.0136
  404loPI   GL2 6454  12.786   1.345  11.104  0.1034 -0.1438 -0.0269
  404loPI   C1A 6455  12.360   1.237  10.866  0.1704 -0.0635  0.2718
  404loPI   C2A 6456  12.360   1.226  10.354  0.4699  0.0249  0.1615
  404loPI   C3A 6457  12.460   1.188   9.894  0.0270 -0.3762 -0.0367
  404loPI   C4A 6458  12.345   1.238   9.430 -0.3823 -0.1905 -0.2146
  404loPI   C5A 6459  12.242   1.073   8.968 -0.3639 -0.0973 -0.1293
  404loPI   C6A 6460  12.395   1.030   8.603 -0.1547 -0.1877  0.2238
  404loPI   C1B 6461  12.912   1.278  10.629 -0.0131 -0.1604 -0.1354
  404loPI   C2B 6462  12.877   1.331  10.241 -0.2199 -0.0549 -0.2235
  404loPI   C3B 6463  12.952   1.314   9.834  0.2135  0.0667 -0.2101
  404loPI   C4B 6464  12.883   1.312   9.342  0.0901 -0.0109  0.3029
  405loPI    C1 6465   1.899   8.135  11.426 -0.3337  0.0259 -0.1927
  405loPI    C2 6466   1.772   7.758  11.473 -0.1909 -0.0040 -0.0385
  405loPI    C3 6467   2.055   7.906  11.714  0.0781  0.0572 -0.3840
  405loPI   PO4 6468   1.761   8.160  11.083 -0.1038  0.4623  0.0249
  405loPI   GL1 6469   1.668   8.533  10.729 -0.1461  0.3239 -0.1500
  405loPI   GL2 6470   1.588   8.767  10.917 -0.2828 -0.1113  0.1634
  405loPI   C1A 6471   1.610   8.100  10.335  0.2091 -0.2676  0.4745
  405loPI   C2A 6472   1.651   8.208   9.826  0.1189 -0.1381 -0.0210
  405loPI   C3A 6473   1.645   8.082   9.318  0.1804  0.2022  0.0775
  405loPI   C4A 6474   1.505   7.823   8.989 -0.2022  0.3976 -0.0404
  405loPI   C5A 6475   1.582   7.633   8.676  0.1115 -0.1455 -0.1237
  405loPI   C6A 6476   1.211   7.720   8.507 -0.0946  0.3270 -0.0205
  405loPI   C1B 6477   1.570   9.041  10.539 -0.0502  0.1304 -0.0024
  405loPI   C2B 6478   1.629   9.081  10.126  0.2723 -0.1698  0.1617
  405loPI   C3B 6479   1.762   9.148   9.682 -0.0627  0.0412 -0.1185
  405loPI   C4B 6480   1.778   9.108   9.206  0.0891 -0.0249 -0.0637
  406loPI    C1 6481  15.538  17.424  11.702 -0.1707 -0.0724  0.0107
  406loPI    C2 6482  15.800  17.473  12.000 -0.0909 -0.4316  0.0047
  406loPI    C3 6483  15.448  17.298  12.070 -0.2285 -0.1779 -0.0393
  406loPI   PO4 6484  15.589  17.288  11.513 -0.1373 -0.2141  0.1738
  406loPI   GL1 6485  15.541  17.337  11.025 -0.0761  0.0768 -0.1822
  406loPI   GL2 6486  15.232  17.477  10.878 -0.0241  0.1506 -0.0199
  406loPI   C1A 6487  15.752  17.299  10.703  0.1015  0.0754  0.1003
  406loPI   C2A 6488  15.712  17.427  10.294 -0.0815  0.1466  0.1276
  406loPI   C3A 6489  15.806  17.377   9.861  0.0998  0.0414  0.2722
  406loPI   C4A 6490  15.752  17.459   9.507  0.2609 -0.0767  0.1085
  406loPI   C5A 6491  15.741  17.487   9.148 -0.0863 -0.0610 -0.2433
  406loPI   C6A 6492  15.492  17.385   8.729  0.2375  0.1713  0.2910
  406loPI   C1B 6493  15.215  17.312  10.473 -0.0743 -0.1789  0.0603
  406loPI   C2B 6494  15.241  17.224  10.083  0.2551 -0.0339  0.2156
  406loPI   C3B 6495  15.230  17.302   9.622  0.0939  0.0223  0.4409
  406loPI   C4B 6496  15.281  17.273   9.232 -0.0375 -0.1901 -0.3087
  407loPI    C1 6497   5.223   1.837  11.584 -0.0107  0.0693 -0.1191
  407loPI    C2 6498   5.540   1.676  11.766 -0.1366 -0.2184 -0.1498
  407loPI    C3 6499   5.367   2.002  11.918  0.1142 -0.1154 -0.0804
  407loPI   PO4 6500   5.125   1.614  11.461  0.1595 -0.1651 -0.1163
  407loPI   GL1 6501   5.138   1.403  11.042  0.0671  0.1374 -0.1332
  407loPI   GL2 6502   4.962   1.653  10.972  0.1614 -0.4606  0.0340
  407loPI   C1A 6503   5.007   1.319  10.609  0.1440  0.0800  0.0835
  407loPI   C2A 6504   5.076   1.372  10.110  0.0014  0.5144 -0.1356
  407loPI   C3A 6505   5.187   1.460   9.761 -0.2020 -0.0980 -0.1767
  407loPI   C4A 6506   5.255   1.428   9.300  0.1732 -0.4268  0.1820
  407loPI   C5A 6507   5.181   1.582   8.944 -0.1639 -0.1247  0.1205
  407loPI   C6A 6508   5.163   1.977   8.729  0.3115 -0.1130  0.1770
  407loPI   C1B 6509   4.719   1.727  10.675 -0.1134  0.2106  0.1413
  407loPI   C2B 6510   4.727   1.755  10.239  0.5007  0.2520  0.0535
  407loPI   C3B 6511   4.673   1.776   9.787  0.0365 -0.2245  0.1896
  407loPI   C4B 6512   4.865   1.780   9.280  0.1493  0.3896 -0.0584
  408loPI    C1 6513   2.584  14.804  11.425  0.1500 -0.0200 -0.2063
  408loPI    C2 6514   2.390  14.641  11.734  0.3318  0.0058 -0.0772
  408loPI    C3 6515   2.403  15.039  11.694 -0.0554 -0.0038 -0.3556
  408loPI   PO4 6516   2.507  14.596  11.181  0.0978 -0.3958 -0.1227
  408loPI   GL1 6517   2.655  14.518  10.781  0.0919 -0.0988 -0.2230
  408loPI   GL2 6518   2.986  14.484  10.919 -0.0403 -0.2530 -0.3267
  408loPI   C1A 6519   2.492  14.555  10.374 -0.0552 -0.1517  0.0549
  408loPI   C2A 6520   2.510  14.582   9.998 -0.0908  0.0961  0.4205
  408loPI   C3A 6521   2.582  14.488   9.555 -0.1770 -0.1205  0.1019
  408loPI   C4A 6522   2.663  14.532   9.163 -0.0447  0.0618 -0.0472
  408loPI   C5A 6523   2.613  14.846   8.830  0.1613 -0.0203  0.5155
  408loPI   C6A 6524   2.727  15.154   8.680  0.1321 -0.0208 -0.3482
  408loPI   C1B 6525   3.088  14.730  10.624 -0.0246  0.0552  0.0159
  408loPI   C2B 6526   2.992  14.706  10.207  0.1187 -0.1680  0.2553
  408loPI   C3B 6527   3.097  14.678   9.717  0.3319  0.1493  0.0947
  408loPI   C4B 6528   3.199  14.696   9.241 -0.1453 -0.2149 -0.2244
  409loPI    C1 6529   3.642   4.656  11.378  0.0558  0.1219  0.0425
  409loPI    C2 6530   3.379   4.832  11.623 -0.0044  0.0011  0.0654
  409loPI    C3 6531   3.422   4.964  11.248 -0.1831 -0.0527  0.0246
  409loPI   PO4 6532   3.592   4.389  11.372 -0.0472  0.3040 -0.1898
  409loPI   GL1 6533   3.559   4.188  11.000  0.1421 -0.1567 -0.2416
  409loPI   GL2 6534   3.651   4.541  10.909 -0.0593 -0.1635  0.0153
  409loPI   C1A 6535   3.739   4.009  10.654 -0.0625  0.1019 -0.2832
  409loPI   C2A 6536   3.870   3.872  10.335  0.0032  0.1636 -0.2533
  409loPI   C3A 6537   3.795   3.756   9.908  0.3795  0.0796 -0.0473
  409loPI   C4A 6538   3.763   3.743   9.528 -0.0066  0.2418 -0.0458
  409loPI   C5A 6539   3.721   3.842   9.044  0.1787  0.0821 -0.0444
  409loPI   C6A 6540   3.567   3.860   8.632 -0.1729 -0.0940  0.0053
  409loPI   C1B 6541   3.553   4.431  10.425 -0.1822 -0.1380  0.0553
  409loPI   C2B 6542   3.545   4.140  10.095  0.1127 -0.2202 -0.1470
  409loPI   C3B 6543   3.400   4.051   9.691  0.1090  0.1230  0.1234
  409loPI   C4B 6544   3.264   4.250   9.336 -0.0350  0.1929  0.1799
  410loPI    C1 6545   3.479   8.054  11.624  0.2263  0.0741  0.0339
  410loPI    C2 6546   3.577   8.287  11.934 -0.1220  0.0783  0.1450
  410loPI    C3 6547   3.317   7.987  11.983  0.0116 -0.0790 -0.0895
  410loPI   PO4 6548   3.703   8.219  11.426  0.1746  0.1347  0.2046
  410loPI   GL1 6549   3.913   8.384  11.008 -0.0266  0.1399  0.0081
  410loPI   GL2 6550   4.120   8.331  10.922 -0.2568  0.4249  0.1364
  410loPI   C1A 6551   3.961   8.739  10.663  0.0078 -0.2186 -0.0137
  410loPI   C2A 6552   3.904   8.750  10.285 -0.2740 -0.1804  0.0321
  410loPI   C3A 6553   3.945   8.774   9.749  0.0165  0.2144  0.0893
  410loPI   C4A 6554   3.982   8.740   9.370  0.0814 -0.2208  0.2139
  410loPI   C5A 6555   4.043   8.602   8.903  0.0525  0.4466  0.1931
  410loPI   C6A 6556   4.435   8.367   8.689 -0.0052  0.0381 -0.0298
  410loPI   C1B 6557   4.231   8.373  10.514  0.2591 -0.1076  0.0365
  410loPI   C2B 6558   4.353   8.274  10.128 -0.0956  0.0041  0.2363
  410loPI   C3B 6559   4.193   8.324   9.668  0.3009  0.3468  0.0902
  410loPI   C4B 6560   4.342   8.390   9.239  0.0579 -0.0578 -0.4058
  411loPI    C1 6561   4.037   5.911  11.451 -0.1844 -0.0761  0.1317
  411loPI    C2 6562   4.106   6.263  11.628 -0.1152 -0.0572  0.0676
  411loPI    C3 6563   4.148   5.924  11.835 -0.0198 -0.0359  0.0839
  411loPI   PO4 6564   3.850   5.981  11.245 -0.1149  0.1132  0.3808
  411loPI   GL1 6565   3.884   6.136  10.852  0.2493 -0.1442 -0.0045
  411loPI   GL2 6566   4.036   5.864  10.807  0.2787 -0.1503  0.1504
  411loPI   C1A 6567   4.253   6.280  10.631 -0.3273 -0.1386  0.2096
  411loPI   C2A 6568   4.228   6.210  10.226  0.3169 -0.0348  0.0978
  411loPI   C3A 6569   4.271   6.170   9.797 -0.1357  0.0475 -0.1901
  411loPI   C4A 6570   4.102   6.011   9.422 -0.0725 -0.2170 -0.3157
  411loPI   C5A 6571   3.955   6.066   8.948 -0.0495 -0.0985  0.1438
  411loPI   C6A 6572   4.037   6.271   8.536  0.3490  0.4596 -0.1148
  411loPI   C1B 6573   4.134   5.735  10.403  0.1382  0.1146 -0.0580
  411loPI   C2B 6574   3.955   5.675   9.938  0.3507 -0.1703  0.3984
  411loPI   C3B 6575   3.652   5.514   9.569 -0.1284 -0.2033  0.1989
  411loPI   C4B 6576   3.505   5.297   9.231 -0.1544  0.0896  0.1241
  412loPI    C1 6577   1.374  10.348  11.637 -0.0094 -0.1516  0.0009
  412loPI    C2 6578   1.629  10.537  11.880  0.0074 -0.0766 -0.0742
  412loPI    C3 6579   1.448  10.202  12.002 -0.0856  0.0322  0.0913
  412loPI   PO4 6580   1.440  10.356  11.366  0.0151  0.1869  0.0599
  412loPI   GL1 6581   1.216  10.527  11.049 -0.1851 -0.0399 -0.0815
  412loPI   GL2 6582   1.495  10.809  11.068 -0.0771  0.0990  0.2354
  412loPI   C1A 6583   1.036  10.364  10.602  0.0423  0.0074 -0.3127
  412loPI   C2A 6584   0.945  10.323  10.177  0.2274  0.1968 -0.3960
  412loPI   C3A 6585   1.065  10.295   9.806  0.3274 -0.2004 -0.2279
  412loPI   C4A 6586   1.098  10.281   9.424 -0.1063 -0.0282 -0.0593
  412loPI   C5A 6587   0.951  10.359   9.001  0.0199  0.0096 -0.0555
  412loPI   C6A 6588   1.056  10.357   8.503 -0.1250  0.2710 -0.2354
  412loPI   C1B 6589   1.570  10.879  10.546  0.0621  0.0296 -0.1947
  412loPI   C2B 6590   1.660  11.025  10.091  0.0281 -0.0217 -0.0960
  412loPI   C3B 6591   1.692  11.017   9.620 -0.1037  0.2852  0.1406
  412loPI   C4B 6592   1.701  10.996   9.173 -0.0608  0.1821  0.2669
  413loPI    C1 6593   7.558  16.954  11.561 -0.2776  0.0334 -0.0689
  413loPI    C2 6594   7.206  16.925  11.749 -0.2000  0.2601  0.1164
  413loPI    C3 6595   7.541  16.984  11.960 -0.0339 -0.0599 -0.0495
  413loPI   PO4 6596   7.433  16.982  11.300 -0.0654  0.0287  0.0367
  413loPI   GL1 6597   7.459  16.883  10.963  0.1572  0.0795  0.0939
  413loPI   GL2 6598   7.687  16.646  10.839 -0.2014 -0.0431 -0.3151
  413loPI   C1A 6599   7.323  16.894  10.636  0.2180 -0.1310  0.1111
  413loPI   C2A 6600   7.325  16.950  10.263  0.0206  0.4348 -0.1023
  413loPI   C3A 6601   7.323  16.888   9.890 -0.2348 -0.1885  0.0929
  413loPI   C4A 6602   7.392  16.913   9.525  0.1606  0.1317 -0.1411
  413loPI   C5A 6603   7.415  16.781   9.048 -0.2933  0.1971 -0.0361
  413loPI   C6A 6604   7.471  16.374   8.611  0.0082  0.1451 -0.1151
  413loPI   C1B 6605   7.701  16.580  10.477 -0.2490 -0.0438  0.4855
  413loPI   C2B 6606   7.659  16.547  10.012 -0.1556  0.2747 -0.0886
  413loPI   C3B 6607   7.744  16.503   9.640 -0.2800  0.1260  0.1730
  413loPI   C4B 6608   7.763  16.343   9.152  0.3065  0.0021  0.2898
  414loPI    C1 6609  15.687   9.447  11.599  0.0076  0.0117  0.2500
  414loPI    C2 6610  15.626   9.740  11.333  0.1461 -0.2638 -0.0941
  414loPI    C3 6611  15.328   9.620  11.572 -0.0991 -0.2811 -0.4030
  414loPI   PO4 6612  15.733   9.206  11.455 -0.0089 -0.0390 -0.0048
  414loPI   GL1 6613  15.652   9.177  11.102 -0.3927 -0.3199 -0.1783
  414loPI   GL2 6614  15.455   9.401  11.036  0.2339  0.0747  0.0348
  414loPI   C1A 6615  15.745   8.963  10.678  0.3636 -0.1204  0.2678
  414loPI   C2A 6616  15.736   8.950  10.269 -0.1623 -0.1505  0.0124
  414loPI   C3A 6617  15.732   8.954   9.878  0.2415 -0.0072  0.3064
  414loPI   C4A 6618  15.569   8.979   9.540  0.1426 -0.4725  0.2398
  414loPI   C5A 6619  15.537   9.065   9.093 -0.0662 -0.0762 -0.4271
  414loPI   C6A 6620  15.760   9.160   8.717 -0.1079  0.2719  0.2522
  414loPI   C1B 6621  15.719   9.466  10.609 -0.0181 -0.0349  0.3503
  414loPI   C2B 6622  15.736   9.469  10.151  0.0450 -0.0321 -0.1264
  414loPI   C3B 6623  15.740   9.448   9.749 -0.0939  0.0904 -0.1509
  414loPI   C4B 6624  15.699   9.492   9.319  0.0937  0.0820  0.0216
  415loPI    C1 6625   8.097  14.810  11.498  0.0142  0.3570  0.1361
  415loPI    C2 6626   8.094  14.612  11.845 -0.0030  0.2118  0.0538
  415loPI    C3 6627   7.795  14.862  11.754  0.0670  0.3511  0.2000
  415loPI   PO4 6628   8.087  14.713  11.352 -0.1827  0.0918 -0.1278
  415loPI   GL1 6629   8.051  14.495  11.020 -0.1572  0.1745 -0.2320
  415loPI   GL2 6630   8.277  14.620  10.805 -0.1413 -0.0042 -0.0639
  415loPI   C1A 6631   7.826  14.618  10.598  0.1689 -0.0550  0.1058
  415loPI   C2A 6632   7.693  14.567  10.230 -0.0275 -0.0905 -0.1489
  415loPI   C3A 6633   7.651  14.602   9.833  0.0196  0.0365 -0.0347
  415loPI   C4A 6634   7.639  14.583   9.413  0.0142 -0.0863  0.3212
  415loPI   C5A 6635   7.618  14.600   8.996 -0.1768 -0.2045 -0.0189
  415loPI   C6A 6636   7.490  14.403   8.714 -0.3092 -0.0829 -0.3611
  415loPI   C1B 6637   8.272  14.771  10.428  0.1628  0.2805 -0.2354
  415loPI   C2B 6638   8.168  14.836   9.932 -0.0561  0.2988 -0.2514
  415loPI   C3B 6639   8.233  14.732   9.485 -0.0724  0.1820 -0.0137
  415loPI   C4B 6640   8.121  14.769   9.083 -0.0781  0.2317  0.1249
  416loPI    C1 6641  12.769  12.175  11.745 -0.0180 -0.2524 -0.0705
  416loPI    C2 6642  13.063  12.434  11.663 -0.0880 -0.1780 -0.0877
  416loPI    C3 6643  12.957  12.365  12.042 -0.1628 -0.0767 -0.0896
  416loPI   PO4 6644  12.649  12.202  11.501  0.0514  0.4389 -0.1250
  416loPI   GL1 6645  12.599  12.088  11.014  0.0049  0.2405 -0.3911
  416loPI   GL2 6646  12.756  11.866  10.803  0.2807 -0.0664  0.1674
  416loPI   C1A 6647  12.667  12.391  10.628 -0.0094  0.0896 -0.0317
  416loPI   C2A 6648  12.774  12.351  10.249  0.0920 -0.1587  0.2124
  416loPI   C3A 6649  12.684  12.328   9.795  0.0995 -0.0096  0.1191
  416loPI   C4A 6650  12.754  12.300   9.312  0.1883 -0.1301  0.1440
  416loPI   C5A 6651  12.677  12.544   8.888  0.0132 -0.1264  0.1135
  416loPI   C6A 6652  12.477  12.380   8.462 -0.2660 -0.2473 -0.2697
  416loPI   C1B 6653  12.588  11.802  10.345  0.1709 -0.2513  0.2345
  416loPI   C2B 6654  12.498  11.799   9.830 -0.2193 -0.1265 -0.2515
  416loPI   C3B 6655  12.618  11.831   9.365  0.0079  0.0367  0.0744
  416loPI   C4B 6656  12.609  12.038   8.910  0.2941  0.5342 -0.0808
  417loPI    C1 6657   5.738  15.542  11.813  0.1203 -0.0291  0.1541
  417loPI    C2 6658   5.473  15.282  11.960 -0.0052 -0.0981 -0.1847
  417loPI    C3 6659   5.376  15.669  11.927  0.2175  0.0200  0.4152
  417loPI   PO4 6660   5.794  15.474  11.510  0.0833 -0.0795 -0.2634
  417loPI   GL1 6661   5.602  15.481  11.086 -0.2708  0.4494 -0.2306
  417loPI   GL2 6662   5.394  15.208  11.102 -0.1697  0.0471 -0.0395
  417loPI   C1A 6663   5.519  15.377  10.590  0.0919  0.2674 -0.2313
  417loPI   C2A 6664   5.546  15.454  10.207 -0.4553 -0.4146  0.0938
  417loPI   C3A 6665   5.635  15.356   9.839 -0.0361 -0.2720  0.0869
  417loPI   C4A 6666   5.569  15.465   9.396  0.2650  0.1496  0.0263
  417loPI   C5A 6667   5.726  15.479   8.939 -0.2339  0.3192 -0.0745
  417loPI   C6A 6668   6.043  15.299   8.611 -0.1997  0.1108 -0.1462
  417loPI   C1B 6669   5.066  15.171  10.729 -0.1403  0.0896 -0.1554
  417loPI   C2B 6670   5.098  15.234  10.404  0.0391  0.0953  0.1757
  417loPI   C3B 6671   5.138  15.266   9.981 -0.1403  0.1096  0.1500
  417loPI   C4B 6672   5.112  15.304   9.647 -0.0679  0.2266 -0.0368
  418loPI    C1 6673   7.713   6.202  11.368 -0.0073 -0.0856  0.0263
  418loPI    C2 6674   7.842   6.244  11.745  0.1624  0.0304 -0.0432
  418loPI    C3 6675   7.459   6.319  11.654  0.0388 -0.3212  0.1661
  418loPI   PO4 6676   7.891   6.393  11.191 -0.0002 -0.0072 -0.0094
  418loPI   GL1 6677   8.160   6.395  10.876 -0.0232 -0.0654 -0.0333
  418loPI   GL2 6678   8.386   6.224  10.936 -0.0875  0.2450 -0.1588
  418loPI   C1A 6679   8.062   6.572  10.538  0.0479 -0.1177 -0.1284
  418loPI   C2A 6680   8.101   6.610  10.030  0.0165 -0.1880  0.0347
  418loPI   C3A 6681   8.044   6.674   9.594  0.5633  0.0749  0.4844
  418loPI   C4A 6682   8.043   6.652   9.168 -0.0867  0.1827 -0.3468
  418loPI   C5A 6683   8.030   6.997   8.838  0.0632  0.1619  0.1272
  418loPI   C6A 6684   8.285   7.286   8.659 -0.0838 -0.1620  0.0403
  418loPI   C1B 6685   8.451   6.222  10.526 -0.0011  0.0392  0.1544
  418loPI   C2B 6686   8.469   6.308  10.128 -0.6665 -0.1878 -0.2061
  418loPI   C3B 6687   8.390   6.291   9.673  0.0556  0.0095  0.0869
  418loPI   C4B 6688   8.445   6.235   9.215 -0.0050 -0.3376  0.0859
  419loPI    C1 6689  16.573  15.392  11.653  0.1093 -0.0307  0.1036
  419loPI    C2 6690  16.463  15.641  11.947 -0.0611  0.0599 -0.0351
  419loPI    C3 6691  16.585  15.270  12.034  0.1602  0.1787  0.1700
  419loPI   PO4 6692  16.395  15.501  11.442  0.0330  0.1090 -0.2311
  419loPI   GL1 6693  16.536  15.750  11.066 -0.3171  0.2140  0.0868
  419loPI   GL2 6694  16.416  15.491  10.949  0.0362  0.0567  0.0440
  419loPI   C1A 6695  16.798  15.813  10.700  0.1416 -0.2064  0.0575
  419loPI   C2A 6696  16.727  15.824  10.266 -0.0739  0.0826 -0.0492
  419loPI   C3A 6697  16.748  15.817   9.836 -0.1869 -0.1097 -0.0724
  419loPI   C4A 6698  16.800  15.871   9.452  0.0789  0.0005 -0.2139
  419loPI   C5A 6699  16.853  15.790   8.933  0.3268  0.2148  0.2423
  419loPI   C6A 6700  16.852  15.908   8.535  0.1135 -0.0738 -0.0571
  419loPI   C1B 6701  16.567  15.384  10.549  0.3503  0.2446 -0.1184
  419loPI   C2B 6702  16.653  15.367  10.176  0.1556  0.0296  0.3142
  419loPI   C3B 6703  16.689  15.350   9.607  0.3596 -0.1086 -0.1596
  419loPI   C4B 6704  16.666  15.404   9.228  0.1161 -0.0900 -0.1959
  420loPI    C1 6705   8.126   2.814  11.755 -0.0987  0.0291 -0.1528
  420loPI    C2 6706   8.245   2.486  11.950  0.0358  0.1085 -0.1002
  420loPI    C3 6707   8.079   2.789  12.151 -0.0331  0.0978 -0.1407
  420loPI   PO4 6708   8.021   2.744  11.549 -0.0364  0.1706 -0.1494
  420loPI   GL1 6709   7.977   2.596  11.207 -0.3168 -0.2642 -0.2335
  420loPI   GL2 6710   8.117   2.916  11.049 -0.0289  0.1768  0.3660
  420loPI   C1A 6711   7.995   2.356  10.816 -0.2515  0.0081  0.0409
  420loPI   C2A 6712   7.983   2.161  10.388 -0.1916 -0.0348  0.2244
  420loPI   C3A 6713   8.005   2.280   9.992  0.0780  0.0027 -0.0072
  420loPI   C4A 6714   8.133   2.459   9.656  0.1927 -0.1272  0.1740
  420loPI   C5A 6715   7.994   2.375   9.236  0.2140  0.1313 -0.1008
  420loPI   C6A 6716   7.915   2.274   8.873  0.1460  0.0824  0.1461
  420loPI   C1B 6717   7.892   2.809  10.710 -0.2012  0.2213 -0.1646
  420loPI   C2B 6718   7.794   2.704  10.238 -0.2567 -0.4792 -0.2690
  420loPI   C3B 6719   7.658   2.669   9.915 -0.2402  0.3811  0.0166
  420loPI   C4B 6720   7.678   2.670   9.532 -0.0421  0.0496 -0.2441
  421loPI    C1 6721  15.508  14.000  11.614 -0.0019 -0.1089  0.1493
  421loPI    C2 6722  15.698  14.233  11.878 -0.0755 -0.0933  0.1887
  421loPI    C3 6723  15.366  14.038  11.987 -0.2871  0.1647  0.0177
  421loPI   PO4 6724  15.718  13.857  11.457  0.1647 -0.0225  0.1061
  421loPI   GL1 6725  15.699  13.876  11.032  0.2014  0.2519  0.1321
  421loPI   GL2 6726  15.687  14.223  10.972 -0.5296  0.0336 -0.2348
  421loPI   C1A 6727  15.808  13.718  10.672 -0.4471  0.0164  0.3204
  421loPI   C2A 6728  15.775  13.667  10.272  0.1461 -0.1549 -0.0069
  421loPI   C3A 6729  15.785  13.710   9.910 -0.0056  0.0825  0.0106
  421loPI   C4A 6730  15.754  13.672   9.521  0.0071  0.0974 -0.2523
  421loPI   C5A 6731  15.815  13.724   9.040 -0.2604  0.0180 -0.0621
  421loPI   C6A 6732  15.990  13.686   8.590  0.1790 -0.1407 -0.0767
  421loPI   C1B 6733  15.710  14.213  10.592  0.4791 -0.1231 -0.3053
  421loPI   C2B 6734  15.880  14.158  10.184  0.1205  0.1460  0.4180
  421loPI   C3B 6735  15.859  14.203   9.745 -0.0042 -0.2460 -0.1647
  421loPI   C4B 6736  15.881  14.176   9.297  0.1743 -0.1720  0.2434
  422loPI    C1 6737  17.105   3.226  11.187  0.2033  0.0142  0.2188
  422loPI    C2 6738  17.013   3.323  11.564 -0.1168 -0.1025  0.1738
  422loPI    C3 6739  17.143   2.954  11.478  0.4666  0.0758  0.2449
  422loPI   PO4 6740  16.936   3.221  11.024  0.0437 -0.0824  0.0219
  422loPI   GL1 6741  16.853   3.107  10.658 -0.2558 -0.3553  0.3109
  422loPI   GL2 6742  16.620   2.958  10.467  0.4440 -0.1302 -0.0977
  422loPI   C1A 6743  17.025   3.022  10.224 -0.0139 -0.0351 -0.2319
  422loPI   C2A 6744  17.029   3.013   9.791 -0.1585 -0.1386  0.0224
  422loPI   C3A 6745  17.074   3.113   9.326 -0.2889 -0.0566 -0.0263
  422loPI   C4A 6746  17.074   3.085   8.927  0.1185  0.0840  0.0748
  422loPI   C5A 6747  16.858   3.205   8.432  0.0224 -0.1735  0.1936
  422loPI   C6A 6748  16.876   3.307   8.037 -0.0475  0.2202  0.1685
  422loPI   C1B 6749  16.441   2.867  10.035 -0.1024  0.2309 -0.0190
  422loPI   C2B 6750  16.547   2.826   9.634 -0.0606 -0.0663 -0.0827
  422loPI   C3B 6751  16.651   2.914   9.191  0.0235  0.0683 -0.1400
  422loPI   C4B 6752  16.479   3.042   8.746 -0.1314 -0.3272 -0.0665
  423loPI    C1 6753   4.142   0.947  11.764 -0.1221  0.0267  0.1529
  423loPI    C2 6754   3.957   0.754  12.062 -0.2489  0.0285  0.0756
  423loPI    C3 6755   4.198   1.062  12.143 -0.1678 -0.0637  0.1875
  423loPI   PO4 6756   3.916   1.008  11.492 -0.1993  0.1540  0.0102
  423loPI   GL1 6757   3.834   0.928  11.046  0.0903  0.0213 -0.3322
  423loPI   GL2 6758   4.035   0.754  11.023 -0.3930 -0.1349 -0.1052
  423loPI   C1A 6759   4.032   1.144  10.747  0.0474 -0.1473  0.1463
  423loPI   C2A 6760   4.048   1.161  10.325  0.3589 -0.1387 -0.1804
  423loPI   C3A 6761   4.016   1.079   9.902 -0.0431 -0.1026  0.1843
  423loPI   C4A 6762   4.188   1.113   9.487  0.0137  0.0815  0.0498
  423loPI   C5A 6763   4.105   1.115   9.081 -0.4357  0.3031  0.0770
  423loPI   C6A 6764   3.987   0.766   8.901 -0.1270 -0.3869 -0.0974
  423loPI   C1B 6765   3.906   0.674  10.576  0.4125  0.1881  0.1205
  423loPI   C2B 6766   3.865   0.576  10.097 -0.1561  0.1849 -0.0905
  423loPI   C3B 6767   4.006   0.537   9.764  0.0516  0.0241 -0.1033
  423loPI   C4B 6768   4.147   0.647   9.439  0.0467 -0.2753 -0.2747
  424loPI    C1 6769  15.825   1.466  11.349 -0.2515  0.1785  0.0027
  424loPI    C2 6770  15.550   1.191  11.441 -0.1761  0.1259  0.0728
  424loPI    C3 6771  15.764   1.365  11.731  0.0136  0.0106  0.0035
  424loPI   PO4 6772  15.812   1.507  11.100  0.0351  0.2567  0.1745
  424loPI   GL1 6773  16.088   1.622  10.824  0.1310 -0.0044 -0.1105
  424loPI   GL2 6774  16.208   1.996  10.615 -0.3213 -0.0375 -0.2996
  424loPI   C1A 6775  16.045   1.527  10.359 -0.3793 -0.0044  0.1280
  424loPI   C2A 6776  16.116   1.442   9.914 -0.1743  0.1809 -0.0782
  424loPI   C3A 6777  16.272   1.418   9.513 -0.0385 -0.0076 -0.2366
  424loPI   C4A 6778  16.213   1.348   9.029  0.0549  0.2057  0.0704
  424loPI   C5A 6779  16.430   1.453   8.520  0.0820 -0.2276 -0.1733
  424loPI   C6A 6780  16.412   1.238   8.108  0.0990 -0.1191 -0.0450
  424loPI   C1B 6781  16.244   1.938  10.177 -0.1035  0.1874  0.1993
  424loPI   C2B 6782  16.322   1.888   9.700  0.1547  0.3162 -0.0766
  424loPI   C3B 6783  16.360   1.852   9.276 -0.0600  0.0173 -0.3589
  424loPI   C4B 6784  16.268   1.811   8.852 -0.1240  0.0302  0.1241
  425loPI    C1 6785   2.558  10.639  11.630 -0.0470 -0.2153  0.1849
  425loPI    C2 6786   2.255  10.623  11.369 -0.0434  0.1514  0.1527
  425loPI    C3 6787   2.180  10.619  11.762 -0.0695 -0.0495  0.1471
  425loPI   PO4 6788   2.727  10.716  11.445 -0.0436 -0.3125 -0.0557
  425loPI   GL1 6789   2.667  10.898  11.031 -0.1747  0.1717  0.1557
  425loPI   GL2 6790   2.405  11.051  11.083 -0.1053  0.1152 -0.1743
  425loPI   C1A 6791   2.457  10.699  10.677 -0.1619 -0.1344  0.1165
  425loPI   C2A 6792   2.527  10.824  10.204 -0.1692 -0.1410  0.2111
  425loPI   C3A 6793   2.546  10.792   9.772  0.2306  0.0413 -0.4623
  425loPI   C4A 6794   2.589  10.763   9.362  0.0663 -0.1633  0.0600
  425loPI   C5A 6795   3.024  10.660   9.088 -0.2630  0.3233 -0.2302
  425loPI   C6A 6796   3.294  10.896   8.777  0.0052 -0.2381  0.0069
  425loPI   C1B 6797   2.593  11.201  10.668  0.0210 -0.0443 -0.1568
  425loPI   C2B 6798   2.692  11.288  10.183 -0.0509 -0.0897 -0.1990
  425loPI   C3B 6799   2.688  11.291   9.767 -0.0897 -0.2284 -0.0786
  425loPI   C4B 6800   2.641  11.340   9.283 -0.1744  0.1004 -0.1690
  426loPI    C1 6801  17.078  13.471  11.741 -0.2777  0.1609  0.1260
  426loPI    C2 6802  17.412  13.441  11.958 -0.1376 -0.0357 -0.1127
  426loPI    C3 6803  17.261  13.801  11.873  0.0196  0.0549 -0.0129
  426loPI   PO4 6804  17.051  13.305  11.536  0.1207  0.1512  0.2060
  426loPI   GL1 6805  17.153  13.220  11.169 -0.1732  0.1757 -0.2169
  426loPI   GL2 6806  17.522  13.248  11.029 -0.2267  0.0715 -0.4072
  426loPI   C1A 6807  17.060  13.151  10.786  0.2347 -0.1348 -0.2050
  426loPI   C2A 6808  17.035  13.217  10.342  0.1804  0.4961  0.1434
  426loPI   C3A 6809  17.007  13.241   9.889  0.3511  0.1536 -0.2916
  426loPI   C4A 6810  17.030  13.147   9.493  0.1417  0.2331 -0.3533
  426loPI   C5A 6811  17.075  13.197   9.010 -0.1537  0.2716 -0.0914
  426loPI   C6A 6812  17.248  13.398   8.641 -0.1377 -0.0053  0.2055
  426loPI   C1B 6813  17.496  13.333  10.509 -0.0308 -0.0503 -0.3196
  426loPI   C2B 6814  17.434  13.339  10.114  0.0966 -0.0525  0.2121
  426loPI   C3B 6815  17.511  13.266   9.565 -0.1149 -0.2473 -0.2063
  426loPI   C4B 6816  17.635  13.249   9.090 -0.0132  0.0983  0.0110
  427loPI    C1 6817   0.867   3.515  11.379 -0.0319  0.1125  0.0640
  427loPI    C2 6818   0.990   3.426  11.749  0.0860 -0.2278 -0.0528
  427loPI    C3 6819   0.610   3.534  11.685  0.1233  0.0682  0.1986
  427loPI   PO4 6820   1.077   3.624  11.245 -0.0123 -0.3331  0.0107
  427loPI   GL1 6821   1.389   3.445  10.970  0.2444  0.0040  0.1424
  427loPI   GL2 6822   1.564   3.246  10.965 -0.0516  0.3153 -0.5849
  427loPI   C1A 6823   1.402   3.537  10.429 -0.1119 -0.3610  0.1124
  427loPI   C2A 6824   1.294   3.585  10.101 -0.0432  0.1828 -0.1933
  427loPI   C3A 6825   1.321   3.686   9.687 -0.0939 -0.0529  0.0089
  427loPI   C4A 6826   1.301   3.612   9.281  0.1460  0.1039 -0.0329
  427loPI   C5A 6827   1.338   3.647   8.819  0.0080  0.1503  0.0298
  427loPI   C6A 6828   1.592   3.695   8.527 -0.1578 -0.3650 -0.1629
  427loPI   C1B 6829   1.614   3.148  10.555 -0.1021  0.2919 -0.0533
  427loPI   C2B 6830   1.718   3.203  10.175  0.0979 -0.1229 -0.1323
  427loPI   C3B 6831   1.841   3.254   9.769 -0.0822 -0.2729  0.0153
  427loPI   C4B 6832   1.716   3.283   9.349 -0.0936  0.2025  0.2283
  428loPI    C1 6833   5.437   6.062  11.789 -0.2855  0.2637  0.0290
  428loPI    C2 6834   5.112   5.900  11.957 -0.0796 -0.1426  0.0484
  428loPI    C3 6835   5.408   6.039  12.188 -0.0707 -0.1269  0.0275
  428loPI   PO4 6836   5.362   5.852  11.525 -0.0373  0.1781 -0.2952
  428loPI   GL1 6837   5.574   5.964  11.174  0.3314 -0.0509 -0.0008
  428loPI   GL2 6838   5.812   5.582  10.964 -0.2571  0.3956  0.3349
  428loPI   C1A 6839   5.551   5.946  10.712 -0.0406  0.0781 -0.2547
  428loPI   C2A 6840   5.555   5.924  10.306  0.0217  0.2339 -0.1275
  428loPI   C3A 6841   5.479   5.923   9.904 -0.2325 -0.0264  0.1063
  428loPI   C4A 6842   5.604   5.883   9.569 -0.1262  0.1806  0.2651
  428loPI   C5A 6843   5.594   5.867   9.128 -0.3019  0.1636 -0.1800
  428loPI   C6A 6844   5.317   5.706   8.847 -0.2142  0.3475  0.0174
  428loPI   C1B 6845   5.921   5.502  10.505 -0.0615  0.4204 -0.0570
  428loPI   C2B 6846   5.897   5.619  10.035 -0.0817 -0.2718 -0.1297
  428loPI   C3B 6847   5.932   5.547   9.566  0.0934 -0.0448 -0.1773
  428loPI   C4B 6848   5.889   5.431   9.119  0.2109  0.1499 -0.0702
  429loPI    C1 6849  14.768  15.202  11.369  0.1020  0.0362 -0.0399
  429loPI    C2 6850  14.985  15.117  11.694  0.0085 -0.1294 -0.0196
  429loPI    C3 6851  14.625  15.287  11.733  0.0651 -0.0023 -0.0453
  429loPI   PO4 6852  14.945  15.301  11.193 -0.1796  0.0154 -0.1513
  429loPI   GL1 6853  14.957  15.337  10.747 -0.1144  0.0021 -0.1962
  429loPI   GL2 6854  15.210  15.455  10.571  0.3447 -0.3047  0.2131
  429loPI   C1A 6855  14.729  15.252  10.385 -0.0223 -0.1513 -0.0744
  429loPI   C2A 6856  14.793  15.297   9.883 -0.0802  0.0698 -0.1220
  429loPI   C3A 6857  14.757  15.270   9.421  0.0089  0.1939  0.1338
  429loPI   C4A 6858  14.695  15.556   9.045  0.0820  0.1001  0.0120
  429loPI   C5A 6859  14.841  15.718   8.661  0.1741  0.0121  0.0501
  429loPI   C6A 6860  14.898  16.187   8.390  0.0758  0.4219 -0.1870
  429loPI   C1B 6861  15.136  15.478  10.223  0.0526  0.1299  0.1149
  429loPI   C2B 6862  15.226  15.408   9.706  0.0715  0.0339 -0.1600
  429loPI   C3B 6863  15.327  15.428   9.311  0.0724  0.1003 -0.0103
  429loPI   C4B 6864  15.216  15.454   8.860 -0.2254 -0.0568 -0.2129
  430loPI    C1 6865   8.760  15.302  11.616 -0.0745 -0.2721 -0.0439
  430loPI    C2 6866   8.939  15.611  11.797  0.0304 -0.1704 -0.3166
  430loPI    C3 6867   8.676  15.386  11.998  0.1050 -0.0278 -0.0559
  430loPI   PO4 6868   8.626  15.391  11.442  0.0518  0.2108  0.1166
  430loPI   GL1 6869   8.478  15.544  11.096 -0.0131 -0.2176 -0.3231
  430loPI   GL2 6870   8.416  15.830  10.814 -0.0883 -0.0706 -0.4361
  430loPI   C1A 6871   8.723  15.419  10.744 -0.1428 -0.1864 -0.1359
  430loPI   C2A 6872   8.831  15.396  10.338  0.1158 -0.5247 -0.1856
  430loPI   C3A 6873   8.847  15.495   9.985 -0.2815  0.2211 -0.1664
  430loPI   C4A 6874   8.787  15.403   9.559  0.3952  0.0717 -0.0800
  430loPI   C5A 6875   8.742  15.320   9.154 -0.1213  0.2315 -0.3577
  430loPI   C6A 6876   8.604  15.338   8.720 -0.1254  0.2083 -0.0878
  430loPI   C1B 6877   8.496  15.772  10.344 -0.0124  0.2625 -0.1417
  430loPI   C2B 6878   8.343  15.789   9.904 -0.2688 -0.5159  0.0561
  430loPI   C3B 6879   8.448  15.831   9.543 -0.0793 -0.1844 -0.0791
  430loPI   C4B 6880   8.450  15.702   9.128 -0.1015  0.1924  0.0738
  431loPI    C1 6881  15.796   6.596  11.365 -0.2627  0.0483 -0.0666
  431loPI    C2 6882  15.747   6.206  11.289  0.0383 -0.0280  0.1123
  431loPI    C3 6883  15.569   6.372  11.607 -0.0020 -0.0432  0.0978
  431loPI   PO4 6884  15.751   6.689  11.132 -0.2859 -0.0657 -0.2184
  431loPI   GL1 6885  15.750   6.840  10.775 -0.0019  0.1922 -0.0295
  431loPI   GL2 6886  15.451   6.675  10.636 -0.2732 -0.0772  0.1795
  431loPI   C1A 6887  15.991   6.628  10.542 -0.1697  0.2518  0.0448
  431loPI   C2A 6888  15.874   6.603  10.109 -0.0794  0.1247  0.2280
  431loPI   C3A 6889  15.856   6.469   9.668 -0.1537 -0.0953 -0.2221
  431loPI   C4A 6890  15.489   6.361   9.390 -0.0072 -0.3758 -0.3462
  431loPI   C5A 6891  15.095   6.550   9.238 -0.2944 -0.1980 -0.1158
  431loPI   C6A 6892  15.092   6.892   8.854 -0.2469 -0.0896 -0.1502
  431loPI   C1B 6893  15.419   6.399  10.290 -0.0403  0.0808  0.3203
  431loPI   C2B 6894  15.336   6.388   9.879 -0.0398 -0.0618 -0.0542
  431loPI   C3B 6895  15.046   6.104   9.586  0.3069 -0.1642 -0.2474
  431loPI   C4B 6896  14.871   5.757   9.382 -0.2343  0.2634  0.1114
  432loPI    C1 6897   6.524  14.184  11.542 -0.0544  0.2018  0.1488
  432loPI    C2 6898   6.546  14.353  11.904  0.1111  0.0209  0.2245
  432loPI    C3 6899   6.413  13.977  11.866 -0.0231  0.0819  0.0836
  432loPI   PO4 6900   6.471  14.355  11.324  0.0608 -0.0275  0.2296
  432loPI   GL1 6901   6.599  14.468  11.022 -0.4773  0.0450  0.1319
  432loPI   GL2 6902   6.828  14.438  10.772 -0.0195  0.0026  0.0658
  432loPI   C1A 6903   6.432  14.696  10.711  0.0193 -0.2214  0.0515
  432loPI   C2A 6904   6.426  14.737  10.199 -0.0365  0.3852 -0.1707
  432loPI   C3A 6905   6.408  14.701   9.763 -0.1739 -0.0510 -0.4763
  432loPI   C4A 6906   6.350  14.751   9.339  0.3202 -0.1116 -0.0531
  432loPI   C5A 6907   6.289  14.567   8.911 -0.1200  0.0716  0.1075
  432loPI   C6A 6908   6.421  14.372   8.566  0.2374 -0.1047  0.2489
  432loPI   C1B 6909   6.674  14.389  10.419  0.2882  0.0621  0.1753
  432loPI   C2B 6910   6.712  14.315  10.009 -0.0628 -0.0742 -0.0108
  432loPI   C3B 6911   6.701  14.332   9.585 -0.4132  0.0451  0.1686
  432loPI   C4B 6912   6.718  14.232   9.158 -0.0819  0.2138 -0.0355
  433loPI    C1 6913   2.757   7.050  11.053  0.2042 -0.1422  0.0312
  433loPI    C2 6914   2.546   7.026  10.714  0.3069  0.2210 -0.0625
  433loPI    C3 6915   2.429   6.821  11.036  0.1230 -0.0093 -0.2715
  433loPI   PO4 6916   3.038   6.987  10.989 -0.2380  0.2006  0.1623
  433loPI   GL1 6917   3.272   6.796  10.619 -0.1352  0.0362 -0.1696
  433loPI   GL2 6918   2.984   6.817  10.509  0.0709  0.0165 -0.1668
  433loPI   C1A 6919   3.108   6.306  10.494  0.5242 -0.0080 -0.2367
  433loPI   C2A 6920   3.180   6.217  10.087 -0.0668 -0.1719  0.0386
  433loPI   C3A 6921   3.370   5.946   9.729  0.0305  0.2333 -0.2879
  433loPI   C4A 6922   3.509   6.145   9.347 -0.0509 -0.0313  0.0843
  433loPI   C5A 6923   3.602   6.591   9.275  0.1729  0.0572 -0.0288
  433loPI   C6A 6924   3.832   6.876   9.185  0.0360  0.1312 -0.0557
  433loPI   C1B 6925   2.939   6.675  10.035 -0.3977 -0.1201 -0.2118
  433loPI   C2B 6926   2.829   6.837   9.686 -0.1849 -0.1340  0.1781
  433loPI   C3B 6927   2.904   7.119   9.254  0.0523 -0.0323 -0.0600
  433loPI   C4B 6928   3.346   7.353   9.011  0.1695  0.1350  0.2234
  434loPI    C1 6929   4.983  13.653  11.516 -0.1323  0.1315 -0.0970
  434loPI    C2 6930   4.637  13.460  11.455 -0.2088  0.2853 -0.1529
  434loPI    C3 6931   4.784  13.494  11.826 -0.1327  0.0151 -0.1564
  434loPI   PO4 6932   5.132  13.573  11.399 -0.0541  0.1952 -0.0452
  434loPI   GL1 6933   5.130  13.342  10.997 -0.2042  0.2351 -0.0791
  434loPI   GL2 6934   4.825  13.412  11.017  0.0961  0.4293 -0.1476
  434loPI   C1A 6935   5.119  13.398  10.538  0.1214  0.0992 -0.3898
  434loPI   C2A 6936   5.134  13.436  10.061  0.1939  0.1582 -0.2563
  434loPI   C3A 6937   5.048  13.434   9.648  0.2732 -0.0432 -0.0512
  434loPI   C4A 6938   5.088  13.320   9.255  0.3020  0.4169  0.1661
  434loPI   C5A 6939   4.805  13.133   8.911  0.2188  0.2766  0.0910
  434loPI   C6A 6940   4.762  13.157   8.473 -0.2813 -0.2045  0.0106
  434loPI   C1B 6941   4.658  13.291  10.604  0.0411 -0.1504 -0.0107
  434loPI   C2B 6942   4.542  13.200  10.168 -0.1247 -0.1026 -0.1726
  434loPI   C3B 6943   4.584  13.248   9.730  0.0330  0.0298 -0.2375
  434loPI   C4B 6944   4.551  13.279   9.299  0.0255  0.0414  0.0011
  435loPI    C1 6945   1.290   7.183  10.953 -0.0322 -0.1980 -0.1245
  435loPI    C2 6946   0.909   7.176  10.832 -0.0859  0.3296 -0.0074
  435loPI    C3 6947   1.004   7.055  11.201 -0.1297  0.1433 -0.0562
  435loPI   PO4 6948   1.344   7.472  10.854 -0.0518  0.1683 -0.1069
  435loPI   GL1 6949   1.415   7.543  10.489 -0.0484  0.1715 -0.1136
  435loPI   GL2 6950   1.030   7.508  10.444 -0.0008  0.1400  0.1199
  435loPI   C1A 6951   1.413   7.622  10.085  0.0574  0.5154 -0.1490
  435loPI   C2A 6952   1.350   7.821   9.677 -0.0890 -0.2162  0.1442
  435loPI   C3A 6953   1.519   7.584   9.395 -0.0546 -0.0338  0.0338
  435loPI   C4A 6954   1.625   7.249   9.100 -0.2554 -0.4224  0.0740
  435loPI   C5A 6955   1.651   6.920   9.005  0.2787 -0.0924  0.0948
  435loPI   C6A 6956   1.195   6.746   8.851 -0.1125  0.0704  0.0513
  435loPI   C1B 6957   0.698   7.456  10.148 -0.2591 -0.0074 -0.0107
  435loPI   C2B 6958   0.434   7.237   9.868 -0.0852 -0.0577  0.0154
  435loPI   C3B 6959   0.287   6.837   9.606 -0.2721 -0.0113 -0.0297
  435loPI   C4B 6960   0.283   6.634   9.267  0.1510  0.1086  0.2808
  436loPI    C1 6961  12.272  17.594  11.682  0.1307 -0.0756  0.0539
  436loPI    C2 6962  12.174  17.954  11.826  0.1875 -0.0097 -0.0710
  436loPI    C3 6963  12.037  17.623  12.005 -0.0061  0.0760 -0.0581
  436loPI   PO4 6964  12.229  17.521  11.429 -0.0421  0.0347 -0.0347
  436loPI   GL1 6965  12.138  17.447  11.045  0.0453  0.0536 -0.1615
  436loPI   GL2 6966  12.212  17.804  10.874  0.2850  0.0392 -0.3586
  436loPI   C1A 6967  12.021  17.348  10.642 -0.0102  0.0473 -0.0386
  436loPI   C2A 6968  12.023  17.369  10.219  0.0508 -0.0810  0.0569
  436loPI   C3A 6969  11.960  17.375   9.700 -0.0768 -0.0550 -0.3152
  436loPI   C4A 6970  11.951  17.287   9.201  0.0832 -0.0091  0.1365
  436loPI   C5A 6971  12.159  17.084   8.847 -0.2651  0.0363  0.2253
  436loPI   C6A 6972  12.458  17.181   8.539  0.1698 -0.0997 -0.0855
  436loPI   C1B 6973  12.115  17.830  10.487 -0.0682  0.1485 -0.0694
  436loPI   C2B 6974  12.181  17.888   9.940  0.0205  0.0926  0.1903
  436loPI   C3B 6975  12.141  17.833   9.500 -0.1248 -0.1331 -0.0189
  436loPI   C4B 6976  12.039  17.711   9.034 -0.1436 -0.0400 -0.0442
  437loPI    C1 6977   8.791  17.407  11.985 -0.0035 -0.0212 -0.0256
  437loPI    C2 6978   8.778  17.579  12.346 -0.2561  0.0332 -0.0583
  437loPI    C3 6979   8.660  17.200  12.301  0.0017 -0.0508 -0.0428
  437loPI   PO4 6980   8.798  17.451  11.680  0.1364 -0.3507  0.0467
  437loPI   GL1 6981   8.897  17.421  11.242 -0.1628  0.0590 -0.0606
  437loPI   GL2 6982   9.192  17.397  11.313 -0.3958  0.0023 -0.3399
  437loPI   C1A 6983   8.761  17.399  10.792  0.0388 -0.0601 -0.1115
  437loPI   C2A 6984   8.751  17.302  10.296  0.1593  0.0718  0.0721
  437loPI   C3A 6985   8.831  17.291   9.861  0.1130  0.1068 -0.1556
  437loPI   C4A 6986   8.900  17.287   9.462  0.1415 -0.1107  0.0879
  437loPI   C5A 6987   9.002  17.365   9.067 -0.0092 -0.2358 -0.0579
  437loPI   C6A 6988   9.199  17.464   8.708 -0.1269 -0.3028 -0.1086
  437loPI   C1B 6989   9.314  17.487  10.901 -0.1604  0.1109  0.0968
  437loPI   C2B 6990   9.243  17.526  10.488  0.0938 -0.1090 -0.0888
  437loPI   C3B 6991   9.315  17.519   9.943  0.1089 -0.2284  0.0975
  437loPI   C4B 6992   9.333  17.492   9.498  0.2059 -0.4308  0.2043
  438loPI    C1 6993  17.598   4.638  11.462  0.0496  0.0744  0.0108
  438loPI    C2 6994  17.895   4.801  11.674  0.1906 -0.0268 -0.1066
  438loPI    C3 6995  17.894   4.408  11.601  0.0777 -0.0121 -0.1877
  438loPI   PO4 6996  17.623   4.739  11.229 -0.0210 -0.0907  0.0885
  438loPI   GL1 6997  17.517   4.559  10.772  0.0927  0.1021 -0.0371
  438loPI   GL2 6998  17.907   4.768  10.682 -0.0498 -0.0044 -0.0615
  438loPI   C1A 6999  17.360   4.896  10.531  0.0844  0.2519  0.0289
  438loPI   C2A 7000  17.488   5.060  10.133  0.0802 -0.0165  0.1384
  438loPI   C3A 7001  17.468   5.129   9.748 -0.0402 -0.1597  0.2791
  438loPI   C4A 7002  17.308   5.148   9.326 -0.0505  0.0838 -0.1063
  438loPI   C5A 7003  17.351   5.148   8.835  0.2477 -0.2159  0.1253
  438loPI   C6A 7004  17.590   4.984   8.494 -0.0970 -0.1562  0.1183
  438loPI   C1B 7005  17.819   4.747  10.234 -0.2625 -0.1017 -0.3659
  438loPI   C2B 7006  17.807   4.792   9.724 -0.1367 -0.0240 -0.3193
  438loPI   C3B 7007  17.773   4.758   9.325 -0.1916  0.0620 -0.0232
  438loPI   C4B 7008  17.757   4.865   8.959  0.1432  0.0855 -0.2331
  439loPI    C1 7009  15.104  16.574  11.537 -0.3055  0.0573  0.0678
  439loPI    C2 7010  15.132  16.224  11.728 -0.3903 -0.0505 -0.1159
  439loPI    C3 7011  15.124  16.565  11.937  0.2019 -0.1248  0.0452
  439loPI   PO4 7012  15.108  16.524  11.184 -0.0706 -0.0250  0.0651
  439loPI   GL1 7013  15.396  16.592  10.819 -0.1366  0.1215  0.0667
  439loPI   GL2 7014  15.495  16.869  10.958 -0.0797  0.3678 -0.0191
  439loPI   C1A 7015  15.498  16.385  10.441  0.0134 -0.0309  0.1070
  439loPI   C2A 7016  15.574  16.451  10.015  0.0515 -0.1349 -0.1210
  439loPI   C3A 7017  15.561  16.425   9.595 -0.1559 -0.5110 -0.2708
  439loPI   C4A 7018  15.566  16.402   9.166 -0.2751  0.2755 -0.0229
  439loPI   C5A 7019  15.436  16.267   8.788  0.2244  0.1039 -0.1160
  439loPI   C6A 7020  15.407  15.865   8.401 -0.0064 -0.0704 -0.0740
  439loPI   C1B 7021  15.592  16.877  10.445 -0.3201 -0.0807 -0.0083
  439loPI   C2B 7022  15.682  16.980  10.043  0.0003 -0.2141  0.1457
  439loPI   C3B 7023  15.643  16.915   9.544  0.1496 -0.2832 -0.1587
  439loPI   C4B 7024  15.695  16.966   9.019 -0.0421 -0.2717  0.1627
  440loPI    C1 7025   0.543  14.112  11.801  0.0876  0.1247 -0.0349
  440loPI    C2 7026   0.751  14.331  12.063 -0.0674  0.2370 -0.0042
  440loPI    C3 7027   0.357  14.283  12.110 -0.1257  0.3945 -0.3065
  440loPI   PO4 7028   0.599  14.165  11.513 -0.0748 -0.1291  0.2776
  440loPI   GL1 7029   0.567  14.064  11.153  0.3339  0.1720 -0.1436
  440loPI   GL2 7030   0.683  14.374  11.095 -0.0222 -0.2159  0.2689
  440loPI   C1A 7031   0.490  13.941  10.708  0.1198 -0.0923  0.0253
  440loPI   C2A 7032   0.510  14.007  10.211 -0.2253  0.1746 -0.1868
  440loPI   C3A 7033   0.522  13.979   9.751  0.1380  0.0793  0.0724
  440loPI   C4A 7034   0.618  13.897   9.345 -0.1974 -0.2156 -0.1853
  440loPI   C5A 7035   0.524  14.179   9.018  0.1360  0.0975 -0.0742
  440loPI   C6A 7036   0.684  14.620   8.955 -0.3395  0.0083 -0.0374
  440loPI   C1B 7037   0.704  14.520  10.690  0.0050  0.0122 -0.1984
  440loPI   C2B 7038   0.670  14.498  10.321  0.0489  0.1662  0.2046
  440loPI   C3B 7039   0.702  14.437   9.899 -0.2515  0.2537  0.4374
  440loPI   C4B 7040   0.609  14.406   9.496 -0.3470  0.0609  0.2230
  441loPI    C1 7041  11.139  14.859  11.388 -0.0780  0.1011  0.0205
  441loPI    C2 7042  11.237  14.536  11.602 -0.3252 -0.1426 -0.2243
  441loPI    C3 7043  10.994  14.812  11.758  0.2260  0.1520  0.1492
  441loPI   PO4 7044  11.056  14.849  11.159 -0.1400  0.2867  0.3135
  441loPI   GL1 7045  10.837  14.696  10.877 -0.1066 -0.0527 -0.1204
  441loPI   GL2 7046  10.563  14.872  10.954 -0.1885 -0.2099  0.0044
  441loPI   C1A 7047  10.867  14.609  10.413 -0.0819  0.0499  0.3059
  441loPI   C2A 7048  10.908  14.631  10.029 -0.0927  0.0291 -0.1051
  441loPI   C3A 7049  10.955  14.581   9.638 -0.1552 -0.2287 -0.1551
  441loPI   C4A 7050  10.911  14.474   9.215 -0.2583 -0.0788 -0.0071
  441loPI   C5A 7051  10.891  14.816   8.880 -0.0818 -0.3204 -0.0111
  441loPI   C6A 7052  10.903  15.061   8.509 -0.0513 -0.0970  0.3461
  441loPI   C1B 7053  10.511  14.910  10.531 -0.0230  0.2866 -0.0336
  441loPI   C2B 7054  10.548  14.940  10.109 -0.6135 -0.1044  0.1929
  441loPI   C3B 7055  10.512  14.916   9.641 -0.2120 -0.0633  0.1818
  441loPI   C4B 7056  10.492  14.972   9.152 -0.2494 -0.0501 -0.1543
  442loPI    C1 7057   0.264  16.095  11.455  0.1656 -0.1337 -0.0314
  442loPI    C2 7058   0.117  15.908  11.777  0.0530 -0.0223 -0.0175
  442loPI    C3 7059  -0.088  16.207  11.608  0.1963  0.0385 -0.0852
  442loPI   PO4 7060   0.354  15.882  11.328 -0.0753  0.0253  0.1925
  442loPI   GL1 7061   0.337  15.734  10.971  0.1321  0.0453 -0.0616
  442loPI   GL2 7062   0.536  15.804  10.698 -0.0915 -0.1436  0.0382
  442loPI   C1A 7063   0.135  16.050  10.603  0.3196 -0.2961  0.3055
  442loPI   C2A 7064   0.147  16.203  10.199  0.0185  0.2050 -0.0024
  442loPI   C3A 7065   0.164  16.161   9.740  0.0297 -0.0267 -0.4704
  442loPI   C4A 7066   0.207  16.147   9.243 -0.1221  0.1269 -0.1111
  442loPI   C5A 7067   0.203  16.147   8.706  0.0554 -0.0193 -0.1031
  442loPI   C6A 7068   0.022  16.188   8.369 -0.1083 -0.1552 -0.1128
  442loPI   C1B 7069   0.545  15.826  10.273 -0.0006  0.0204 -0.2303
  442loPI   C2B 7070   0.620  15.840   9.916  0.0167 -0.1178 -0.0227
  442loPI   C3B 7071   0.615  15.872   9.491  0.1186  0.2139  0.1991
  442loPI   C4B 7072   0.656  15.591   9.155  0.1921  0.0801 -0.0056
  443loPI    C1 7073   9.376  12.822  11.372 -0.0672 -0.0048  0.1474
  443loPI    C2 7074   9.675  13.040  11.525  0.1413 -0.0876 -0.1340
  443loPI    C3 7075   9.600  12.674  11.667  0.1293 -0.0398 -0.0169
  443loPI   PO4 7076   9.402  12.742  11.176 -0.4117  0.0873  0.3488
  443loPI   GL1 7077   9.642  12.575  10.873 -0.2112 -0.3199  0.1761
  443loPI   GL2 7078   9.882  12.423  10.712  0.0958  0.0797  0.0214
  443loPI   C1A 7079   9.553  12.733  10.488  0.0918  0.0368  0.1404
  443loPI   C2A 7080   9.530  12.661  10.090 -0.3594  0.3363  0.0319
  443loPI   C3A 7081   9.479  12.854   9.601 -0.0429 -0.3731 -0.2060
  443loPI   C4A 7082   9.547  12.835   9.105 -0.0871  0.0785  0.0324
  443loPI   C5A 7083   9.537  12.683   8.704 -0.3252 -0.3351 -0.0624
  443loPI   C6A 7084   9.337  12.297   8.614 -0.0951 -0.2774  0.1084
  443loPI   C1B 7085   9.888  12.350  10.248 -0.1831 -0.0319 -0.1045
  443loPI   C2B 7086   9.932  12.294   9.821 -0.0318  0.3583 -0.0290
  443loPI   C3B 7087   9.917  12.471   9.454  0.0254  0.3885 -0.0257
  443loPI   C4B 7088   9.938  12.497   8.982  0.0063  0.2760 -0.0115
  444loPI    C1 7089   0.648  10.024  11.538 -0.2041 -0.1764  0.1156
  444loPI    C2 7090   1.032  10.001  11.427 -0.2613  0.0417 -0.1395
  444loPI    C3 7091   0.937  10.139  11.790 -0.1002  0.0170 -0.0872
  444loPI   PO4 7092   0.575  10.175  11.373  0.0116 -0.0508 -0.0367
  444loPI   GL1 7093   0.669  10.230  10.966 -0.1530 -0.1614 -0.1349
  444loPI   GL2 7094   0.677  10.539  11.003 -0.0185  0.0855  0.2613
  444loPI   C1A 7095   0.548  10.124  10.601 -0.0331 -0.0055  0.4501
  444loPI   C2A 7096   0.470  10.237  10.198 -0.0403 -0.2227 -0.1931
  444loPI   C3A 7097   0.484  10.180   9.846 -0.1358 -0.1875  0.7910
  444loPI   C4A 7098   0.553  10.107   9.385  0.1647  0.1959 -0.0202
  444loPI   C5A 7099   0.468  10.004   8.933 -0.3966  0.1330 -0.3767
  444loPI   C6A 7100   0.598  10.313   8.586  0.1767 -0.0731 -0.1177
  444loPI   C1B 7101   0.634  10.637  10.573 -0.4306 -0.4501 -0.2407
  444loPI   C2B 7102   0.589  10.789  10.240  0.0360  0.0184 -0.2277
  444loPI   C3B 7103   0.672  10.646   9.784 -0.2104  0.0901  0.2285
  444loPI   C4B 7104   0.713  10.569   9.360  0.1688  0.0455  0.0473
  445loPI    C1 7105  16.662   9.110  11.241 -0.0634  0.0532 -0.0174
  445loPI    C2 7106  16.555   9.244  11.603 -0.0720  0.0740 -0.0276
  445loPI    C3 7107  16.838   8.963  11.569 -0.1390  0.0027  0.0008
  445loPI   PO4 7108  16.641   9.214  11.140 -0.0723 -0.1126  0.1299
  445loPI   GL1 7109  16.835   9.228  10.777 -0.2141 -0.2117 -0.1054
  445loPI   GL2 7110  17.083   9.303  10.558 -0.1445 -0.1353 -0.2078
  445loPI   C1A 7111  16.636   9.414  10.367  0.1797 -0.0783 -0.3530
  445loPI   C2A 7112  16.354   9.633  10.098  0.0448  0.1649 -0.1007
  445loPI   C3A 7113  16.283   9.634   9.656  0.0682  0.1836 -0.0314
  445loPI   C4A 7114  16.195   9.681   9.240  0.2942  0.1659  0.2354
  445loPI   C5A 7115  16.035   9.764   8.880  0.0253  0.1226  0.0383
  445loPI   C6A 7116  15.870   9.624   8.455 -0.1774  0.1609  0.0026
  445loPI   C1B 7117  17.129   9.457  10.099 -0.0732 -0.0135  0.1058
  445loPI   C2B 7118  16.783   9.604   9.845  0.0705  0.4480  0.0918
  445loPI   C3B 7119  16.731   9.768   9.523 -0.1002  0.3952  0.1542
  445loPI   C4B 7120  16.618   9.864   9.050 -0.0110 -0.0268  0.0874
  446loPI    C1 7121   3.064   1.635  11.612 -0.0552 -0.0591 -0.0280
  446loPI    C2 7122   3.180   1.460  11.952  0.0495 -0.0245 -0.0456
  446loPI    C3 7123   2.819   1.631  11.928  0.0954  0.0946  0.0930
  446loPI   PO4 7124   3.167   1.482  11.464 -0.3344 -0.1659  0.1183
  446loPI   GL1 7125   3.447   1.307  11.229 -0.3523  0.0065  0.1209
  446loPI   GL2 7126   3.350   1.132  10.992 -0.1601  0.2609  0.1671
  446loPI   C1A 7127   3.678   1.477  10.895 -0.0590 -0.3068 -0.1482
  446loPI   C2A 7128   3.667   1.538  10.501  0.1420  0.1126  0.0635
  446loPI   C3A 7129   3.622   1.498  10.051 -0.2850  0.3834  0.2038
  446loPI   C4A 7130   3.719   1.402   9.578  0.1578  0.0076  0.0085
  446loPI   C5A 7131   3.699   1.412   9.201 -0.1384  0.1133  0.1907
  446loPI   C6A 7132   3.328   1.418   8.935  0.2300  0.1711  0.2384
  446loPI   C1B 7133   3.556   1.011  10.643  0.2448 -0.1677  0.0231
  446loPI   C2B 7134   3.527   0.980  10.283  0.0032 -0.1454  0.2055
  446loPI   C3B 7135   3.525   0.890   9.818  0.1646 -0.0993 -0.1803
  446loPI   C4B 7136   3.745   0.909   9.501  0.1825 -0.0079  0.0700
  447loPI    C1 7137   0.121  15.431  11.457 -0.1284 -0.1017 -0.0336
  447loPI    C2 7138  -0.135  15.673  11.267  0.0406  0.0311 -0.0954
  447loPI    C3 7139  -0.238  15.506  11.616 -0.0719  0.2037 -0.0449
  447loPI   PO4 7140   0.175  15.234  11.274  0.1750 -0.0740 -0.2505
  447loPI   GL1 7141   0.096  15.255  10.866  0.0476 -0.0237 -0.0563
  447loPI   GL2 7142  -0.159  15.195  10.722 -0.6654 -0.2367 -0.2041
  447loPI   C1A 7143  -0.010  15.602  10.472  0.2826  0.3261  0.0035
  447loPI   C2A 7144   0.008  15.674   9.995  0.2742  0.2777  0.1101
  447loPI   C3A 7145   0.124  15.663   9.547  0.3354  0.0046 -0.0686
  447loPI   C4A 7146   0.153  15.638   9.131 -0.0375 -0.0417  0.1056
  447loPI   C5A 7147   0.126  15.534   8.678 -0.0682  0.2561  0.1621
  447loPI   C6A 7148   0.031  15.123   8.503  0.2581 -0.3385 -0.0746
  447loPI   C1B 7149  -0.131  15.118  10.252 -0.1007  0.1161  0.0512
  447loPI   C2B 7150  -0.101  15.160   9.837 -0.1070 -0.1636  0.0946
  447loPI   C3B 7151  -0.031  15.186   9.413 -0.0788 -0.1540  0.1239
  447loPI   C4B 7152   0.025  15.126   8.986 -0.2719 -0.2282  0.3007
  448loPI    C1 7153   6.259  13.508  11.788 -0.1010  0.2968  0.1456
  448loPI    C2 7154   6.526  13.213  11.830 -0.0073  0.3430 -0.1100
  448loPI    C3 7155   6.542  13.533  12.070 -0.1761  0.0946  0.2405
  448loPI   PO4 7156   6.291  13.600  11.500 -0.0510  0.0139 -0.3984
  448loPI   GL1 7157   6.476  13.832  11.150 -0.0749 -0.0735  0.0548
  448loPI   GL2 7158   6.512  13.449  10.913 -0.1561 -0.1528  0.1561
  448loPI   C1A 7159   6.640  13.933  10.718  0.2079  0.1027  0.1769
  448loPI   C2A 7160   6.637  13.880  10.247 -0.0080 -0.0905  0.4016
  448loPI   C3A 7161   6.533  13.886   9.843 -0.5115 -0.0645  0.0233
  448loPI   C4A 7162   6.498  13.788   9.387 -0.0776 -0.1864 -0.0795
  448loPI   C5A 7163   6.435  13.780   8.888 -0.0682  0.2161  0.0711
  448loPI   C6A 7164   6.573  13.587   8.415 -0.0173 -0.3035  0.0332
  448loPI   C1B 7165   6.496  13.463  10.520  0.3126  0.0576  0.2871
  448loPI   C2B 7166   6.518  13.406  10.088 -0.1034 -0.0658 -0.1605
  448loPI   C3B 7167   6.457  13.205   9.690 -0.0415  0.0987  0.1650
  448loPI   C4B 7168   6.444  13.282   9.237 -0.0318 -0.1306 -0.1498
  449loPI    C1 7169   0.466   9.501  11.562  0.3207  0.0690  0.1366
  449loPI    C2 7170   0.192   9.412  11.840  0.2003 -0.1614 -0.0517
  449loPI    C3 7171   0.575   9.310  11.896  0.2011 -0.0842  0.0894
  449loPI   PO4 7172   0.317   9.429  11.335  0.2379 -0.0627 -0.1308
  449loPI   GL1 7173   0.173   9.563  10.952  0.0555 -0.1004 -0.3191
  449loPI   GL2 7174  -0.136   9.595  10.843 -0.0218 -0.0805 -0.2158
  449loPI   C1A 7175   0.342   9.672  10.569 -0.0199 -0.0991 -0.1510
  449loPI   C2A 7176   0.404   9.734  10.196  0.1339 -0.0358 -0.0503
  449loPI   C3A 7177   0.474   9.679   9.723  0.1619 -0.0478 -0.1086
  449loPI   C4A 7178   0.505   9.597   9.242  0.4403 -0.1139 -0.0988
  449loPI   C5A 7179   0.125   9.614   8.897 -0.3011  0.2531  0.1639
  449loPI   C6A 7180  -0.209   9.494   8.759  0.1124 -0.0280 -0.3885
  449loPI   C1B 7181  -0.147   9.641  10.370 -0.0579  0.0239 -0.0613
  449loPI   C2B 7182   0.005   9.529   9.912  0.2461  0.2155 -0.3142
  449loPI   C3B 7183  -0.112   9.530   9.558  0.2375  0.1755  0.3427
  449loPI   C4B 7184  -0.497   9.350   9.564 -0.4159  0.1417 -0.0537
  450loPI    C1 7185   0.477  14.916  11.462 -0.1793 -0.0357 -0.0368
  450loPI    C2 7186   0.688  14.696  11.721 -0.0624 -0.0249 -0.1223
  450loPI    C3 7187   0.518  15.037  11.841  0.1938  0.1034 -0.1174
  450loPI   PO4 7188   0.652  14.929  11.234 -0.2604  0.1036 -0.3602
  450loPI   GL1 7189   0.899  15.088  10.960 -0.1324  0.0765 -0.3168
  450loPI   GL2 7190   0.613  15.262  10.903  0.0400 -0.2231  0.4837
  450loPI   C1A 7191   0.839  14.961  10.532 -0.0763  0.2866  0.1551
  450loPI   C2A 7192   0.825  15.057  10.090 -0.3721  0.1630  0.1507
  450loPI   C3A 7193   0.866  14.941   9.694 -0.1229  0.1230  0.1574
  450loPI   C4A 7194   0.828  14.911   9.284 -0.2300 -0.1273 -0.0292
  450loPI   C5A 7195   0.666  15.151   8.886 -0.1854  0.0002 -0.1341
  450loPI   C6A 7196   0.512  15.010   8.594 -0.1824 -0.0342  0.0879
  450loPI   C1B 7197   0.486  15.348  10.514  0.0611 -0.1825  0.2581
  450loPI   C2B 7198   0.430  15.344  10.201  0.0838 -0.0346 -0.2158
  450loPI   C3B 7199   0.388  15.233   9.859 -0.1999 -0.1317 -0.0150
  450loPI   C4B 7200   0.443  15.296   9.465  0.0111 -0.0149  0.0186
  451loPI    C1 7201   4.450   9.567  11.475 -0.2805 -0.0938  0.1074
  451loPI    C2 7202   4.243   9.817  11.709 -0.0845 -0.1313  0.3249
  451loPI    C3 7203   4.496   9.554  11.872  0.3039  0.0644  0.0542
  451loPI   PO4 7204   4.572   9.756  11.222  0.0065 -0.1992  0.1035
  451loPI   GL1 7205   4.702   9.774  10.735 -0.0540  0.0803  0.0118
  451loPI   GL2 7206   4.897   9.527  10.745  0.2584  0.0799  0.0195
  451loPI   C1A 7207   4.683   9.945  10.421 -0.1382  0.0453  0.2634
  451loPI   C2A 7208   4.660   9.884   9.937 -0.0665  0.0874 -0.0059
  451loPI   C3A 7209   4.764   9.892   9.453  0.0271 -0.0724 -0.0398
  451loPI   C4A 7210   4.777   9.940   9.003 -0.1588 -0.2031  0.2531
  451loPI   C5A 7211   4.914   9.835   8.625 -0.2219  0.0132 -0.1715
  451loPI   C6A 7212   5.128   9.443   8.594 -0.0658 -0.1422  0.0576
  451loPI   C1B 7213   5.069   9.538  10.377 -0.0975  0.0584  0.1281
  451loPI   C2B 7214   5.053   9.558   9.972  0.0273 -0.2365 -0.0782
  451loPI   C3B 7215   5.009   9.479   9.502 -0.0781  0.3003  0.1349
  451loPI   C4B 7216   5.157   9.529   9.075  0.0091  0.1332  0.0048
  452loPI    C1 7217   6.286   7.192  11.879  0.0418 -0.0576 -0.0302
  452loPI    C2 7218   6.566   7.465  11.966  0.0548 -0.0390 -0.1293
  452loPI    C3 7219   6.559   7.116  12.162  0.0677  0.0128 -0.0359
  452loPI   PO4 7220   6.277   7.284  11.552  0.2111  0.0683 -0.0176
  452loPI   GL1 7221   6.210   7.525  11.156 -0.1399 -0.0584  0.2243
  452loPI   GL2 7222   6.440   7.437  11.006 -0.1401 -0.1141 -0.1616
  452loPI   C1A 7223   5.929   7.518  10.699 -0.1993 -0.2356 -0.1502
  452loPI   C2A 7224   5.877   7.507  10.242  0.0807 -0.0025 -0.0510
  452loPI   C3A 7225   5.946   7.472   9.798  0.0633  0.0026 -0.0330
  452loPI   C4A 7226   5.990   7.479   9.407 -0.3767 -0.0594  0.4144
  452loPI   C5A 7227   5.907   7.474   9.086  0.1478 -0.1190  0.0267
  452loPI   C6A 7228   5.998   7.594   8.638 -0.0356 -0.1725 -0.0552
  452loPI   C1B 7229   6.407   7.644  10.665  0.0969  0.1493 -0.0678
  452loPI   C2B 7230   6.465   7.643  10.132 -0.0052  0.1554 -0.0267
  452loPI   C3B 7231   6.496   7.648   9.681 -0.0756 -0.0444  0.0994
  452loPI   C4B 7232   6.559   7.678   9.243  0.3915 -0.2907  0.1254
  453loPI    C1 7233  11.418   0.576  11.346 -0.0065  0.0123  0.0497
  453loPI    C2 7234  11.138   0.527  11.628  0.0500 -0.3625  0.0467
  453loPI    C3 7235  11.032   0.546  11.243 -0.0212  0.0844  0.0831
  453loPI   PO4 7236  11.572   0.717  11.374 -0.0304  0.2132 -0.0271
  453loPI   GL1 7237  11.862   0.713  11.104 -0.0404  0.1007  0.1258
  453loPI   GL2 7238  12.021   0.998  11.216  0.1790  0.1149  0.0477
  453loPI   C1A 7239  11.714   0.588  10.654 -0.2591  0.1272 -0.4344
  453loPI   C2A 7240  11.708   0.649  10.213 -0.1785  0.0665  0.2769
  453loPI   C3A 7241  11.797   0.571   9.825 -0.0734 -0.0017  0.0814
  453loPI   C4A 7242  11.825   0.631   9.316 -0.0746  0.1467 -0.1606
  453loPI   C5A 7243  11.843   0.589   8.943 -0.2563 -0.0730  0.0058
  453loPI   C6A 7244  12.007   0.570   8.493  0.1447  0.1883  0.0965
  453loPI   C1B 7245  11.897   1.068  10.712  0.0850  0.3048  0.3982
  453loPI   C2B 7246  11.883   1.091  10.185 -0.1677 -0.0145  0.0515
  453loPI   C3B 7247  11.922   1.204   9.735  0.1804  0.0485 -0.0706
  453loPI   C4B 7248  11.878   1.101   9.329 -0.3594  0.6320  0.3441
  454loPI    C1 7249  10.772   1.927  11.798 -0.0419  0.1032  0.2041
  454loPI    C2 7250  10.803   2.002  12.190  0.2179  0.0230  0.2005
  454loPI    C3 7251  10.662   1.649  12.064 -0.0947  0.1388  0.2195
  454loPI   PO4 7252  10.577   2.135  11.645 -0.1319  0.1669 -0.2558
  454loPI   GL1 7253  10.516   2.301  11.214  0.2464 -0.1343 -0.3862
  454loPI   GL2 7254  10.891   2.327  11.132 -0.0894 -0.0663 -0.0540
  454loPI   C1A 7255  10.469   2.465  10.778 -0.0250  0.2784  0.0450
  454loPI   C2A 7256  10.433   2.566  10.337  0.2403  0.1703  0.1115
  454loPI   C3A 7257  10.401   2.515   9.961  0.1406 -0.4512  0.2400
  454loPI   C4A 7258  10.458   2.597   9.517 -0.1893  0.0109 -0.0088
  454loPI   C5A 7259  10.695   2.734   9.034 -0.1061  0.1173 -0.0674
  454loPI   C6A 7260  10.831   2.577   8.764  0.0295 -0.1007 -0.1850
  454loPI   C1B 7261  10.858   2.175  10.735  0.1218 -0.1657 -0.0674
  454loPI   C2B 7262  10.737   2.153  10.279  0.0645 -0.1739 -0.1272
  454loPI   C3B 7263  10.792   2.192   9.890 -0.1351  0.1033  0.1024
  454loPI   C4B 7264  10.975   2.327   9.456  0.2009  0.0671 -0.1188
  455loPI    C1 7265   8.232   6.920  11.884  0.1224  0.0195 -0.0809
  455loPI    C2 7266   7.910   7.155  11.855  0.2221  0.1581 -0.0748
  455loPI    C3 7267   7.905   6.839  12.100  0.1987  0.3385  0.1613
  455loPI   PO4 7268   8.281   6.959  11.601 -0.1286  0.1998  0.0820
  455loPI   GL1 7269   8.597   6.969  11.235  0.0841  0.0182 -0.0850
  455loPI   GL2 7270   8.641   7.298  11.111 -0.5028 -0.1289 -0.1350
  455loPI   C1A 7271   8.521   6.791  10.844  0.2382 -0.1063  0.1929
  455loPI   C2A 7272   8.520   6.771  10.468  0.1466  0.2564  0.0961
  455loPI   C3A 7273   8.581   6.778   9.980  0.0588 -0.0308  0.1980
  455loPI   C4A 7274   8.507   6.794   9.484  0.2295  0.2062 -0.1789
  455loPI   C5A 7275   8.584   6.953   9.062  0.2147 -0.1927 -0.0519
  455loPI   C6A 7276   8.873   7.124   8.819 -0.0164  0.1113  0.0684
  455loPI   C1B 7277   8.690   7.220  10.717  0.1579  0.1624  0.3226
  455loPI   C2B 7278   8.729   7.221  10.272 -0.1941 -0.2149  0.1371
  455loPI   C3B 7279   8.730   7.376   9.814 -0.1421  0.1369  0.1112
  455loPI   C4B 7280   8.719   7.342   9.448 -0.0414 -0.0903  0.1049
  456loPI    C1 7281   7.678  12.335  11.552 -0.2317  0.1079  0.1413
  456loPI    C2 7282   7.459  12.640  11.690 -0.0571  0.1391  0.3559
  456loPI    C3 7283   7.424  12.278  11.856 -0.1708  0.0704  0.1854
  456loPI   PO4 7284   7.627  12.319  11.318 -0.2771  0.3004 -0.1541
  456loPI   GL1 7285   7.405  12.141  11.010  0.2298  0.0651 -0.1842
  456loPI   GL2 7286   7.275  11.827  11.086  0.0510 -0.1979 -0.0822
  456loPI   C1A 7287   7.473  12.281  10.546 -0.0582 -0.0164 -0.0780
  456loPI   C2A 7288   7.614  12.183  10.036 -0.1513  0.1392 -0.2746
  456loPI   C3A 7289   7.518  12.081   9.626 -0.2072  0.0922  0.2574
  456loPI   C4A 7290   7.554  12.166   9.191  0.1246 -0.0159  0.1778
  456loPI   C5A 7291   7.365  12.293   8.945  0.0345 -0.1170 -0.1991
  456loPI   C6A 7292   7.221  12.715   8.692  0.0250  0.2097  0.1349
  456loPI   C1B 7293   7.297  11.798  10.655 -0.0231 -0.2478  0.3060
  456loPI   C2B 7294   7.349  11.627  10.195 -0.0189 -0.0533  0.1443
  456loPI   C3B 7295   7.455  11.551   9.700 -0.0899 -0.3866  0.2200
  456loPI   C4B 7296   7.241  11.685   9.343 -0.3035 -0.0423 -0.1300
  457loPI    C1 7297   2.630  17.418  11.588 -0.0673 -0.1397 -0.0111
  457loPI    C2 7298   3.001  17.526  11.692 -0.0497 -0.2744  0.0699
  457loPI    C3 7299   2.729  17.447  11.974 -0.2155  0.0701  0.0123
  457loPI   PO4 7300   2.502  17.616  11.359  0.1110  0.0492  0.3669
  457loPI   GL1 7301   2.571  17.695  10.910  0.0725  0.2732  0.2022
  457loPI   GL2 7302   2.511  17.850  10.694  0.0456 -0.1679 -0.2085
  457loPI   C1A 7303   2.798  17.412  10.576  0.0195  0.1813  0.1287
  457loPI   C2A 7304   2.878  17.539  10.184  0.1037  0.0737  0.1964
  457loPI   C3A 7305   2.751  17.465   9.822 -0.0412  0.2728  0.2175
  457loPI   C4A 7306   2.926  17.424   9.425 -0.3970 -0.0068 -0.1464
  457loPI   C5A 7307   3.055  17.427   9.000  0.1546  0.0973  0.0906
  457loPI   C6A 7308   2.821  17.542   8.625 -0.1660 -0.1250 -0.2682
  457loPI   C1B 7309   2.436  17.716  10.337 -0.1037 -0.1983  0.1094
  457loPI   C2B 7310   2.359  17.781   9.945 -0.3011  0.2369 -0.0250
  457loPI   C3B 7311   2.456  17.802   9.507 -0.0606 -0.0818  0.0286
  457loPI   C4B 7312   2.563  17.868   9.135  0.4656 -0.3192  0.2799
  458loPI    C1 7313   2.793  16.099  11.672  0.0832 -0.0818  0.0942
  458loPI    C2 7314   2.839  16.494  11.626 -0.2849 -0.0895 -0.4196
  458loPI    C3 7315   2.638  16.351  11.941  0.1516  0.1061 -0.0402
  458loPI   PO4 7316   2.653  15.963  11.407  0.1025  0.1287 -0.1062
  458loPI   GL1 7317   2.791  15.865  11.018 -0.0474  0.1550 -0.0589
  458loPI   GL2 7318   2.761  15.591  10.909  0.1334  0.1691  0.1468
  458loPI   C1A 7319   2.914  16.022  10.591  0.1319 -0.2381  0.2048
  458loPI   C2A 7320   3.033  16.151  10.118  0.2500 -0.3260 -0.0007
  458loPI   C3A 7321   2.991  15.940   9.714 -0.0076  0.0301 -0.0598
  458loPI   C4A 7322   2.956  15.994   9.250 -0.1028  0.1891 -0.1697
  458loPI   C5A 7323   2.725  16.049   8.858  0.0248  0.2031 -0.0293
  458loPI   C6A 7324   2.517  16.116   8.486  0.1258 -0.0347 -0.0447
  458loPI   C1B 7325   2.801  15.533  10.420 -0.0073 -0.0205 -0.4068
  458loPI   C2B 7326   2.753  15.488   9.937 -0.1767 -0.1864  0.2104
  458loPI   C3B 7327   2.891  15.504   9.495  0.0506  0.0625 -0.0140
  458loPI   C4B 7328   2.834  15.531   9.018 -0.2862 -0.2018  0.2359
  459loPI    C1 7329  16.320  10.131  11.651 -0.0078 -0.3121 -0.0218
  459loPI    C2 7330  16.051   9.835  11.643 -0.1176 -0.2170  0.1261
  459loPI    C3 7331  16.398   9.785  11.836 -0.2442 -0.1611  0.3735
  459loPI   PO4 7332  16.333  10.192  11.399 -0.1179 -0.0048 -0.2765
  459loPI   GL1 7333  16.139  10.381  11.081  0.1233 -0.0944  0.0623
  459loPI   GL2 7334  16.339  10.599  10.850  0.0283  0.1001  0.0085
  459loPI   C1A 7335  15.888  10.406  10.691  0.0938  0.0991  0.2156
  459loPI   C2A 7336  15.924  10.401  10.242 -0.2008  0.0840  0.3270
  459loPI   C3A 7337  15.977  10.356   9.767 -0.2784 -0.0766  0.0457
  459loPI   C4A 7338  15.846  10.386   9.380 -0.0078 -0.0348 -0.1903
  459loPI   C5A 7339  15.925  10.521   9.022  0.1242  0.0443 -0.0912
  459loPI   C6A 7340  15.839  10.727   8.682  0.1510  0.0096 -0.0298
  459loPI   C1B 7341  16.295  10.616  10.438  0.0997  0.0222 -0.3719
  459loPI   C2B 7342  16.428  10.643  10.021 -0.0880 -0.1908  0.1319
  459loPI   C3B 7343  16.460  10.578   9.596 -0.1364  0.1270 -0.0250
  459loPI   C4B 7344  16.418  10.629   9.105 -0.0624  0.0383  0.1395
  460loPI    C1 7345  13.135   9.683  11.793  0.0067  0.0419  0.0635
  460loPI    C2 7346  13.153  10.078  11.730 -0.1461  0.0258 -0.0866
  460loPI    C3 7347  12.983   9.936  12.063 -0.0912  0.0865 -0.0326
  460loPI   PO4 7348  13.076   9.512  11.549 -0.0563 -0.1432  0.2632
  460loPI   GL1 7349  13.065   9.256  11.228  0.0186  0.0544 -0.0111
  460loPI   GL2 7350  13.358   9.293  11.214  0.2623 -0.2563 -0.1976
  460loPI   C1A 7351  12.988   9.101  10.847  0.1386  0.0657  0.0171
  460loPI   C2A 7352  12.792   9.018  10.539 -0.0866 -0.1666  0.2179
  460loPI   C3A 7353  12.771   9.019  10.056  0.1563  0.1474 -0.0808
  460loPI   C4A 7354  12.795   9.095   9.667  0.1188 -0.2950 -0.1682
  460loPI   C5A 7355  12.735   9.076   9.210  0.0688 -0.0633  0.0620
  460loPI   C6A 7356  12.553   9.255   8.863  0.0729 -0.0830 -0.2325
  460loPI   C1B 7357  13.354   9.416  10.845  0.0591 -0.2022 -0.1263
  460loPI   C2B 7358  13.370   9.245  10.416 -0.1564 -0.2791 -0.2791
  460loPI   C3B 7359  13.253   9.268   9.973  0.2181 -0.0544  0.2624
  460loPI   C4B 7360  13.256   9.276   9.557 -0.0689  0.2143 -0.0485
  461loPI    C1 7361   1.350  11.196  11.529  0.0970 -0.0400  0.1121
  461loPI    C2 7362   1.227  10.817  11.564 -0.2812  0.0637 -0.0424
  461loPI    C3 7363   0.996  11.116  11.696 -0.0051  0.2456  0.0394
  461loPI   PO4 7364   1.581  11.184  11.397 -0.0717  0.2627 -0.1131
  461loPI   GL1 7365   1.930  11.103  11.142 -0.0815 -0.0889  0.1560
  461loPI   GL2 7366   1.730  11.357  10.922 -0.4046  0.2825  0.0132
  461loPI   C1A 7367   2.068  11.050  10.734  0.1308 -0.1018  0.1500
  461loPI   C2A 7368   2.110  11.069  10.344 -0.1224  0.2571 -0.3618
  461loPI   C3A 7369   2.195  11.201   9.885 -0.2441 -0.2436 -0.0140
  461loPI   C4A 7370   2.206  11.116   9.426 -0.0513  0.1766  0.2593
  461loPI   C5A 7371   2.147  11.104   9.007  0.0186  0.2497  0.2439
  461loPI   C6A 7372   1.914  11.459   8.852  0.3210 -0.3128 -0.1015
  461loPI   C1B 7373   1.789  11.405  10.450  0.1954  0.0821  0.1369
  461loPI   C2B 7374   1.879  11.505  10.086  0.1944 -0.0876 -0.1316
  461loPI   C3B 7375   1.879  11.502   9.665  0.1722 -0.0559  0.2912
  461loPI   C4B 7376   1.793  11.461   9.320 -0.3561 -0.0693 -0.0316
  462loPI    C1 7377  12.762  11.118  11.419  0.0174 -0.1473  0.0658
  462loPI    C2 7378  12.469  11.296  11.624 -0.1518 -0.1955 -0.1304
  462loPI    C3 7379  12.846  11.319  11.754 -0.1589  0.3594 -0.1833
  462loPI   PO4 7380  12.633  11.186  11.180 -0.2532  0.3164  0.1972
  462loPI   GL1 7381  12.683  11.354  10.740  0.0890 -0.2442  0.0813
  462loPI   GL2 7382  12.333  11.502  10.769 -0.1418  0.3378  0.0006
  462loPI   C1A 7383  12.946  11.517  10.257  0.2978 -0.0070 -0.1059
  462loPI   C2A 7384  12.886  11.460   9.786 -0.0856 -0.1507 -0.1571
  462loPI   C3A 7385  12.956  11.421   9.356 -0.0660 -0.4444  0.1286
  462loPI   C4A 7386  12.996  11.455   8.948  0.2586  0.2863  0.0674
  462loPI   C5A 7387  12.843  11.115   8.733 -0.1389  0.0172 -0.2534
  462loPI   C6A 7388  12.837  10.681   8.622 -0.3436  0.0062  0.0543
  462loPI   C1B 7389  12.289  11.241  10.496 -0.3249  0.0269 -0.2249
  462loPI   C2B 7390  12.325  11.382  10.051 -0.2025  0.0556  0.2092
  462loPI   C3B 7391  12.393  11.210   9.626 -0.2791 -0.0368 -0.2655
  462loPI   C4B 7392  12.470  11.290   9.237  0.0478  0.1115 -0.1348
  463loPI    C1 7393  17.511   7.491  11.318  0.0943  0.2177  0.0360
  463loPI    C2 7394  17.541   7.658  11.680 -0.2287  0.1142  0.1139
  463loPI    C3 7395  17.785   7.358  11.577 -0.1168  0.1627  0.2352
  463loPI   PO4 7396  17.261   7.382  11.277  0.0772  0.0314 -0.1978
  463loPI   GL1 7397  17.182   7.324  10.871  0.4427 -0.2236  0.3477
  463loPI   GL2 7398  16.849   7.230  10.837  0.2937 -0.0639 -0.2128
  463loPI   C1A 7399  17.160   7.432  10.468  0.0610 -0.0175  0.0704
  463loPI   C2A 7400  17.047   7.501   9.976 -0.1813  0.3410 -0.0113
  463loPI   C3A 7401  17.001   7.341   9.507  0.0369 -0.1524 -0.0002
  463loPI   C4A 7402  17.139   7.386   9.170 -0.2873 -0.4469 -0.2216
  463loPI   C5A 7403  17.210   7.610   8.831 -0.3446 -0.4647  0.1460
  463loPI   C6A 7404  17.066   7.853   8.464 -0.1438  0.3321 -0.1314
  463loPI   C1B 7405  16.590   7.239  10.492  0.0594  0.1154  0.4090
  463loPI   C2B 7406  16.516   7.237  10.070 -0.2479  0.0000  0.0953
  463loPI   C3B 7407  16.561   7.205   9.644  0.0024 -0.0974 -0.3272
  463loPI   C4B 7408  16.471   7.447   9.231  0.0510  0.1976  0.1494
  464loPI    C1 7409  11.013   4.704  11.670 -0.1932  0.0802  0.0386
  464loPI    C2 7410  10.946   4.830  12.044 -0.1016 -0.2248  0.1612
  464loPI    C3 7411  10.763   4.502  11.908 -0.0398 -0.1850 -0.0212
  464loPI   PO4 7412  10.990   4.839  11.502  0.1687  0.1415  0.0002
  464loPI   GL1 7413  10.757   4.732  11.097 -0.1975 -0.1216 -0.0526
  464loPI   GL2 7414  10.566   4.943  10.914 -0.0801  0.0990 -0.1531
  464loPI   C1A 7415  10.895   4.564  10.682  0.0083 -0.2730  0.1318
  464loPI   C2A 7416  10.871   4.609  10.295  0.1629  0.1074 -0.2504
  464loPI   C3A 7417  10.872   4.677   9.846  0.3992  0.4310 -0.1236
  464loPI   C4A 7418  10.851   4.652   9.428  0.0733 -0.0398  0.1066
  464loPI   C5A 7419  10.836   4.951   9.005 -0.4168 -0.0432 -0.0707
  464loPI   C6A 7420  10.955   5.324   8.850  0.2719  0.2913  0.1797
  464loPI   C1B 7421  10.503   5.051  10.446 -0.0539 -0.0343 -0.1899
  464loPI   C2B 7422  10.539   5.029  10.080 -0.1768  0.0447 -0.0261
  464loPI   C3B 7423  10.451   5.027   9.682  0.1608 -0.1597 -0.2291
  464loPI   C4B 7424  10.437   5.154   9.240 -0.1113 -0.0859  0.2342
  465loPI    C1 7425  10.122   2.675  11.834  0.1872 -0.0515  0.1675
  465loPI    C2 7426   9.943   2.375  12.029 -0.0574  0.0633  0.1234
  465loPI    C3 7427   9.843   2.754  12.110  0.2560  0.1354  0.1845
  465loPI   PO4 7428  10.187   2.590  11.555 -0.0997  0.3427  0.0426
  465loPI   GL1 7429  10.076   2.578  11.156 -0.2628 -0.2353  0.0247
  465loPI   GL2 7430   9.855   2.739  11.213  0.3930  0.0884  0.3196
  465loPI   C1A 7431   9.975   2.396  10.823  0.1564 -0.0443  0.0640
  465loPI   C2A 7432   9.890   2.542  10.434 -0.0782 -0.1238 -0.0823
  465loPI   C3A 7433   9.871   2.411   9.963 -0.1488 -0.0005 -0.1050
  465loPI   C4A 7434   9.988   2.436   9.495 -0.0010 -0.1974  0.0426
  465loPI   C5A 7435  10.186   2.448   9.109  0.0746  0.0420  0.2021
  465loPI   C6A 7436  10.282   2.479   8.675 -0.1960 -0.0926 -0.0642
  465loPI   C1B 7437  10.017   2.918  10.766 -0.1386 -0.1198  0.0388
  465loPI   C2B 7438  10.118   2.975  10.216  0.2242  0.0336 -0.3326
  465loPI   C3B 7439  10.097   2.932   9.802  0.1730  0.0048 -0.1298
  465loPI   C4B 7440  10.053   2.963   9.356 -0.0367  0.3572  0.0287
  466loPI    C1 7441  12.319   7.584  11.869 -0.0641 -0.1244  0.0508
  466loPI    C2 7442  12.322   7.920  12.085 -0.1419 -0.0364 -0.0833
  466loPI    C3 7443  12.613   7.650  12.132  0.0969  0.1951 -0.2014
  466loPI   PO4 7444  12.320   7.683  11.555  0.3080  0.1483  0.0749
  466loPI   GL1 7445  12.259   7.870  11.188  0.0943  0.2496  0.2209
  466loPI   GL2 7446  11.914   8.113  11.239  0.0079 -0.1514  0.1784
  466loPI   C1A 7447  12.068   7.848  10.859 -0.2178 -0.1985 -0.1637
  466loPI   C2A 7448  11.978   7.861  10.494 -0.4102  0.2822  0.0150
  466loPI   C3A 7449  12.048   7.800  10.085 -0.1632  0.0832 -0.1359
  466loPI   C4A 7450  12.031   7.762   9.722 -0.2949 -0.1232  0.0746
  466loPI   C5A 7451  12.030   7.883   9.280  0.3946  0.0782 -0.4359
  466loPI   C6A 7452  12.115   8.052   8.842 -0.2098 -0.0824  0.2025
  466loPI   C1B 7453  11.613   8.160  10.800  0.1037 -0.0994 -0.1457
  466loPI   C2B 7454  11.658   8.261  10.376 -0.2130  0.0894 -0.1232
  466loPI   C3B 7455  11.597   8.257  10.003 -0.1286  0.0165  0.0656
  466loPI   C4B 7456  11.651   8.271   9.609 -0.0988  0.0379 -0.0672
  467loPI    C1 7457   5.592   2.714  11.733  0.0879 -0.0527  0.0668
  467loPI    C2 7458   5.292   2.578  11.960  0.1248 -0.0217  0.1348
  467loPI    C3 7459   5.658   2.421  11.997  0.1750  0.1185  0.2377
  467loPI   PO4 7460   5.450   2.750  11.396 -0.1512 -0.0034 -0.2805
  467loPI   GL1 7461   5.437   2.868  10.977  0.1867 -0.0282  0.0199
  467loPI   GL2 7462   5.220   3.045  10.731  0.1005 -0.0733 -0.0528
  467loPI   C1A 7463   5.699   2.600  10.718  0.2066  0.3339  0.1423
  467loPI   C2A 7464   5.848   2.569  10.318 -0.0234 -0.0804 -0.0298
  467loPI   C3A 7465   5.801   2.562   9.849  0.2625 -0.1627 -0.3267
  467loPI   C4A 7466   5.892   2.669   9.375  0.3469 -0.0061 -0.0965
  467loPI   C5A 7467   5.847   2.751   8.898 -0.4701 -0.0597 -0.0860
  467loPI   C6A 7468   5.753   2.943   8.499  0.3593 -0.2064 -0.0260
  467loPI   C1B 7469   5.380   2.954  10.393 -0.3412  0.1568 -0.0032
  467loPI   C2B 7470   5.397   2.930   9.898  0.1520  0.2335  0.1024
  467loPI   C3B 7471   5.518   2.994   9.412  0.2192  0.0891 -0.3022
  467loPI   C4B 7472   5.323   3.083   8.903 -0.1345 -0.3340  0.3903
  468loPI    C1 7473  11.641   3.471  11.466  0.0446 -0.1916 -0.1097
  468loPI    C2 7474  11.905   3.213  11.619  0.1699 -0.0124 -0.0213
  468loPI    C3 7475  11.649   3.404  11.860  0.0739 -0.0576 -0.0870
  468loPI   PO4 7476  11.807   3.705  11.304 -0.0316  0.1909 -0.0506
  468loPI   GL1 7477  12.028   3.815  10.969 -0.0536  0.1487 -0.0499
  468loPI   GL2 7478  12.038   4.100  10.772 -0.2286  0.2616  0.1737
  468loPI   C1A 7479  12.301   3.707  10.578  0.3116 -0.0968  0.2136
  468loPI   C2A 7480  12.375   3.668  10.171  0.0061  0.0022 -0.2106
  468loPI   C3A 7481  12.255   3.631   9.764  0.1464  0.0320 -0.2716
  468loPI   C4A 7482  12.084   3.420   9.530  0.2952  0.0676  0.0910
  468loPI   C5A 7483  11.922   3.373   9.051  0.0837  0.1182 -0.1930
  468loPI   C6A 7484  12.234   3.141   8.825 -0.0696  0.4183  0.0267
  468loPI   C1B 7485  12.171   4.168  10.457  0.2797  0.0606  0.1125
  468loPI   C2B 7486  12.204   4.180   9.918  0.1722  0.1440 -0.3713
  468loPI   C3B 7487  12.085   4.039   9.551  0.0506 -0.2457 -0.0052
  468loPI   C4B 7488  12.192   3.739   9.210 -0.1814 -0.1729 -0.2590
  469loPI    C1 7489  12.454   8.750  11.982  0.0769 -0.0214  0.1091
  469loPI    C2 7490  12.763   8.691  12.229 -0.0165 -0.0675  0.2159
  469loPI    C3 7491  12.436   8.463  12.260  0.0752 -0.2525 -0.1253
  469loPI   PO4 7492  12.513   8.667  11.759 -0.1034  0.0494  0.0912
  469loPI   GL1 7493  12.613   8.501  11.295  0.1810  0.1788 -0.0369
  469loPI   GL2 7494  12.405   8.374  11.161  0.1324  0.0705  0.0584
  469loPI   C1A 7495  12.523   8.818  10.873  0.7354 -0.2612  0.1038
  469loPI   C2A 7496  12.266   8.870  10.457 -0.2813 -0.0417  0.0589
  469loPI   C3A 7497  12.288   8.920  10.022  0.2053  0.0950  0.1832
  469loPI   C4A 7498  12.315   8.929   9.555  0.0027  0.2247 -0.2832
  469loPI   C5A 7499  12.170   8.852   9.129  0.2870  0.0312  0.0964
  469loPI   C6A 7500  11.890   9.241   9.038  0.2048 -0.4138  0.2087
  469loPI   C1B 7501  12.235   8.372  10.754  0.3487 -0.3980 -0.0548
  469loPI   C2B 7502  12.207   8.402  10.291  0.1747  0.2157 -0.0579
  469loPI   C3B 7503  12.133   8.269   9.904 -0.1793  0.1497 -0.0452
  469loPI   C4B 7504  12.137   8.438   9.450  0.0260  0.1288  0.1184
  470loPI    C1 7505   2.316   8.119  11.140  0.0960  0.0056  0.0265
  470loPI    C2 7506   2.437   7.825  11.383  0.0192  0.0956  0.1748
  470loPI    C3 7507   2.126   7.768  11.138  0.1238 -0.0097  0.0656
  470loPI   PO4 7508   2.549   8.291  11.150 -0.4069  0.2494  0.4626
  470loPI   GL1 7509   2.565   8.570  10.803  0.1518  0.0957 -0.0945
  470loPI   GL2 7510   2.880   8.632  10.654  0.1083  0.0741 -0.1806
  470loPI   C1A 7511   2.440   8.469  10.466  0.1758 -0.2769  0.1128
  470loPI   C2A 7512   2.580   8.253  10.044 -0.4039 -0.3784  0.0551
  470loPI   C3A 7513   2.591   8.288   9.589  0.2113 -0.1542  0.0960
  470loPI   C4A 7514   2.578   8.378   9.162  0.1667 -0.0601 -0.3777
  470loPI   C5A 7515   2.590   8.564   8.839  0.2785  0.2408 -0.1789
  470loPI   C6A 7516   2.342   8.782   8.468 -0.1286  0.1794 -0.2724
  470loPI   C1B 7517   2.930   8.560  10.244  0.0886  0.1414 -0.0158
  470loPI   C2B 7518   2.952   8.574   9.774  0.1223 -0.0517 -0.2060
  470loPI   C3B 7519   3.022   8.535   9.411 -0.1837  0.0071  0.3531
  470loPI   C4B 7520   3.058   8.703   8.904  0.1889 -0.1008 -0.2913
  471loPI    C1 7521  15.127   1.506  11.309 -0.2925  0.0355  0.0949
  471loPI    C2 7522  15.363   1.583  11.623  0.2437 -0.2191 -0.2297
  471loPI    C3 7523  15.082   1.300  11.649  0.0986 -0.0506  0.1001
  471loPI   PO4 7524  15.305   1.487  11.098  0.1730  0.0173  0.0513
  471loPI   GL1 7525  15.473   1.691  10.795  0.2529 -0.2015  0.0912
  471loPI   GL2 7526  15.189   1.646  10.630  0.0680 -0.4418  0.1061
  471loPI   C1A 7527  15.687   1.893  10.424  0.0064  0.0686 -0.1276
  471loPI   C2A 7528  15.776   1.825  10.046 -0.0482 -0.0599 -0.2046
  471loPI   C3A 7529  15.735   1.659   9.601  0.1650 -0.0324  0.0292
  471loPI   C4A 7530  15.779   1.654   9.153  0.0270 -0.1336  0.3526
  471loPI   C5A 7531  15.763   1.585   8.724  0.1521 -0.1346 -0.0333
  471loPI   C6A 7532  15.539   1.458   8.364  0.0715  0.4159 -0.1624
  471loPI   C1B 7533  15.269   1.679  10.137 -0.0927  0.1803  0.1297
  471loPI   C2B 7534  15.154   1.525   9.801  0.2023  0.1041  0.2698
  471loPI   C3B 7535  15.257   1.539   9.345  0.1021 -0.2397  0.2170
  471loPI   C4B 7536  15.366   1.406   8.966  0.2524 -0.0488  0.3319
  472loPI    C1 7537  16.482   7.298  11.174  0.0750 -0.0842  0.1486
  472loPI    C2 7538  16.781   7.446  11.394 -0.0037  0.0348  0.1765
  472loPI    C3 7539  16.403   7.485  11.518 -0.0574  0.1992 -0.0324
  472loPI   PO4 7540  16.474   7.035  11.127  0.2807 -0.1146 -0.1440
  472loPI   GL1 7541  16.222   7.071  10.741  0.1059  0.4637  0.0466
  472loPI   GL2 7542  16.204   7.469  10.756 -0.0905 -0.0211  0.2212
  472loPI   C1A 7543  16.147   7.080  10.314  0.3167 -0.3058 -0.1248
  472loPI   C2A 7544  16.023   7.137   9.850 -0.1339  0.3845  0.0211
  472loPI   C3A 7545  15.982   6.955   9.466  0.0558  0.2364  0.1638
  472loPI   C4A 7546  16.015   6.583   9.202  0.3940  0.2301 -0.1113
  472loPI   C5A 7547  15.758   6.206   8.958  0.4169  0.1184  0.0677
  472loPI   C6A 7548  15.723   5.788   8.923 -0.1490  0.0725  0.2725
  472loPI   C1B 7549  16.220   7.591  10.388  0.1178 -0.3441  0.0128
  472loPI   C2B 7550  16.146   7.609  10.007  0.1636  0.3156  0.1930
  472loPI   C3B 7551  16.096   7.468   9.530  0.2043  0.0783 -0.0797
  472loPI   C4B 7552  15.975   7.300   9.107  0.1434 -0.1534  0.0758
  473loPI    C1 7553  15.523  16.252  11.221 -0.0815  0.0935 -0.0653
  473loPI    C2 7554  15.544  15.949  11.482 -0.1270 -0.0095 -0.1801
  473loPI    C3 7555  15.645  16.319  11.596 -0.2273 -0.0385  0.0071
  473loPI   PO4 7556  15.529  16.051  10.965  0.3044 -0.2070 -0.0659
  473loPI   GL1 7557  15.203  15.942  10.751  0.1366 -0.1667 -0.1455
  473loPI   GL2 7558  15.006  16.267  10.598  0.1720  0.1082 -0.1461
  473loPI   C1A 7559  15.399  15.890  10.359 -0.3839 -0.1636  0.0841
  473loPI   C2A 7560  15.369  15.894   9.999 -0.0930  0.0332  0.2159
  473loPI   C3A 7561  15.345  15.916   9.633 -0.2594  0.0880 -0.1256
  473loPI   C4A 7562  15.469  15.922   9.333 -0.2373  0.1369  0.0001
  473loPI   C5A 7563  15.578  15.852   8.950  0.5686  0.0173  0.0437
  473loPI   C6A 7564  15.765  15.622   8.627 -0.3560  0.3747 -0.0213
  473loPI   C1B 7565  15.080  16.243  10.177 -0.0069  0.3875  0.2677
  473loPI   C2B 7566  15.048  16.293   9.729 -0.0317 -0.1731 -0.2858
  473loPI   C3B 7567  15.072  16.325   9.331 -0.0938 -0.0327  0.0376
  473loPI   C4B 7568  14.928  16.408   8.878  0.1645 -0.1281  0.1621
  474loPI    C1 7569   7.952  16.335  11.796 -0.0212 -0.1095  0.2299
  474loPI    C2 7570   7.931  16.734  11.768 -0.2290 -0.1395 -0.1069
  474loPI    C3 7571   7.882  16.555  12.123 -0.0271  0.1380  0.0652
  474loPI   PO4 7572   8.197  16.324  11.495  0.2641 -0.0588  0.1861
  474loPI   GL1 7573   8.280  16.474  11.073  0.0063 -0.0661  0.1816
  474loPI   GL2 7574   8.056  16.180  11.000  0.2522  0.0978 -0.1789
  474loPI   C1A 7575   8.158  16.767  10.756  0.1476  0.0322 -0.4654
  474loPI   C2A 7576   8.211  16.699  10.281 -0.0522  0.0245 -0.0576
  474loPI   C3A 7577   8.182  16.619   9.851 -0.2384 -0.1734  0.0540
  474loPI   C4A 7578   8.371  16.697   9.416  0.1464  0.0001 -0.0890
  474loPI   C5A 7579   8.689  16.720   9.152  0.1170 -0.0171  0.1705
  474loPI   C6A 7580   9.021  16.507   8.896  0.1742  0.0267  0.1523
  474loPI   C1B 7581   8.104  16.285  10.612  0.4281 -0.2597 -0.3096
  474loPI   C2B 7582   8.019  16.248  10.106  0.1954 -0.1654 -0.0754
  474loPI   C3B 7583   8.069  16.143   9.715  0.2823 -0.0327  0.3122
  474loPI   C4B 7584   8.140  16.069   9.307 -0.2671  0.0881 -0.1499
  475loPI    C1 7585  16.409  11.756  11.713 -0.1966  0.2492 -0.0885
  475loPI    C2 7586  16.263  11.455  11.933  0.1286 -0.0251 -0.2382
  475loPI    C3 7587  16.535  11.704  12.089  0.0387  0.0458 -0.1929
  475loPI   PO4 7588  16.462  11.723  11.537  0.0047 -0.0379  0.0199
  475loPI   GL1 7589  16.472  11.723  11.116 -0.1313  0.1223  0.0925
  475loPI   GL2 7590  16.623  11.768  10.823  0.1999 -0.1295  0.2386
  475loPI   C1A 7591  16.269  11.498  10.688  0.0346 -0.3552 -0.1861
  475loPI   C2A 7592  16.191  11.457  10.242  0.3735 -0.2178 -0.3618
  475loPI   C3A 7593  16.250  11.509   9.808 -0.1934 -0.1509  0.0085
  475loPI   C4A 7594  16.279  11.505   9.405 -0.0151  0.3041 -0.6499
  475loPI   C5A 7595  16.264  11.595   8.957 -0.1137  0.2291 -0.0487
  475loPI   C6A 7596  16.102  11.726   8.621 -0.2477  0.2823 -0.2947
  475loPI   C1B 7597  16.678  11.648  10.423 -0.0946 -0.0691 -0.0031
  475loPI   C2B 7598  16.721  11.644  10.006 -0.1437  0.2193  0.0851
  475loPI   C3B 7599  16.736  11.641   9.580 -0.0968 -0.0518  0.0610
  475loPI   C4B 7600  16.814  11.669   9.086  0.2555  0.3464  0.0136
  476loPI    C1 7601   2.616   0.633  11.323 -0.2468 -0.0417 -0.0481
  476loPI    C2 7602   2.366   0.945  11.344 -0.0278  0.1209  0.2079
  476loPI    C3 7603   2.526   0.794  11.678  0.1665 -0.0216  0.0528
  476loPI   PO4 7604   2.615   0.561  11.121  0.0184  0.0103  0.0779
  476loPI   GL1 7605   2.382   0.789  10.897 -0.0464 -0.1279  0.0905
  476loPI   GL2 7606   2.555   1.023  10.816 -0.1163  0.0627 -0.3134
  476loPI   C1A 7607   2.517   0.677  10.487  0.4502  0.3096  0.1213
  476loPI   C2A 7608   2.564   0.699  10.099  0.0719  0.0752 -0.1633
  476loPI   C3A 7609   2.556   0.688   9.697 -0.1092  0.1260 -0.0809
  476loPI   C4A 7610   2.729   0.733   9.271 -0.2501  0.0413  0.0208
  476loPI   C5A 7611   2.841   0.710   8.819 -0.4241  0.1244  0.1331
  476loPI   C6A 7612   2.754   0.412   8.517  0.2623  0.1975  0.2507
  476loPI   C1B 7613   2.590   1.163  10.349  0.1372 -0.0279  0.0944
  476loPI   C2B 7614   2.712   1.232   9.954  0.1257 -0.0702  0.0435
  476loPI   C3B 7615   2.731   1.209   9.532 -0.2345  0.1321 -0.0596
  476loPI   C4B 7616   2.797   1.158   9.123 -0.0937 -0.2416 -0.1886
  477loPI    C1 7617   1.068  13.979  11.628  0.2094  0.0937  0.0131
  477loPI    C2 7618   1.269  13.653  11.741 -0.1858 -0.0676  0.2732
  477loPI    C3 7619   1.013  13.828  11.994 -0.2566  0.2262  0.0044
  477loPI   PO4 7620   1.188  14.040  11.402  0.1898  0.0622  0.2108
  477loPI   GL1 7621   1.059  13.978  10.973 -0.0059  0.0070  0.4679
  477loPI   GL2 7622   1.317  13.698  10.949  0.0016 -0.0680  0.0741
  477loPI   C1A 7623   0.977  14.141  10.604  0.0795 -0.0618  0.2208
  477loPI   C2A 7624   1.039  14.113  10.150  0.0952  0.1769  0.0336
  477loPI   C3A 7625   1.038  14.037   9.740  0.2548 -0.1319  0.1843
  477loPI   C4A 7626   1.109  14.092   9.345 -0.1377 -0.0281 -0.1381
  477loPI   C5A 7627   1.173  13.870   8.974 -0.2055  0.2496 -0.2571
  477loPI   C6A 7628   1.534  13.766   8.798 -0.0519  0.0329 -0.0734
  477loPI   C1B 7629   1.338  13.859  10.487  0.1111  0.0173  0.2752
  477loPI   C2B 7630   1.422  13.747  10.195 -0.0377 -0.0481 -0.1689
  477loPI   C3B 7631   1.490  13.692   9.850  0.0218  0.1038  0.2102
  477loPI   C4B 7632   1.489  13.742   9.334  0.0523 -0.2375  0.0300
  478loPI    C1 7633  14.722  12.960  11.624  0.2697 -0.0245  0.1115
  478loPI    C2 7634  14.616  13.017  12.005  0.1022  0.1014  0.0473
  478loPI    C3 7635  14.931  13.211  11.854  0.0990  0.1400  0.0900
  478loPI   PO4 7636  14.472  12.941  11.490 -0.0789 -0.1803 -0.0624
  478loPI   GL1 7637  14.289  13.179  11.124  0.1105  0.0963  0.2413
  478loPI   GL2 7638  13.923  13.104  11.094 -0.1297  0.0008 -0.1326
  478loPI   C1A 7639  14.268  13.293  10.706  0.1146 -0.0303 -0.0062
  478loPI   C2A 7640  14.299  13.246  10.305 -0.2851  0.0854  0.2591
  478loPI   C3A 7641  14.352  13.224   9.959 -0.2039  0.0306 -0.2716
  478loPI   C4A 7642  14.311  13.239   9.551  0.2871  0.2455 -0.1144
  478loPI   C5A 7643  14.270  13.166   9.057 -0.1269 -0.1776  0.1408
  478loPI   C6A 7644  14.142  12.952   8.610  0.3047 -0.1080  0.2291
  478loPI   C1B 7645  13.729  13.176  10.676  0.1055 -0.1310 -0.3181
  478loPI   C2B 7646  13.824  13.038  10.357 -0.0720  0.3197  0.0095
  478loPI   C3B 7647  13.877  12.985   9.900 -0.0446  0.1646  0.2535
  478loPI   C4B 7648  13.736  13.188   9.573  0.2477 -0.1028 -0.1263
  479loPI    C1 7649   7.559  14.986  11.271 -0.1145  0.0387 -0.2055
  479loPI    C2 7650   7.555  14.687  11.005 -0.0640 -0.0428 -0.1152
  479loPI    C3 7651   7.605  14.608  11.394 -0.0323  0.0848 -0.0930
  479loPI   PO4 7652   7.712  15.144  11.144  0.0336 -0.0693  0.2162
  479loPI   GL1 7653   7.983  15.064  10.894  0.0903 -0.1329  0.1197
  479loPI   GL2 7654   8.258  15.236  10.772  0.0838  0.0127  0.2466
  479loPI   C1A 7655   7.859  15.124  10.450  0.2220  0.0012 -0.2291
  479loPI   C2A 7656   7.798  15.169  10.004  0.0393 -0.0220  0.2006
  479loPI   C3A 7657   7.848  15.164   9.510 -0.2769  0.1017 -0.2548
  479loPI   C4A 7658   7.772  15.134   9.049 -0.1274 -0.1324 -0.0829
  479loPI   C5A 7659   7.880  15.073   8.773  0.0893  0.0979  0.6258
  479loPI   C6A 7660   8.354  14.907   8.641  0.1842 -0.1296  0.2290
  479loPI   C1B 7661   8.349  15.278  10.425 -0.1457 -0.3733  0.2345
  479loPI   C2B 7662   8.305  15.327  10.042  0.1065  0.6099 -0.5104
  479loPI   C3B 7663   8.318  15.336   9.591  0.2133  0.0425 -0.0221
  479loPI   C4B 7664   8.297  15.207   9.195  0.2017  0.4060 -0.4700
  480loPI    C1 7665  11.886   9.323  11.853  0.0051 -0.0653  0.2649
  480loPI    C2 7666  11.642   9.436  12.148 -0.0600 -0.0071  0.1895
  480loPI    C3 7667  11.504   9.205  11.852 -0.1190  0.3132 -0.0390
  480loPI   PO4 7668  11.974   9.480  11.691  0.3852 -0.0496 -0.1208
  480loPI   GL1 7669  11.964   9.516  11.308 -0.0510 -0.3015 -0.1171
  480loPI   GL2 7670  11.825   9.873  11.255 -0.1937  0.1712 -0.1417
  480loPI   C1A 7671  11.960   9.559  10.938 -0.2067  0.0086 -0.0739
  480loPI   C2A 7672  11.927   9.700  10.477  0.0887  0.1043  0.0511
  480loPI   C3A 7673  12.071   9.725  10.091 -0.3764 -0.1873  0.4283
  480loPI   C4A 7674  12.123   9.818   9.723 -0.1476 -0.1472 -0.2149
  480loPI   C5A 7675  11.990   9.859   9.429 -0.4220 -0.0856  0.1509
  480loPI   C6A 7676  11.743  10.153   9.183  0.0615 -0.2410 -0.4539
  480loPI   C1B 7677  11.637   9.936  10.815 -0.3751 -0.1803  0.0182
  480loPI   C2B 7678  11.591  10.052  10.464  0.2470  0.1202 -0.0599
  480loPI   C3B 7679  11.692  10.048  10.013 -0.2018  0.1581 -0.1175
  480loPI   C4B 7680  11.569  10.079   9.628  0.0960 -0.0204 -0.0060
  481loPI    C1 7681   1.833   7.251  11.275  0.0781  0.0264 -0.0540
  481loPI    C2 7682   1.459   7.315  11.402  0.0371  0.1242 -0.2209
  481loPI    C3 7683   1.740   7.194  11.660 -0.0972  0.1003 -0.0844
  481loPI   PO4 7684   1.842   7.369  11.109  0.0414 -0.1396 -0.3252
  481loPI   GL1 7685   1.986   7.242  10.743  0.1491  0.0117  0.1417
  481loPI   GL2 7686   1.683   7.175  10.658 -0.1707 -0.0900 -0.3229
  481loPI   C1A 7687   2.252   7.152  10.333 -0.0954  0.1670  0.0319
  481loPI   C2A 7688   2.512   6.874  10.094  0.1501 -0.0275 -0.0006
  481loPI   C3A 7689   2.333   6.619   9.807  0.0181  0.2200  0.0124
  481loPI   C4A 7690   2.190   6.496   9.401 -0.2923  0.0847  0.2985
  481loPI   C5A 7691   2.052   6.519   8.913 -0.0643  0.0157 -0.4309
  481loPI   C6A 7692   1.877   6.786   8.471  0.0652 -0.0102 -0.4699
  481loPI   C1B 7693   1.666   7.106  10.245  0.1250  0.0716  0.1031
  481loPI   C2B 7694   1.600   7.307   9.797 -0.0503 -0.2483 -0.0882
  481loPI   C3B 7695   1.922   7.337   9.487 -0.0793  0.0160 -0.0917
  481loPI   C4B 7696   2.004   7.598   9.043 -0.0081  0.1673  0.0572
  482loPI    C1 7697  14.786  10.060  11.364  0.4943  0.0533  0.0179
  482loPI    C2 7698  14.501  10.039  11.644  0.2986  0.0327 -0.1799
  482loPI    C3 7699  14.859   9.874  11.710  0.3036  0.1548  0.1145
  482loPI   PO4 7700  14.699  10.015  11.166 -0.0990  0.4075 -0.0440
  482loPI   GL1 7701  14.604  10.159  10.808 -0.1035 -0.1654 -0.2059
  482loPI   GL2 7702  14.879  10.204  10.640 -0.0089  0.0112  0.1357
  482loPI   C1A 7703  14.312  10.058  10.531 -0.3517  0.1610  0.1125
  482loPI   C2A 7704  14.273   9.913  10.127  0.0656 -0.1371  0.2179
  482loPI   C3A 7705  14.291   9.964   9.717  0.0192 -0.1244 -0.3904
  482loPI   C4A 7706  14.399   9.975   9.316 -0.1504 -0.0971  0.1001
  482loPI   C5A 7707  14.253  10.126   8.937  0.2838  0.2514 -0.1225
  482loPI   C6A 7708  14.242   9.958   8.491 -0.0512  0.0039 -0.2176
  482loPI   C1B 7709  15.047  10.149  10.281 -0.0677  0.0220  0.1456
  482loPI   C2B 7710  15.005  10.170   9.805  0.2949  0.2826  0.0825
  482loPI   C3B 7711  14.904  10.124   9.370  0.1351  0.0969  0.1697
  482loPI   C4B 7712  14.760  10.040   8.994 -0.1179 -0.0364  0.2480
  483loPI    C1 7713   9.882   4.298  11.582  0.1605  0.0012  0.0126
  483loPI    C2 7714  10.031   3.959  11.735  0.0670  0.1510  0.4504
  483loPI    C3 7715   9.725   4.143  11.915 -0.3030  0.1372 -0.1350
  483loPI   PO4 7716  10.055   4.382  11.496 -0.0208 -0.2477 -0.1186
  483loPI   GL1 7717  10.381   4.374  11.115  0.1867  0.1313  0.1018
  483loPI   GL2 7718  10.573   4.071  11.010  0.1324 -0.2745 -0.0193
  483loPI   C1A 7719  10.395   4.430  10.646  0.2463  0.3644  0.3651
  483loPI   C2A 7720  10.334   4.510  10.253 -0.2155 -0.3804  0.0806
  483loPI   C3A 7721  10.308   4.509   9.749  0.2016 -0.1720 -0.1064
  483loPI   C4A 7722  10.376   4.653   9.322  0.4101 -0.1190 -0.0213
  483loPI   C5A 7723  10.558   4.519   8.926  0.0313  0.1054  0.1971
  483loPI   C6A 7724  10.800   4.243   8.906  0.0605 -0.3442  0.1308
  483loPI   C1B 7725  10.720   4.025  10.578 -0.2149 -0.1620 -0.2195
  483loPI   C2B 7726  10.759   4.052  10.111  0.0976  0.1893  0.1073
  483loPI   C3B 7727  10.764   4.170   9.797 -0.1426  0.2322 -0.0045
  483loPI   C4B 7728  10.810   4.170   9.425  0.1822 -0.2924 -0.2852
  484loPI    C1 7729   2.291   5.926  11.044  0.0265 -0.0683  0.0126
  484loPI    C2 7730   1.959   5.956  11.264  0.0205 -0.1442  0.0140
  484loPI    C3 7731   2.316   6.016  11.433 -0.0193  0.5169 -0.1111
  484loPI   PO4 7732   2.254   5.993  10.853  0.1825  0.0499  0.0055
  484loPI   GL1 7733   2.034   6.095  10.511  0.0655 -0.2677 -0.0430
  484loPI   GL2 7734   1.794   6.255  10.469 -0.1931 -0.1000 -0.2544
  484loPI   C1A 7735   2.192   6.286  10.188 -0.2311 -0.0902  0.0321
  484loPI   C2A 7736   2.339   6.131   9.778  0.1186  0.0555  0.1438
  484loPI   C3A 7737   2.255   5.827   9.361 -0.3160 -0.1732  0.0974
  484loPI   C4A 7738   2.295   5.768   8.904  0.2511  0.3685 -0.2329
  484loPI   C5A 7739   2.074   5.801   8.517 -0.2475 -0.0415  0.1031
  484loPI   C6A 7740   1.870   5.452   8.377 -0.0050  0.1063 -0.2557
  484loPI   C1B 7741   1.739   6.099  10.044 -0.0784 -0.0662 -0.0864
  484loPI   C2B 7742   1.845   6.110   9.581 -0.3142 -0.0078  0.1089
  484loPI   C3B 7743   1.863   6.063   9.076 -0.2606  0.2357  0.3254
  484loPI   C4B 7744   1.756   6.172   8.701  0.0175 -0.2320  0.0992
  485loPI    C1 7745   9.830   7.776  11.737 -0.1923  0.0427  0.0772
  485loPI    C2 7746   9.889   8.034  11.437  0.0639 -0.0910  0.0099
  485loPI    C3 7747   9.972   8.142  11.812  0.0465 -0.0317 -0.0033
  485loPI   PO4 7748   9.922   7.589  11.581  0.1836 -0.1695  0.1180
  485loPI   GL1 7749  10.054   7.560  11.184 -0.0489  0.0043 -0.1820
  485loPI   GL2 7750   9.748   7.328  11.165  0.0177  0.1299 -0.1069
  485loPI   C1A 7751  10.081   7.680  10.657  0.1075  0.1812  0.1289
  485loPI   C2A 7752  10.217   7.737  10.273 -0.2627  0.1825 -0.0543
  485loPI   C3A 7753  10.214   7.802   9.902  0.0735  0.2596  0.1138
  485loPI   C4A 7754  10.287   7.806   9.485  0.2148 -0.1945  0.1332
  485loPI   C5A 7755  10.189   7.793   9.088 -0.0535  0.2098 -0.0716
  485loPI   C6A 7756  10.000   7.867   8.813  0.1700  0.1338 -0.0123
  485loPI   C1B 7757   9.641   7.512  10.834  0.3761 -0.0863 -0.2016
  485loPI   C2B 7758   9.662   7.532  10.459 -0.0721  0.0537  0.1974
  485loPI   C3B 7759   9.667   7.598   9.996 -0.0618 -0.2430  0.0541
  485loPI   C4B 7760   9.706   7.712   9.545  0.0988 -0.2887  0.0062
  486loPI    C1 7761  13.994   5.145  11.442 -0.2045 -0.0635 -0.0259
  486loPI    C2 7762  13.869   5.043  11.808  0.1323 -0.0641  0.0917
  486loPI    C3 7763  13.987   5.418  11.734 -0.2317  0.0162 -0.1007
  486loPI   PO4 7764  13.975   4.854  11.250 -0.0604  0.1402  0.1429
  486loPI   GL1 7765  13.737   4.769  10.941  0.1502  0.0892  0.1488
  486loPI   GL2 7766  13.771   5.207  10.898  0.4042  0.0422  0.1594
  486loPI   C1A 7767  13.912   4.813  10.530  0.1253 -0.0370 -0.0019
  486loPI   C2A 7768  13.918   5.030  10.200  0.0445  0.2635  0.1403
  486loPI   C3A 7769  13.800   5.096   9.763  0.3302 -0.1813 -0.0101
  486loPI   C4A 7770  13.822   4.852   9.386 -0.3444  0.1616 -0.1609
  486loPI   C5A 7771  14.185   5.034   9.028  0.1124 -0.1950  0.1520
  486loPI   C6A 7772  14.223   5.478   9.022 -0.1047 -0.2627  0.0487
  486loPI   C1B 7773  13.787   5.465  10.507  0.3739  0.0466 -0.1879
  486loPI   C2B 7774  13.856   5.513  10.016 -0.1345 -0.3220  0.0093
  486loPI   C3B 7775  13.798   5.713   9.552  0.2025  0.0047 -0.4138
  486loPI   C4B 7776  13.812   5.329   9.326  0.0827  0.1188  0.2064
  487loPI    C1 7777  15.126   0.566  11.554 -0.2535  0.0540  0.0423
  487loPI    C2 7778  15.048   0.564  11.946 -0.1547  0.1826  0.0634
  487loPI    C3 7779  15.242   0.873  11.782 -0.0049  0.0307 -0.0493
  487loPI   PO4 7780  14.966   0.365  11.474 -0.1860 -0.1129 -0.1315
  487loPI   GL1 7781  14.875   0.424  11.054 -0.4347  0.3576  0.0634
  487loPI   GL2 7782  14.868   0.709  10.789 -0.1974 -0.0096 -0.1146
  487loPI   C1A 7783  14.888   0.145  10.636 -0.1241  0.0106 -0.5098
  487loPI   C2A 7784  14.856   0.064  10.141 -0.2839 -0.1305  0.0204
  487loPI   C3A 7785  14.865   0.024   9.746 -0.0086 -0.0490 -0.0048
  487loPI   C4A 7786  14.923   0.064   9.341 -0.0738 -0.1405 -0.4804
  487loPI   C5A 7787  14.806   0.204   8.878  0.1258 -0.3278  0.1633
  487loPI   C6A 7788  14.983   0.450   8.578  0.0329 -0.2727  0.2629
  487loPI   C1B 7789  14.929   0.588  10.336 -0.3235  0.0763  0.2589
  487loPI   C2B 7790  14.985   0.571  10.021 -0.0718 -0.0293  0.2880
  487loPI   C3B 7791  15.004   0.475   9.603 -0.0495 -0.2574 -0.0749
  487loPI   C4B 7792  15.070   0.556   9.261  0.2199 -0.0408  0.0592
  488loPI    C1 7793  11.135   5.718  11.719  0.0426  0.0656 -0.0522
  488loPI    C2 7794  11.136   5.548  12.081  0.1088 -0.1211 -0.1389
  488loPI    C3 7795  11.354   5.876  12.013 -0.1676  0.1136  0.0812
  488loPI   PO4 7796  11.141   5.578  11.587 -0.0532 -0.1634  0.1318
  488loPI   GL1 7797  11.353   5.584  11.274 -0.0942  0.2166  0.2120
  488loPI   GL2 7798  11.596   5.748  11.179 -0.0248 -0.1201  0.0233
  488loPI   C1A 7799  11.216   5.571  10.887 -0.0223  0.1130  0.4976
  488loPI   C2A 7800  11.054   5.714  10.438 -0.0058  0.1168 -0.1681
  488loPI   C3A 7801  10.988   5.757   9.997  0.2215 -0.1830 -0.1860
  488loPI   C4A 7802  11.116   5.785   9.533  0.0694 -0.2349  0.0597
  488loPI   C5A 7803  11.054   5.796   9.160  0.2413 -0.1149  0.1539
  488loPI   C6A 7804  10.848   5.932   8.799 -0.1728  0.4197  0.0959
  488loPI   C1B 7805  11.666   5.756  10.757  0.1767 -0.1697 -0.2844
  488loPI   C2B 7806  11.552   5.866  10.394 -0.1687 -0.1166 -0.0315
  488loPI   C3B 7807  11.538   5.815   9.967 -0.1582  0.2986  0.0704
  488loPI   C4B 7808  11.619   5.884   9.490  0.0675  0.1604  0.1095
  489loPI    C1 7809   3.964  13.430  11.579 -0.0469  0.2235 -0.0262
  489loPI    C2 7810   4.203  13.641  11.821  0.0109  0.1350 -0.0057
  489loPI    C3 7811   3.827  13.761  11.758  0.0652  0.2839 -0.0510
  489loPI   PO4 7812   4.105  13.389  11.434  0.0161  0.0958 -0.0455
  489loPI   GL1 7813   4.057  13.463  10.975  0.0234  0.4687 -0.3556
  489loPI   GL2 7814   4.381  13.566  10.948 -0.1426 -0.1647  0.0155
  489loPI   C1A 7815   3.804  13.416  10.651  0.0547 -0.1992  0.0670
  489loPI   C2A 7816   3.776  13.463  10.216  0.1848 -0.0645  0.0568
  489loPI   C3A 7817   3.774  13.451   9.782  0.0777  0.0524 -0.2457
  489loPI   C4A 7818   3.720  13.564   9.365 -0.2792 -0.3410 -0.1973
  489loPI   C5A 7819   3.522  13.720   8.993  0.2024  0.2746  0.0221
  489loPI   C6A 7820   3.304  13.616   8.646 -0.1449 -0.1658  0.1476
  489loPI   C1B 7821   4.246  13.594  10.503 -0.0546  0.1355 -0.0371
  489loPI   C2B 7822   4.279  13.578  10.044 -0.0446 -0.0804 -0.2071
  489loPI   C3B 7823   4.256  13.641   9.632 -0.1405 -0.0461  0.1344
  489loPI   C4B 7824   4.193  13.663   9.205 -0.0872  0.1849 -0.1245
  490loPI    C1 7825  17.591   6.941  11.246  0.1817  0.2031  0.1327
  490loPI    C2 7826  17.377   6.975  11.582  0.2738 -0.0875  0.2234
  490loPI    C3 7827  17.551   6.627  11.489 -0.0779 -0.1295 -0.3242
  490loPI   PO4 7828  17.445   6.963  11.056 -0.1634  0.3710  0.1904
  490loPI   GL1 7829  17.518   7.011  10.590 -0.1517  0.1079  0.0576
  490loPI   GL2 7830  17.710   7.047  10.371 -0.1613  0.1087 -0.3697
  490loPI   C1A 7831  17.456   6.578  10.400  0.1341 -0.2181  0.0323
  490loPI   C2A 7832  17.313   6.501   9.967 -0.1215  0.0242 -0.0140
  490loPI   C3A 7833  17.474   6.523   9.616 -0.2551 -0.1709 -0.0303
  490loPI   C4A 7834  17.479   6.420   9.180 -0.1150 -0.2902 -0.3338
  490loPI   C5A 7835  17.762   6.534   8.845  0.1699 -0.0362  0.0318
  490loPI   C6A 7836  17.917   6.935   8.857 -0.1691 -0.0241  0.1661
  490loPI   C1B 7837  17.585   6.902   9.983 -0.0727  0.2701 -0.0365
  490loPI   C2B 7838  17.403   7.000   9.516 -0.1923 -0.1200  0.1052
  490loPI   C3B 7839  17.485   6.939   9.086  0.2014 -0.3081  0.2100
  490loPI   C4B 7840  17.582   7.266   8.771  0.0271  0.0484  0.0977
  491loPI    C1 7841   8.974   3.850  11.741 -0.2857 -0.0877 -0.0034
  491loPI    C2 7842   8.996   3.481  11.893 -0.2651 -0.0953 -0.0246
  491loPI    C3 7843   8.880   3.786  12.125  0.2363 -0.0239  0.1433
  491loPI   PO4 7844   9.146   3.819  11.558  0.0356  0.1727  0.2236
  491loPI   GL1 7845   9.109   3.930  11.199 -0.0452 -0.0280  0.2984
  491loPI   GL2 7846   9.350   3.701  11.012  0.3120  0.4001 -0.1209
  491loPI   C1A 7847   8.952   4.029  10.776  0.0330 -0.0578  0.1601
  491loPI   C2A 7848   8.919   4.079  10.368  0.0467  0.1655 -0.1010
  491loPI   C3A 7849   8.902   4.107   9.964  0.2243  0.0472 -0.0785
  491loPI   C4A 7850   8.875   4.068   9.610  0.1526  0.0504 -0.1248
  491loPI   C5A 7851   8.896   4.058   9.145 -0.1765  0.1069  0.1025
  491loPI   C6A 7852   8.751   3.667   8.929 -0.1501  0.0381  0.0230
  491loPI   C1B 7853   9.303   3.703  10.509 -0.2964 -0.2655  0.3172
  491loPI   C2B 7854   9.269   3.754  10.074  0.1405  0.3352 -0.0844
  491loPI   C3B 7855   9.269   3.743   9.594  0.3249 -0.0756  0.0915
  491loPI   C4B 7856   9.249   3.642   9.227  0.2373  0.0880  0.0657
  492loPI    C1 7857   7.242  11.587  11.671  0.3193 -0.0203  0.0232
  492loPI    C2 7858   7.135  11.394  12.004 -0.0543 -0.2644 -0.2295
  492loPI    C3 7859   6.902  11.684  11.858  0.2515  0.0394 -0.1290
  492loPI   PO4 7860   7.268  11.402  11.500  0.1975 -0.1395  0.2747
  492loPI   GL1 7861   7.248  11.236  11.110 -0.1956 -0.0149 -0.1846
  492loPI   GL2 7862   7.402  10.927  11.059  0.2406  0.0370  0.0846
  492loPI   C1A 7863   7.260  11.252  10.698 -0.2826 -0.0121  0.0235
  492loPI   C2A 7864   7.281  11.128  10.245 -0.2922 -0.0274  0.0998
  492loPI   C3A 7865   7.260  11.099   9.801 -0.3160  0.2111 -0.0480
  492loPI   C4A 7866   7.358  11.155   9.378  0.2137  0.0970 -0.0374
  492loPI   C5A 7867   7.434  11.050   8.979  0.0931  0.1103  0.2339
  492loPI   C6A 7868   7.549  10.865   8.601 -0.1075 -0.1565 -0.3168
  492loPI   C1B 7869   7.613  10.877  10.642  0.5463 -0.1605  0.0492
  492loPI   C2B 7870   7.630  10.699  10.172  0.0075  0.2303 -0.0355
  492loPI   C3B 7871   7.673  10.834   9.734 -0.0334 -0.1552  0.0473
  492loPI   C4B 7872   7.787  10.766   9.273  0.0524 -0.3805  0.0920
  493loPI    C1 7873  11.749   2.282  11.812 -0.0430  0.2198  0.1065
  493loPI    C2 7874  11.451   2.526  11.919 -0.1468  0.0920  0.1109
  493loPI    C3 7875  11.400   2.130  11.933 -0.0500  0.0709 -0.0957
  493loPI   PO4 7876  11.835   2.316  11.596  0.1885 -0.1034 -0.0580
  493loPI   GL1 7877  11.827   2.207  11.245  0.4330  0.0965 -0.0297
  493loPI   GL2 7878  11.908   2.437  11.089 -0.2050 -0.1218  0.0563
  493loPI   C1A 7879  12.113   1.981  10.809 -0.0243 -0.0286  0.2658
  493loPI   C2A 7880  12.151   2.101  10.345 -0.0567  0.0134 -0.2024
  493loPI   C3A 7881  12.187   2.153   9.987  0.0265 -0.0869 -0.0618
  493loPI   C4A 7882  12.195   2.136   9.476  0.0523  0.1640  0.4431
  493loPI   C5A 7883  12.277   2.101   9.042 -0.3628 -0.0632 -0.1194
  493loPI   C6A 7884  12.172   2.218   8.669  0.1363  0.1522 -0.0194
  493loPI   C1B 7885  11.834   2.334  10.638 -0.0319 -0.1226  0.1045
  493loPI   C2B 7886  11.737   2.371  10.184 -0.0485 -0.2397  0.0327
  493loPI   C3B 7887  11.865   2.500   9.857  0.0228  0.1212 -0.0134
  493loPI   C4B 7888  11.907   2.573   9.381  0.0100  0.2764 -0.3182
  494loPI    C1 7889   1.330  13.219  11.531 -0.0958 -0.0666 -0.1382
  494loPI    C2 7890   1.210  12.886  11.345 -0.1988 -0.0759 -0.0561
  494loPI    C3 7891   1.125  12.940  11.732  0.1661 -0.1370  0.0368
  494loPI   PO4 7892   1.414  13.364  11.287 -0.0822 -0.1542 -0.0940
  494loPI   GL1 7893   1.731  13.420  11.036  0.0923 -0.0966 -0.0826
  494loPI   GL2 7894   2.016  13.385  10.949 -0.0217  0.1252 -0.1759
  494loPI   C1A 7895   1.704  13.395  10.508 -0.0292 -0.2283 -0.2229
  494loPI   C2A 7896   1.853  13.291  10.162  0.1417 -0.1461 -0.0029
  494loPI   C3A 7897   1.918  13.315   9.755 -0.1279 -0.1235  0.0586
  494loPI   C4A 7898   1.835  13.310   9.389 -0.1599 -0.0797 -0.0150
  494loPI   C5A 7899   1.513  13.312   9.057  0.1461  0.0383  0.1376
  494loPI   C6A 7900   1.449  13.197   8.682 -0.0746  0.1133 -0.1115
  494loPI   C1B 7901   2.153  13.532  10.543  0.0314  0.3029  0.0111
  494loPI   C2B 7902   2.290  13.572  10.149 -0.0315  0.1696  0.0825
  494loPI   C3B 7903   2.383  13.460   9.784 -0.2788 -0.1712 -0.4593
  494loPI   C4B 7904   2.280  13.501   9.391  0.1041 -0.0182 -0.0051
  495loPI    C1 7905  14.883   9.019  11.419  0.0101  0.1100  0.1427
  495loPI    C2 7906  15.254   9.165  11.454  0.0729 -0.0362  0.0948
  495loPI    C3 7907  14.958   9.316  11.675  0.1433  0.1403  0.0698
  495loPI   PO4 7908  14.804   9.013  11.135 -0.2030 -0.1024 -0.1865
  495loPI   GL1 7909  14.909   8.970  10.700  0.0602 -0.0286  0.0875
  495loPI   GL2 7910  15.017   9.267  10.728  0.4442 -0.1922 -0.2130
  495loPI   C1A 7911  14.773   9.106  10.279  0.1418  0.0076  0.2072
  495loPI   C2A 7912  14.716   9.139   9.783 -0.0088  0.1012 -0.0338
  495loPI   C3A 7913  14.593   9.031   9.367  0.1374 -0.1550  0.1523
  495loPI   C4A 7914  14.302   9.035   8.867 -0.0255  0.2359 -0.1232
  495loPI   C5A 7915  14.229   9.367   8.517  0.3542  0.1075 -0.1342
  495loPI   C6A 7916  14.319   9.560   8.153  0.1200 -0.1001 -0.0222
  495loPI   C1B 7917  15.307   9.277  10.417  0.2849  0.0426  0.2253
  495loPI   C2B 7918  15.303   9.308   9.945  0.1503  0.2399 -0.1863
  495loPI   C3B 7919  15.157   9.276   9.525  0.1402  0.0697  0.0371
  495loPI   C4B 7920  15.074   8.947   9.219 -0.3354 -0.2487  0.2465
  496loPI    C1 7921   7.465  16.501  11.725 -0.0771 -0.0504  0.0328
  496loPI    C2 7922   7.239  16.576  12.047 -0.0169  0.0759  0.0459
  496loPI    C3 7923   7.457  16.241  12.030 -0.0213  0.0681  0.1362
  496loPI   PO4 7924   7.341  16.518  11.516 -0.0090  0.3639 -0.0072
  496loPI   GL1 7925   7.314  16.393  11.108 -0.2788  0.3125 -0.4052
  496loPI   GL2 7926   7.058  16.631  10.997  0.3833  0.0094 -0.2423
  496loPI   C1A 7927   7.285  16.364  10.691  0.2025  0.0780  0.0886
  496loPI   C2A 7928   7.163  16.442  10.291 -0.2046 -0.0716  0.3625
  496loPI   C3A 7929   7.222  16.305   9.882  0.2280 -0.1032  0.1871
  496loPI   C4A 7930   7.284  16.337   9.391  0.0970  0.0400  0.0123
  496loPI   C5A 7931   7.128  16.365   8.967 -0.0142 -0.0604 -0.2955
  496loPI   C6A 7932   6.889  16.262   8.682 -0.0121  0.1017  0.1059
  496loPI   C1B 7933   6.803  16.715  10.547 -0.4172  0.1531 -0.2645
  496loPI   C2B 7934   6.833  16.805  10.116 -0.2988  0.0612  0.0208
  496loPI   C3B 7935   6.885  16.766   9.743 -0.0759  0.1087 -0.3218
  496loPI   C4B 7936   6.927  16.691   9.311  0.0738  0.0179 -0.1320
  497loPI    C1 7937  10.134   5.777  11.769 -0.0227 -0.0855  0.0111
  497loPI    C2 7938   9.846   6.012  11.917 -0.1508 -0.1618 -0.1141
  497loPI    C3 7939  10.028   5.745  12.153 -0.0059  0.0598  0.0284
  497loPI   PO4 7940  10.079   5.682  11.585 -0.0726 -0.1411  0.2167
  497loPI   GL1 7941   9.941   5.696  11.192 -0.1132  0.2252  0.2101
  497loPI   GL2 7942  10.306   5.849  11.165 -0.2515  0.0069  0.0027
  497loPI   C1A 7943   9.625   5.709  10.819  0.0352 -0.0354  0.0106
  497loPI   C2A 7944   9.723   5.722  10.407 -0.2347 -0.0289 -0.0523
  497loPI   C3A 7945   9.768   5.727   9.971 -0.0399  0.2443 -0.2301
  497loPI   C4A 7946   9.761   5.779   9.528 -0.2830  0.0081  0.2432
  497loPI   C5A 7947   9.698   5.801   9.081  0.0364 -0.1046 -0.0305
  497loPI   C6A 7948   9.344   5.810   8.711  0.0235 -0.0271 -0.0173
  497loPI   C1B 7949  10.183   5.783  10.700 -0.3510  0.1243 -0.0687
  497loPI   C2B 7950  10.162   5.928  10.175 -0.0176 -0.0712  0.2785
  497loPI   C3B 7951  10.170   5.929   9.701  0.0045 -0.0199  0.2440
  497loPI   C4B 7952  10.166   5.939   9.193 -0.2582  0.2010 -0.2144
  498loPI    C1 7953   2.942   8.055  11.367  0.0158  0.2561 -0.0324
  498loPI    C2 7954   2.876   7.937  11.743 -0.0536  0.1650 -0.0728
  498loPI    C3 7955   2.692   8.262  11.600 -0.0416  0.1890 -0.0343
  498loPI   PO4 7956   3.135   8.108  11.296  0.0919 -0.1298 -0.0189
  498loPI   GL1 7957   3.066   8.253  10.902  0.0263  0.1352 -0.0687
  498loPI   GL2 7958   3.476   8.130  10.943  0.2209  0.0913  0.1994
  498loPI   C1A 7959   3.227   8.263  10.543  0.0877  0.2394 -0.2337
  498loPI   C2A 7960   3.232   8.083  10.149 -0.1274  0.0399 -0.0731
  498loPI   C3A 7961   3.147   7.957   9.781  0.0043 -0.0778  0.4235
  498loPI   C4A 7962   2.981   7.964   9.370  0.3710 -0.2361 -0.3948
  498loPI   C5A 7963   3.006   8.225   8.996  0.1613 -0.0160 -0.0192
  498loPI   C6A 7964   2.734   8.022   8.653 -0.0345 -0.2088  0.1699
  498loPI   C1B 7965   3.692   8.230  10.555  0.0425  0.2709 -0.2412
  498loPI   C2B 7966   3.735   8.258  10.097  0.0756 -0.0771 -0.1398
  498loPI   C3B 7967   3.660   8.275   9.617  0.2960 -0.1104  0.2818
  498loPI   C4B 7968   3.655   8.235   9.170 -0.1036  0.2073 -0.1509
  499loPI    C1 7969   6.174  15.069  11.617  0.1010  0.0873 -0.0279
  499loPI    C2 7970   6.261  15.265  11.954  0.1438  0.0634 -0.0251
  499loPI    C3 7971   5.920  15.058  11.926  0.2269 -0.0883  0.0703
  499loPI   PO4 7972   6.262  15.257  11.405 -0.0976  0.0519 -0.1289
  499loPI   GL1 7973   6.364  15.388  10.955  0.1988  0.2163 -0.1464
  499loPI   GL2 7974   6.075  15.631  11.032  0.0040  0.1686 -0.0725
  499loPI   C1A 7975   6.421  15.176  10.557 -0.1853  0.1048 -0.2438
  499loPI   C2A 7976   6.494  15.200  10.120  0.3032 -0.0768  0.1520
  499loPI   C3A 7977   6.570  15.228   9.702 -0.2414  0.0005 -0.0110
  499loPI   C4A 7978   6.560  15.255   9.238 -0.0857 -0.1156  0.1336
  499loPI   C5A 7979   6.335  15.046   8.922  0.0191 -0.0259 -0.1782
  499loPI   C6A 7980   5.857  14.905   9.035  0.1102  0.1481  0.0061
  499loPI   C1B 7981   6.119  15.639  10.562 -0.1483 -0.2976 -0.3427
  499loPI   C2B 7982   6.080  15.540  10.121 -0.0121 -0.0644  0.5104
  499loPI   C3B 7983   6.142  15.527   9.747  0.2184  0.2355 -0.1880
  499loPI   C4B 7984   6.050  15.555   9.368  0.2982 -0.2253 -0.0345
  500loPI    C1 7985   4.304  11.557  11.517 -0.0682 -0.1706  0.0891
  500loPI    C2 7986   4.567  11.834  11.634 -0.2962  0.1631 -0.1675
  500loPI    C3 7987   4.230  11.778  11.843 -0.2081  0.0119 -0.0638
  500loPI   PO4 7988   4.521  11.336  11.472  0.0100 -0.1887 -0.0766
  500loPI   GL1 7989   4.655  11.290  11.152  0.1452 -0.0717  0.0452
  500loPI   GL2 7990   4.629  11.644  11.120 -0.0058 -0.1930 -0.1152
  500loPI   C1A 7991   4.568  11.220  10.793  0.3020  0.1310 -0.0411
  500loPI   C2A 7992   4.484  11.354  10.355  0.4506  0.3560  0.2717
  500loPI   C3A 7993   4.549  11.244   9.837 -0.1784  0.0491 -0.0250
  500loPI   C4A 7994   4.599  11.453   9.446  0.0134  0.2911  0.1465
  500loPI   C5A 7995   4.665  11.420   9.032  0.0605 -0.1502 -0.0217
  500loPI   C6A 7996   4.946  11.077   8.792 -0.2418  0.0018  0.0189
  500loPI   C1B 7997   4.675  11.748  10.700  0.3495 -0.0681  0.1866
  500loPI   C2B 7998   4.633  11.779  10.320 -0.1047 -0.4031  0.0517
  500loPI   C3B 7999   4.741  11.746   9.921  0.2240  0.2126  0.3224
  500loPI   C4B 8000   4.575  11.934   9.554  0.0014 -0.0585  0.1264
  501loPI    C1 8001  14.497   7.763  11.676  0.1162  0.2573 -0.0024
  501loPI    C2 8002  14.633   7.392  11.732  0.0591  0.2345 -0.0135
  501loPI    C3 8003  14.854   7.705  11.846  0.0135  0.1925  0.1946
  501loPI   PO4 8004  14.435   7.748  11.409 -0.0181  0.1917 -0.1219
  501loPI   GL1 8005  14.200   7.669  11.025 -0.0488 -0.2446 -0.0327
  501loPI   GL2 8006  13.917   7.937  10.867  0.2290  0.2134  0.0799
  501loPI   C1A 8007  14.254   7.551  10.642  0.0026 -0.0988 -0.1907
  501loPI   C2A 8008  14.286   7.600  10.194  0.1651 -0.1172  0.0039
  501loPI   C3A 8009  14.270   7.645   9.732 -0.0734 -0.1456 -0.3230
  501loPI   C4A 8010  14.218   7.624   9.246 -0.2748 -0.1869 -0.3060
  501loPI   C5A 8011  13.961   7.732   8.903  0.0331  0.1342  0.1657
  501loPI   C6A 8012  13.926   7.817   8.497 -0.0198  0.1341  0.1790
  501loPI   C1B 8013  13.937   7.972  10.436  0.0354  0.0375  0.1657
  501loPI   C2B 8014  13.916   8.050   9.958 -0.2554  0.0447 -0.2324
  501loPI   C3B 8015  13.759   7.988   9.566 -0.1438 -0.1035 -0.0133
  501loPI   C4B 8016  13.520   8.034   9.091  0.0726  0.0360  0.1515
  502loPI    C1 8017   0.449  11.013  11.638  0.0638  0.1207 -0.0289
  502loPI    C2 8018   0.638  10.699  11.798 -0.0001  0.0582 -0.0756
  502loPI    C3 8019   0.242  10.737  11.841  0.0442  0.2775  0.1680
  502loPI   PO4 8020   0.621  10.972  11.394 -0.3973  0.0987 -0.1342
  502loPI   GL1 8021   1.002  10.992  11.157 -0.1683  0.1987  0.1840
  502loPI   GL2 8022   1.176  11.270  11.052  0.1400 -0.1714  0.3026
  502loPI   C1A 8023   1.060  10.880  10.735  0.0947  0.0423 -0.1039
  502loPI   C2A 8024   1.162  10.770  10.344 -0.3125 -0.1281 -0.2368
  502loPI   C3A 8025   1.155  10.826   9.944  0.0190 -0.0921  0.2008
  502loPI   C4A 8026   1.114  10.780   9.585 -0.1346  0.0836 -0.1638
  502loPI   C5A 8027   1.215  10.808   9.146 -0.1498  0.1769  0.0557
  502loPI   C6A 8028   1.273  10.783   8.719 -0.0638 -0.2377  0.2079
  502loPI   C1B 8029   1.277  11.304  10.563 -0.1266 -0.3773  0.3224
  502loPI   C2B 8030   1.281  11.336  10.119 -0.0133  0.0033 -0.1929
  502loPI   C3B 8031   1.340  11.315   9.727 -0.0772  0.0501  0.1008
  502loPI   C4B 8032   1.357  11.297   9.295  0.2835 -0.0638 -0.0543
  503loPI    C1 8033  10.713  13.898  11.413  0.0131  0.1923 -0.0477
  503loPI    C2 8034  10.876  14.206  11.609 -0.0051  0.2924 -0.1882
  503loPI    C3 8035  10.483  14.134  11.639  0.0475  0.1010  0.0840
  503loPI   PO4 8036  10.785  13.897  11.151 -0.0547  0.2382 -0.1044
  503loPI   GL1 8037  10.749  14.203  10.786 -0.1933  0.6577 -0.2088
  503loPI   GL2 8038  10.446  14.065  10.816  0.2749  0.0534  0.3046
  503loPI   C1A 8039  10.771  14.100  10.337 -0.0965 -0.0835  0.0979
  503loPI   C2A 8040  10.816  14.099   9.956 -0.0799 -0.0808  0.0093
  503loPI   C3A 8041  10.782  14.094   9.535 -0.0372 -0.0397 -0.3214
  503loPI   C4A 8042  10.877  13.970   9.167 -0.0261 -0.1258 -0.0451
  503loPI   C5A 8043  10.864  13.807   8.810 -0.1115  0.1495  0.2163
  503loPI   C6A 8044  11.037  13.582   8.476 -0.1801 -0.0343  0.0389
  503loPI   C1B 8045  10.284  13.878  10.341  0.0570 -0.1983 -0.2190
  503loPI   C2B 8046  10.341  13.952   9.886 -0.0953  0.3493  0.0034
  503loPI   C3B 8047  10.307  13.929   9.456 -0.2367  0.3216  0.0004
  503loPI   C4B 8048  10.261  14.006   8.957  0.0678  0.1500  0.0894
  504loPI    C1 8049   7.869   7.676  11.763 -0.1066  0.0213 -0.0393
  504loPI    C2 8050   8.189   7.903  11.843 -0.2341  0.1573  0.0897
  504loPI    C3 8051   8.152   7.542  12.012  0.0078  0.0036 -0.1772
  504loPI   PO4 8052   7.901   7.608  11.556 -0.3013  0.1551 -0.0136
  504loPI   GL1 8053   7.826   7.732  11.138 -0.1712  0.1960 -0.0395
  504loPI   GL2 8054   7.745   7.539  10.912 -0.2111 -0.1356 -0.0738
  504loPI   C1A 8055   7.926   7.964  10.744  0.2109  0.1275  0.2117
  504loPI   C2A 8056   7.900   8.005  10.274 -0.2322 -0.0797  0.0746
  504loPI   C3A 8057   7.851   8.043   9.944  0.1852 -0.1906  0.0373
  504loPI   C4A 8058   7.950   8.008   9.727 -0.2024  0.3755  0.2213
  504loPI   C5A 8059   8.014   8.048   9.411 -0.1919 -0.1058  0.5073
  504loPI   C6A 8060   7.834   8.187   8.993  0.1312 -0.0479  0.1466
  504loPI   C1B 8061   7.829   7.567  10.442 -0.3149  0.0098  0.0885
  504loPI   C2B 8062   7.848   7.505   9.969 -0.0664  0.0191 -0.1872
  504loPI   C3B 8063   7.866   7.532   9.376  0.0871 -0.0121 -0.3116
  504loPI   C4B 8064   7.803   7.456   8.921  0.0705 -0.0821 -0.1646
  505loPI    C1 8065  14.294  13.605  11.551  0.0537 -0.2713  0.0026
  505loPI    C2 8066  13.941  13.418  11.571 -0.0259 -0.0974  0.2765
  505loPI    C3 8067  14.247  13.290  11.794  0.0505 -0.1733  0.1297
  505loPI   PO4 8068  14.333  13.639  11.244 -0.0306  0.0229 -0.1332
  505loPI   GL1 8069  14.333  13.810  10.805  0.1656  0.0036  0.1757
  505loPI   GL2 8070  14.371  14.096  10.797 -0.0783  0.1204  0.1445
  505loPI   C1A 8071  14.376  13.749  10.370 -0.0213  0.0021  0.4398
  505loPI   C2A 8072  14.348  13.697   9.994  0.1369 -0.1332  0.2359
  505loPI   C3A 8073  14.474  13.791   9.561 -0.0294  0.4449 -0.0493
  505loPI   C4A 8074  14.573  13.762   9.056  0.1256  0.2940  0.3852
  505loPI   C5A 8075  14.494  13.710   8.752  0.0841  0.0401  0.1933
  505loPI   C6A 8076  14.596  13.321   8.556 -0.0551 -0.1597  0.1968
  505loPI   C1B 8077  14.489  14.217  10.408  0.1747  0.2594 -0.0456
  505loPI   C2B 8078  14.491  14.153   9.938  0.0100 -0.1568  0.0465
  505loPI   C3B 8079  14.568  14.301   9.538 -0.2831 -0.5311  0.1093
  505loPI   C4B 8080  14.657  14.248   9.122 -0.0292  0.3242  0.1683
  506loPI    C1 8081  13.332   4.406  11.445  0.1576 -0.0049  0.0118
  506loPI    C2 8082  13.583   4.650  11.639  0.2017  0.0040 -0.0564
  506loPI    C3 8083  13.537   4.271  11.761  0.2959 -0.0159 -0.0822
  506loPI   PO4 8084  13.357   4.537  11.211  0.2346 -0.1146  0.2535
  506loPI   GL1 8085  13.169   4.564  10.828 -0.2344  0.0154  0.4142
  506loPI   GL2 8086  13.442   4.389  10.708  0.1627  0.1459  0.3461
  506loPI   C1A 8087  13.069   4.527  10.344  0.0970  0.3441 -0.0860
  506loPI   C2A 8088  13.230   4.327   9.898  0.3217  0.0137 -0.1538
  506loPI   C3A 8089  13.107   4.115   9.531 -0.0042  0.1343 -0.1140
  506loPI   C4A 8090  13.212   4.232   9.159 -0.1935 -0.1828  0.1513
  506loPI   C5A 8091  13.461   4.680   9.131 -0.0695  0.0723  0.2370
  506loPI   C6A 8092  13.238   4.845   8.788 -0.1613 -0.1201 -0.0928
  506loPI   C1B 8093  13.660   4.419  10.277 -0.1105  0.0557  0.1190
  506loPI   C2B 8094  13.651   4.608   9.965  0.1766  0.2271 -0.0656
  506loPI   C3B 8095  13.533   4.422   9.534  0.2099 -0.1542 -0.0984
  506loPI   C4B 8096  13.807   4.314   9.212  0.1712 -0.1983  0.0257
  507loPI    C1 8097  10.973   7.976  11.703 -0.2224  0.0434 -0.0659
  507loPI    C2 8098  11.110   8.339  11.607 -0.2893  0.0713 -0.0562
  507loPI    C3 8099  11.245   8.156  11.935 -0.2930  0.1092 -0.0335
  507loPI   PO4 8100  10.915   7.877  11.501 -0.2614 -0.1178 -0.1882
  507loPI   GL1 8101  10.816   7.606  11.263  0.0122 -0.2647 -0.2762
  507loPI   GL2 8102  10.594   7.454  11.315 -0.1080  0.0540 -0.2104
  507loPI   C1A 8103  10.978   7.520  10.751  0.2751 -0.2320 -0.1739
  507loPI   C2A 8104  11.038   7.594  10.328  0.0280  0.4612 -0.1756
  507loPI   C3A 8105  11.029   7.592   9.929  0.3113 -0.3029  0.0792
  507loPI   C4A 8106  11.058   7.569   9.492  0.0813  0.1074  0.2664
  507loPI   C5A 8107  11.040   7.598   9.067 -0.0500 -0.1758 -0.2460
  507loPI   C6A 8108  11.205   7.446   8.745  0.0266  0.2848 -0.2454
  507loPI   C1B 8109  10.473   7.395  10.925  0.0307  0.0236  0.0226
  507loPI   C2B 8110  10.604   7.364  10.435  0.0762 -0.0681  0.0921
  507loPI   C3B 8111  10.583   7.391  10.063 -0.4964  0.0527 -0.1399
  507loPI   C4B 8112  10.507   7.442   9.679  0.3417 -0.1794  0.2715
  508loPI    C1 8113  12.367  16.234  11.888 -0.2809 -0.1796 -0.2112
  508loPI    C2 8114  12.047  16.000  11.837 -0.4184 -0.1989  0.6027
  508loPI    C3 8115  12.033  16.303  12.097  0.1399 -0.0186  0.4365
  508loPI   PO4 8116  12.613  16.100  11.636 -0.0552  0.1395  0.0255
  508loPI   GL1 8117  12.708  16.247  11.232 -0.1386  0.0097 -0.1514
  508loPI   GL2 8118  12.525  16.036  11.110  0.1283 -0.0405 -0.0703
  508loPI   C1A 8119  12.830  16.502  10.810 -0.2990  0.0550 -0.1161
  508loPI   C2A 8120  12.788  16.590  10.284 -0.0034 -0.0562  0.3835
  508loPI   C3A 8121  12.727  16.612   9.794  0.1631  0.0155  0.1025
  508loPI   C4A 8122  12.709  16.548   9.364 -0.0833 -0.0821 -0.0298
  508loPI   C5A 8123  12.659  16.340   8.994  0.2283  0.0070 -0.1842
  508loPI   C6A 8124  12.933  16.239   8.822 -0.1843 -0.1690 -0.1610
  508loPI   C1B 8125  12.164  16.076  10.775 -0.0439 -0.1374 -0.1202
  508loPI   C2B 8126  12.231  15.987  10.383  0.1439 -0.1649  0.0521
  508loPI   C3B 8127  12.199  16.050   9.967  0.1009  0.1305 -0.4227
  508loPI   C4B 8128  12.024  15.970   9.502  0.1487  0.2005 -0.1931
  509loPI    C1 8129  11.579  13.521  11.697  0.4284  0.0181 -0.1825
  509loPI    C2 8130  11.652  13.141  11.797  0.1311  0.0089  0.0121
  509loPI    C3 8131  11.702  13.431  12.067 -0.0261  0.0614 -0.0144
  509loPI   PO4 8132  11.535  13.429  11.352 -0.1795  0.0828  0.0800
  509loPI   GL1 8133  11.806  13.473  11.027  0.3587  0.2517  0.0647
  509loPI   GL2 8134  11.445  13.525  10.889  0.0361  0.2259  0.1097
  509loPI   C1A 8135  11.992  13.612  10.576 -0.0136 -0.2441  0.1588
  509loPI   C2A 8136  12.047  13.514  10.175  0.1440  0.1437  0.3193
  509loPI   C3A 8137  12.046  13.485   9.826 -0.1177  0.2425  0.2028
  509loPI   C4A 8138  12.053  13.484   9.528 -0.1773 -0.2176 -0.1247
  509loPI   C5A 8139  12.155  13.336   9.099 -0.1740 -0.0839  0.0539
  509loPI   C6A 8140  11.858  13.255   8.716  0.0738  0.1880  0.0914
  509loPI   C1B 8141  11.435  13.474  10.512  0.0061  0.1059  0.0292
  509loPI   C2B 8142  11.486  13.402  10.069  0.0592 -0.1481  0.1926
  509loPI   C3B 8143  11.528  13.435   9.522 -0.2924 -0.0077  0.1367
  509loPI   C4B 8144  11.654  13.360   9.133 -0.0785  0.0052 -0.2534
  510loPI    C1 8145  11.005   9.439  11.655  0.1949 -0.0512  0.0043
  510loPI    C2 8146  11.013   9.212  11.984  0.1143 -0.1624 -0.0696
  510loPI    C3 8147  11.171   9.579  11.991 -0.0724 -0.0832  0.1531
  510loPI   PO4 8148  11.086   9.330  11.485  0.0248 -0.0959 -0.3180
  510loPI   GL1 8149  10.966   9.208  11.085 -0.0898 -0.0783 -0.2395
  510loPI   GL2 8150  10.648   9.245  11.191 -0.0794  0.0316  0.0822
  510loPI   C1A 8151  10.999   9.399  10.778  0.1668  0.0876  0.0129
  510loPI   C2A 8152  11.032   9.338  10.289  0.1080 -0.2086 -0.1312
  510loPI   C3A 8153  11.037   9.416   9.871 -0.0273 -0.0021  0.2005
  510loPI   C4A 8154  11.015   9.421   9.472  0.2169  0.0009 -0.0193
  510loPI   C5A 8155  10.656   9.230   9.253 -0.0605  0.0500  0.4360
  510loPI   C6A 8156  10.317   9.147   8.912 -0.1713 -0.0871 -0.0333
  510loPI   C1B 8157  10.537   9.282  10.824 -0.0106  0.0501  0.1541
  510loPI   C2B 8158  10.442   9.236  10.426  0.1551 -0.0248 -0.0268
  510loPI   C3B 8159  10.536   9.201  10.141  0.1911  0.3628 -0.1700
  510loPI   C4B 8160  10.521   9.315   9.763 -0.1901 -0.1365 -0.0161
  511loPI    C1 8161   2.324   3.542  11.757  0.2224 -0.2351  0.1066
  511loPI    C2 8162   1.951   3.420  11.834  0.2370 -0.3103  0.0591
  511loPI    C3 8163   2.111   3.720  12.045  0.0550 -0.0990 -0.0991
  511loPI   PO4 8164   2.276   3.657  11.477  0.3916 -0.2624 -0.2472
  511loPI   GL1 8165   2.450   3.767  11.115  0.0300  0.3291 -0.2591
  511loPI   GL2 8166   2.395   3.458  10.908 -0.1304 -0.1401  0.1110
  511loPI   C1A 8167   2.345   3.896  10.635  0.3365 -0.0178  0.2930
  511loPI   C2A 8168   2.310   3.870  10.161 -0.0841  0.1551 -0.0129
  511loPI   C3A 8169   2.423   3.946   9.704  0.0091  0.2063  0.0899
  511loPI   C4A 8170   2.286   3.913   9.252  0.0151  0.0783  0.3528
  511loPI   C5A 8171   2.323   3.850   8.858 -0.4826  0.1456 -0.0103
  511loPI   C6A 8172   2.081   3.601   8.642 -0.2534  0.0350  0.2082
  511loPI   C1B 8173   2.226   3.465  10.437 -0.0261  0.0717  0.1639
  511loPI   C2B 8174   2.219   3.420  10.081  0.0890 -0.3196  0.1150
  511loPI   C3B 8175   2.247   3.428   9.539 -0.1562  0.1129  0.1243
  511loPI   C4B 8176   2.211   3.452   9.118  0.0432  0.1939 -0.0247
  512loPI    C1 8177  10.573  10.156  11.630  0.0582  0.2624 -0.0703
  512loPI    C2 8178  10.285  10.152  11.907  0.1122 -0.1498 -0.0123
  512loPI    C3 8179  10.634  10.333  11.983 -0.1105  0.3200 -0.0695
  512loPI   PO4 8180  10.406  10.145  11.392  0.3508  0.2405 -0.1038
  512loPI   GL1 8181  10.450  10.047  10.948 -0.1336  0.2095 -0.1775
  512loPI   GL2 8182  10.654   9.795  10.898 -0.4694 -0.4233  0.2533
  512loPI   C1A 8183  10.246  10.183  10.683  0.0267  0.0651  0.3209
  512loPI   C2A 8184  10.339  10.107  10.275  0.0526 -0.1597 -0.1245
  512loPI   C3A 8185  10.298  10.139   9.755  0.3013 -0.1238 -0.0711
  512loPI   C4A 8186  10.307  10.068   9.335  0.1394 -0.0489  0.3495
  512loPI   C5A 8187  10.415  10.104   8.986 -0.3360  0.0375 -0.0851
  512loPI   C6A 8188  10.567  10.019   8.614 -0.2424  0.1448  0.0915
  512loPI   C1B 8189  10.699   9.686  10.465 -0.0101  0.3626  0.1106
  512loPI   C2B 8190  10.680   9.720  10.044 -0.1652 -0.0472  0.2343
  512loPI   C3B 8191  10.651   9.784   9.672 -0.1168 -0.1141  0.4698
  512loPI   C4B 8192  10.736   9.783   9.242  0.4125 -0.0243 -0.0636
  513loPI    C1 8193   8.853   2.202  11.525 -0.2144 -0.1147  0.0008
  513loPI    C2 8194   9.179   2.392  11.392 -0.0472 -0.2270  0.2422
  513loPI    C3 8195   9.011   2.501  11.738 -0.2923 -0.1430  0.0990
  513loPI   PO4 8196   8.762   2.164  11.358 -0.1109  0.3548  0.0108
  513loPI   GL1 8197   8.841   2.099  10.966  0.1252 -0.1760  0.3353
  513loPI   GL2 8198   9.015   2.367  10.902  0.1429  0.1154 -0.3839
  513loPI   C1A 8199   8.966   2.112  10.481  0.1314  0.1764 -0.0288
  513loPI   C2A 8200   8.870   2.092  10.025  0.1568  0.1226 -0.2027
  513loPI   C3A 8201   8.965   2.110   9.642  0.0719 -0.1670  0.0072
  513loPI   C4A 8202   9.043   2.194   9.225  0.0114 -0.0625  0.2750
  513loPI   C5A 8203   9.110   2.049   8.805  0.0993 -0.1158 -0.1461
  513loPI   C6A 8204   9.127   1.733   8.598  0.2657  0.0848 -0.0762
  513loPI   C1B 8205   9.068   2.602  10.517  0.0250  0.0426  0.2201
  513loPI   C2B 8206   9.059   2.662  10.146  0.0569  0.0216 -0.0420
  513loPI   C3B 8207   9.077   2.671   9.623 -0.2183 -0.0812 -0.0541
  513loPI   C4B 8208   9.172   2.693   9.099 -0.0794 -0.1910  0.3187
  514loPI    C1 8209   7.702   9.607  11.592 -0.0706  0.0744 -0.0880
  514loPI    C2 8210   7.440   9.902  11.656 -0.0465  0.0360  0.1989
  514loPI    C3 8211   7.791   9.902  11.847  0.0389 -0.0716  0.0442
  514loPI   PO4 8212   7.656   9.594  11.334  0.0961  0.1092 -0.0718
  514loPI   GL1 8213   7.638   9.683  10.937 -0.1708 -0.1750  0.1030
  514loPI   GL2 8214   7.540  10.085  10.925  0.0495  0.0564 -0.3492
  514loPI   C1A 8215   7.442   9.739  10.574  0.0496  0.0167  0.0262
  514loPI   C2A 8216   7.512   9.712  10.108 -0.0335 -0.1325 -0.1747
  514loPI   C3A 8217   7.492   9.837   9.702  0.1286 -0.1904 -0.1834
  514loPI   C4A 8218   7.545   9.772   9.326  0.0617 -0.0634  0.0917
  514loPI   C5A 8219   7.490   9.604   8.914  0.1388  0.1346 -0.1252
  514loPI   C6A 8220   7.523   9.512   8.438 -0.0146  0.0071 -0.0835
  514loPI   C1B 8221   7.561  10.273  10.520  0.0523 -0.1011  0.0343
  514loPI   C2B 8222   7.487  10.235  10.096  0.3743  0.1504 -0.1946
  514loPI   C3B 8223   7.586  10.356   9.723  0.0040  0.0618 -0.1686
  514loPI   C4B 8224   7.624  10.275   9.336 -0.1233  0.0457  0.0074
  515loPI    C1 8225  11.461   7.633  12.031  0.0351  0.0606  0.0814
  515loPI    C2 8226  11.157   7.517  11.798  0.1159 -0.3335  0.1643
  515loPI    C3 8227  11.195   7.367  12.167  0.0570  0.1939  0.3948
  515loPI   PO4 8228  11.749   7.586  11.869  0.1003 -0.1758 -0.2208
  515loPI   GL1 8229  11.849   7.584  11.420 -0.0544 -0.2695  0.2063
  515loPI   GL2 8230  11.965   7.343  11.169  0.2381 -0.0173 -0.0963
  515loPI   C1A 8231  11.651   7.668  10.958  0.2965  0.0557 -0.4376
  515loPI   C2A 8232  11.441   7.754  10.530 -0.0700 -0.3482 -0.0554
  515loPI   C3A 8233  11.527   7.812  10.088 -0.1190  0.4315 -0.0422
  515loPI   C4A 8234  11.547   7.684   9.678 -0.1731  0.5191 -0.2210
  515loPI   C5A 8235  11.536   7.773   9.292 -0.0761  0.2760  0.1538
  515loPI   C6A 8236  11.563   7.846   8.810 -0.0968 -0.2596 -0.2477
  515loPI   C1B 8237  11.955   7.305  10.771  0.1755  0.0977  0.0874
  515loPI   C2B 8238  11.857   7.328  10.368 -0.0700  0.0307 -0.0977
  515loPI   C3B 8239  11.827   7.345   9.903 -0.2367 -0.2269 -0.1225
  515loPI   C4B 8240  11.876   7.385   9.457  0.0992  0.0151 -0.1602
  516loPI    C1 8241   3.207  15.424  11.885 -0.0516 -0.3059  0.1069
  516loPI    C2 8242   3.435  15.249  12.163  0.0771 -0.1899  0.0755
  516loPI    C3 8243   3.116  15.464  12.273  0.1630 -0.0931  0.1376
  516loPI   PO4 8244   3.437  15.571  11.765 -0.3770  0.2137 -0.2045
  516loPI   GL1 8245   3.492  15.577  11.278  0.2852 -0.0073  0.3009
  516loPI   GL2 8246   3.684  15.392  11.119 -0.3231  0.2877 -0.2003
  516loPI   C1A 8247   3.296  15.719  10.853  0.0115  0.1348  0.1068
  516loPI   C2A 8248   3.260  15.675  10.433  0.0307 -0.4700  0.0762
  516loPI   C3A 8249   3.280  15.563   9.989 -0.2473  0.0988  0.0428
  516loPI   C4A 8250   3.447  15.711   9.614 -0.0113  0.4320 -0.0899
  516loPI   C5A 8251   3.326  15.651   9.150 -0.0544 -0.1470 -0.1235
  516loPI   C6A 8252   3.272  15.958   8.843  0.2688 -0.2755  0.0682
  516loPI   C1B 8253   3.617  15.383  10.646  0.4923  0.4230 -0.0561
  516loPI   C2B 8254   3.660  15.301  10.211  0.0133 -0.0136 -0.0352
  516loPI   C3B 8255   3.734  15.297   9.824  0.0620 -0.3361 -0.1256
  516loPI   C4B 8256   3.744  15.292   9.368 -0.0308 -0.0269 -0.0030
  517loPI    C1 8257   0.698  17.447  11.678 -0.0138 -0.0108  0.1741
  517loPI    C2 8258   0.455  17.750  11.774  0.2403  0.2866 -0.0983
  517loPI    C3 8259   0.681  17.579  12.056 -0.0466  0.2179  0.0948
  517loPI   PO4 8260   0.680  17.369  11.360 -0.1335  0.0577 -0.2779
  517loPI   GL1 8261   0.296  17.508  11.058  0.2629  0.0057  0.2322
  517loPI   GL2 8262   0.621  17.589  10.839  0.1402  0.0305  0.0451
  517loPI   C1A 8263   0.085  17.544  10.685 -0.1013 -0.0659  0.3380
  517loPI   C2A 8264  -0.021  17.438  10.268 -0.2046  0.1316 -0.2778
  517loPI   C3A 8265   0.040  17.492   9.878 -0.1453  0.0279 -0.0681
  517loPI   C4A 8266   0.102  17.543   9.412 -0.2224  0.1712 -0.0566
  517loPI   C5A 8267   0.083  17.517   8.984 -0.3843 -0.0242 -0.2242
  517loPI   C6A 8268   0.305  17.423   8.638 -0.1966  0.0949  0.1022
  517loPI   C1B 8269   0.449  17.721  10.420 -0.1449  0.1089  0.1767
  517loPI   C2B 8270   0.608  17.661   9.986  0.3901 -0.0566 -0.0102
  517loPI   C3B 8271   0.629  17.640   9.526  0.0141 -0.0635 -0.1976
  517loPI   C4B 8272   0.564  17.581   9.120 -0.1830 -0.0584  0.1642
  518loPI    C1 8273  15.513   3.521  11.398  0.1434  0.1312 -0.0961
  518loPI    C2 8274  15.487   3.850  11.624 -0.2360 -0.0254  0.0968
  518loPI    C3 8275  15.559   3.495  11.794  0.0035 -0.0697 -0.0917
  518loPI   PO4 8276  15.639   3.684  11.205  0.1818  0.2649 -0.1350
  518loPI   GL1 8277  15.610   3.874  10.826  0.4249 -0.0452 -0.2760
  518loPI   GL2 8278  15.677   3.527  10.718  0.1365  0.2351 -0.0825
  518loPI   C1A 8279  15.399   4.030  10.427  0.3554  0.0161  0.4095
  518loPI   C2A 8280  15.503   3.994  10.007 -0.0337  0.2340 -0.0590
  518loPI   C3A 8281  15.557   4.007   9.689  0.2662  0.0453  0.3240
  518loPI   C4A 8282  15.389   3.896   9.245  0.1962 -0.0841 -0.0286
  518loPI   C5A 8283  15.358   4.006   8.805 -0.3494  0.0426  0.1121
  518loPI   C6A 8284  15.291   4.331   8.621  0.0774  0.1246  0.0805
  518loPI   C1B 8285  15.741   3.712  10.385 -0.5404 -0.0481  0.2329
  518loPI   C2B 8286  15.885   3.726   9.895 -0.3185 -0.2071 -0.1246
  518loPI   C3B 8287  15.823   3.506   9.471  0.4191 -0.0666 -0.3244
  518loPI   C4B 8288  15.737   3.613   8.948 -0.2966 -0.0174  0.0489
  519loPI    C1 8289  10.081   9.738  11.860  0.1625  0.0056 -0.1528
  519loPI    C2 8290   9.731   9.545  11.845  0.1502 -0.0028  0.1626
  519loPI    C3 8291   9.744   9.926  11.966  0.2543 -0.0132  0.1848
  519loPI   PO4 8292  10.179   9.710  11.602  0.0506 -0.0200 -0.2552
  519loPI   GL1 8293  10.217   9.724  11.184 -0.2354 -0.1423  0.2668
  519loPI   GL2 8294  10.173   9.320  11.146  0.0234  0.2524  0.1659
  519loPI   C1A 8295  10.221   9.637  10.663  0.3196 -0.3661  0.1260
  519loPI   C2A 8296  10.094   9.588  10.165 -0.1933  0.0192 -0.0540
  519loPI   C3A 8297  10.162   9.665   9.693  0.0768  0.0863 -0.0620
  519loPI   C4A 8298  10.161   9.536   9.216  0.0777 -0.3828  0.0976
  519loPI   C5A 8299  10.406   9.614   8.850 -0.0361  0.0690 -0.0627
  519loPI   C6A 8300  10.804   9.512   8.612 -0.1864  0.0584 -0.0485
  519loPI   C1B 8301  10.051   9.222  10.720 -0.2908  0.4240  0.2570
  519loPI   C2B 8302   9.924   9.023  10.313  0.1351  0.0530 -0.0944
  519loPI   C3B 8303  10.055   9.142   9.985  0.1894  0.4638  0.0520
  519loPI   C4B 8304  10.150   9.183   9.521  0.2950 -0.1626  0.1168
  520loPI    C1 8305  15.113  12.193  12.099 -0.1767 -0.0685  0.0263
  520loPI    C2 8306  14.804  12.025  12.289 -0.1353  0.0566  0.2080
  520loPI    C3 8307  15.159  12.053  12.471 -0.0491  0.0256  0.0469
  520loPI   PO4 8308  15.137  12.102  11.800  0.1333 -0.0309  0.1258
  520loPI   GL1 8309  15.120  12.310  11.282  0.0890 -0.1002 -0.1926
  520loPI   GL2 8310  14.989  12.449  11.129  0.1152  0.0005 -0.1337
  520loPI   C1A 8311  15.480  12.499  10.930  0.3274 -0.0439 -0.0419
  520loPI   C2A 8312  15.544  12.694  10.510 -0.0807 -0.0969 -0.2423
  520loPI   C3A 8313  15.564  12.688  10.083 -0.0904 -0.1266  0.1343
  520loPI   C4A 8314  15.635  12.715   9.612 -0.1849  0.1334 -0.1743
  520loPI   C5A 8315  15.606  12.613   9.186  0.3477 -0.1835 -0.3740
  520loPI   C6A 8316  15.675  12.506   8.690  0.1354  0.0580  0.2995
  520loPI   C1B 8317  14.966  12.475  10.684  0.1343 -0.1574  0.0214
  520loPI   C2B 8318  15.131  12.476  10.293 -0.0127  0.0292 -0.1295
  520loPI   C3B 8319  15.146  12.578   9.823 -0.2868 -0.2228 -0.2855
  520loPI   C4B 8320  15.051  12.556   9.411 -0.0610  0.0465 -0.1307
  521loPI    C1 8321   4.496  16.171  11.846 -0.0620  0.0141  0.0385
  521loPI    C2 8322   4.418  15.971  12.184  0.1010  0.1271  0.1442
  521loPI    C3 8323   4.377  16.369  12.173 -0.1129  0.1018 -0.0328
  521loPI   PO4 8324   4.467  16.038  11.641 -0.1271  0.2409 -0.2055
  521loPI   GL1 8325   4.581  16.125  11.252  0.0037 -0.0201 -0.0209
  521loPI   GL2 8326   4.448  15.911  11.097  0.0139 -0.0594 -0.1134
  521loPI   C1A 8327   4.808  16.105  10.852 -0.2760  0.4925  0.2492
  521loPI   C2A 8328   4.852  16.029  10.445  0.2373 -0.0879  0.0147
  521loPI   C3A 8329   4.709  16.073  10.160  0.1275  0.0311  0.2155
  521loPI   C4A 8330   4.761  16.135   9.662  0.0067 -0.4019  0.1796
  521loPI   C5A 8331   4.841  16.153   9.221 -0.2129 -0.3035  0.1177
  521loPI   C6A 8332   4.878  16.169   8.819 -0.1684  0.3485  0.2200
  521loPI   C1B 8333   4.297  15.980  10.746  0.1009  0.3217  0.1387
  521loPI   C2B 8334   4.237  15.984  10.265  0.0234 -0.0142 -0.0463
  521loPI   C3B 8335   4.311  15.979   9.792  0.1777  0.0292  0.2679
  521loPI   C4B 8336   4.332  16.000   9.332  0.0110  0.0629 -0.0625
  522loPI    C1 8337   5.954  11.475  11.836  0.1055 -0.1209 -0.1184
  522loPI    C2 8338   5.911  11.111  11.996  0.1892 -0.0966 -0.0396
  522loPI    C3 8339   5.834  11.437  12.215  0.0793 -0.0668 -0.1212
  522loPI   PO4 8340   5.941  11.406  11.486 -0.4862 -0.2269 -0.0707
  522loPI   GL1 8341   5.685  11.307  11.104  0.2500  0.1972  0.0703
  522loPI   GL2 8342   5.863  11.077  11.062  0.2827 -0.2714 -0.1191
  522loPI   C1A 8343   5.620  11.415  10.618  0.0227 -0.2306  0.2301
  522loPI   C2A 8344   5.523  11.453  10.175 -0.0762  0.0850 -0.3857
  522loPI   C3A 8345   5.529  11.573   9.797  0.0167 -0.0425  0.1122
  522loPI   C4A 8346   5.505  11.673   9.448 -0.1328 -0.2926 -0.2083
  522loPI   C5A 8347   5.640  11.574   8.914  0.0280 -0.1109 -0.2419
  522loPI   C6A 8348   5.784  11.558   8.542 -0.3746 -0.1367 -0.2067
  522loPI   C1B 8349   6.024  11.143  10.624  0.0275  0.1581 -0.0441
  522loPI   C2B 8350   5.975  11.237  10.164  0.0966 -0.2190 -0.0289
  522loPI   C3B 8351   5.954  11.223   9.788  0.1912 -0.1211  0.0395
  522loPI   C4B 8352   5.904  11.332   9.308  0.0686  0.0648  0.0158
  523loPI    C1 8353   0.442  13.644  11.395  0.0182 -0.1653  0.0315
  523loPI    C2 8354   0.311  13.586  11.769 -0.0504 -0.1699  0.0069
  523loPI    C3 8355   0.702  13.636  11.699 -0.0115 -0.3974  0.0523
  523loPI   PO4 8356   0.342  13.429  11.228  0.0657 -0.1905  0.0256
  523loPI   GL1 8357   0.586  13.484  10.868 -0.2171  0.1953 -0.0342
  523loPI   GL2 8358   0.939  13.579  10.661 -0.2665 -0.2896 -0.0514
  523loPI   C1A 8359   0.468  13.516  10.461 -0.0844 -0.0398  0.0205
  523loPI   C2A 8360   0.414  13.424  10.052  0.1435 -0.0677 -0.2485
  523loPI   C3A 8361   0.449  13.368   9.533  0.0774  0.1645 -0.4915
  523loPI   C4A 8362   0.566  13.486   9.062  0.2329  0.4123  0.0213
  523loPI   C5A 8363   0.627  13.767   8.758  0.1511 -0.1021  0.0389
  523loPI   C6A 8364   0.593  13.815   8.299  0.0259  0.0955  0.0811
  523loPI   C1B 8365   0.897  13.590  10.250  0.1555  0.2271 -0.1732
  523loPI   C2B 8366   0.844  13.521   9.860  0.2282 -0.1646  0.2331
  523loPI   C3B 8367   0.966  13.585   9.423  0.1223  0.0931 -0.2169
  523loPI   C4B 8368   1.021  13.419   8.964 -0.0263  0.1051  0.0784
  524loPI    C1 8369   5.724   0.968  11.659 -0.1957  0.0065 -0.1765
  524loPI    C2 8370   5.764   1.277  11.910  0.1535 -0.3215  0.1864
  524loPI    C3 8371   5.420   1.073  11.896 -0.0619  0.0449 -0.0200
  524loPI   PO4 8372   5.762   0.972  11.395 -0.4023 -0.0589 -0.0936
  524loPI   GL1 8373   5.614   1.152  11.032  0.0051  0.0671 -0.0684
  524loPI   GL2 8374   5.876   1.271  10.845  0.1285  0.0021  0.1564
  524loPI   C1A 8375   5.399   1.065  10.725  0.0375 -0.3423  0.0292
  524loPI   C2A 8376   5.396   1.039  10.275 -0.1880 -0.1219 -0.2871
  524loPI   C3A 8377   5.493   1.015   9.821 -0.0645 -0.0777  0.0212
  524loPI   C4A 8378   5.580   1.056   9.406 -0.2344 -0.1669 -0.1297
  524loPI   C5A 8379   5.496   1.051   8.992 -0.2535 -0.3377 -0.0155
  524loPI   C6A 8380   5.397   1.245   8.594  0.0663  0.1052 -0.2752
  524loPI   C1B 8381   5.895   1.127  10.411 -0.1982 -0.2052  0.0987
  524loPI   C2B 8382   5.923   1.217   9.995 -0.0968  0.2991  0.0136
  524loPI   C3B 8383   5.986   1.232   9.676  0.0047  0.0410  0.0101
  524loPI   C4B 8384   6.017   1.284   9.191 -0.0158 -0.0588 -0.0026
  525loPI    C1 8385   3.795   9.673  11.871  0.0113  0.0452 -0.0198
  525loPI    C2 8386   3.446   9.484  11.922  0.1048 -0.0859  0.1419
  525loPI    C3 8387   3.529   9.812  12.135  0.0091  0.0462 -0.0225
  525loPI   PO4 8388   3.848   9.628  11.526  0.1640  0.0691 -0.2365
  525loPI   GL1 8389   3.755   9.673  11.173  0.1008 -0.0778  0.0391
  525loPI   GL2 8390   4.134   9.748  11.040 -0.1297 -0.0598 -0.1683
  525loPI   C1A 8391   3.572   9.675  10.761  0.4453 -0.0584  0.0538
  525loPI   C2A 8392   3.685   9.651  10.330 -0.2612 -0.0961 -0.0623
  525loPI   C3A 8393   3.743   9.648   9.845 -0.0400  0.0239 -0.1554
  525loPI   C4A 8394   3.869   9.778   9.401  0.1272  0.0500 -0.3771
  525loPI   C5A 8395   3.739   9.964   8.946 -0.0702 -0.0503 -0.2149
  525loPI   C6A 8396   3.717  10.446   8.760  0.2100  0.2101  0.0167
  525loPI   C1B 8397   4.192   9.774  10.639 -0.0450  0.3037  0.0412
  525loPI   C2B 8398   4.209   9.753  10.176  0.1110 -0.1429  0.0472
  525loPI   C3B 8399   4.244   9.805   9.680 -0.0233  0.1772  0.1241
  525loPI   C4B 8400   4.240   9.654   9.150  0.0158 -0.1437  0.0978
  526loPI    C1 8401  14.495   3.488  11.448 -0.3511 -0.0338 -0.0566
  526loPI    C2 8402  14.533   3.138  11.639 -0.2081 -0.1248 -0.2481
  526loPI    C3 8403  14.181   3.327  11.636 -0.1960 -0.0868  0.1625
  526loPI   PO4 8404  14.571   3.469  11.224 -0.0683  0.1285 -0.1811
  526loPI   GL1 8405  14.541   3.573  10.744  0.0435 -0.1444 -0.3102
  526loPI   GL2 8406  14.167   3.525  10.737  0.0827  0.0929 -0.0819
  526loPI   C1A 8407  14.784   3.576  10.364 -0.0581 -0.1110  0.0020
  526loPI   C2A 8408  14.751   3.523   9.869  0.0679  0.2547 -0.1584
  526loPI   C3A 8409  14.691   3.224   9.531 -0.2610 -0.0898  0.1329
  526loPI   C4A 8410  14.738   3.052   9.144 -0.0204  0.0895  0.0677
  526loPI   C5A 8411  14.695   3.133   8.767 -0.0463 -0.1835 -0.0549
  526loPI   C6A 8412  14.559   3.009   8.451  0.1163 -0.2617  0.2816
  526loPI   C1B 8413  14.309   3.534  10.237  0.1546 -0.0767  0.3809
  526loPI   C2B 8414  14.206   3.443   9.885 -0.1262 -0.2485  0.1638
  526loPI   C3B 8415  14.242   3.090   9.625  0.1979  0.2135  0.2611
  526loPI   C4B 8416  14.297   3.163   9.254 -0.1646 -0.0422  0.1401
  527loPI    C1 8417   6.846  15.554  11.375 -0.0950 -0.1501  0.0911
  527loPI    C2 8418   6.692  15.293  11.636 -0.0601  0.0994  0.3664
  527loPI    C3 8419   6.992  15.532  11.747  0.1733 -0.0141 -0.0045
  527loPI   PO4 8420   6.830  15.509  11.209  0.0446 -0.0794 -0.4483
  527loPI   GL1 8421   6.835  15.656  10.792  0.2151  0.0159  0.1725
  527loPI   GL2 8422   6.571  15.823  10.734 -0.1338  0.1602  0.3290
  527loPI   C1A 8423   7.026  15.427  10.437 -0.2617 -0.0734  0.3550
  527loPI   C2A 8424   7.002  15.400  10.023 -0.1849 -0.0346 -0.1561
  527loPI   C3A 8425   7.015  15.351   9.501  0.2852 -0.2667  0.0535
  527loPI   C4A 8426   7.109  15.346   9.015 -0.1367 -0.0427 -0.2608
  527loPI   C5A 8427   7.493  15.538   8.801 -0.3424  0.1354  0.2298
  527loPI   C6A 8428   7.704  15.415   8.439 -0.1288  0.3035 -0.2132
  527loPI   C1B 8429   6.551  15.671  10.280  0.0987 -0.1750 -0.2332
  527loPI   C2B 8430   6.577  15.722   9.865  0.1709 -0.0305 -0.4405
  527loPI   C3B 8431   6.616  15.698   9.402 -0.1765 -0.0582  0.0557
  527loPI   C4B 8432   6.443  15.756   9.023 -0.0334  0.1374  0.2540
  528loPI    C1 8433  11.168   6.299  11.792  0.0788  0.0234  0.1155
  528loPI    C2 8434  11.011   6.581  12.028 -0.1512 -0.0191  0.0163
  528loPI    C3 8435  10.940   6.195  12.103 -0.3047 -0.0297 -0.1755
  528loPI   PO4 8436  11.440   6.458  11.751 -0.1405 -0.2263 -0.0483
  528loPI   GL1 8437  11.640   6.414  11.238 -0.3704  0.1150 -0.0459
  528loPI   GL2 8438  11.710   6.201  11.008  0.1572  0.0959 -0.0465
  528loPI   C1A 8439  11.324   6.649  10.937 -0.0012 -0.0686 -0.1491
  528loPI   C2A 8440  11.309   6.722  10.520  0.1155 -0.0984 -0.1315
  528loPI   C3A 8441  11.280   6.700  10.059 -0.2223  0.4238 -0.0433
  528loPI   C4A 8442  11.257   6.763   9.561 -0.2542  0.0745  0.1569
  528loPI   C5A 8443  11.342   6.699   9.090  0.0124 -0.1746  0.0974
  528loPI   C6A 8444  11.174   6.340   8.798  0.0655 -0.2283  0.3517
  528loPI   C1B 8445  11.701   6.391  10.536 -0.0591 -0.2852 -0.2845
  528loPI   C2B 8446  11.639   6.347  10.175 -0.0903  0.0763  0.2085
  528loPI   C3B 8447  11.650   6.428   9.702  0.1536  0.1697 -0.1058
  528loPI   C4B 8448  11.768   6.318   9.273 -0.1544  0.1130 -0.1097
  529loPI    C1 8449   6.455   5.229  11.632 -0.2294  0.0782 -0.1467
  529loPI    C2 8450   6.324   4.857  11.567 -0.3052  0.0992 -0.1149
  529loPI    C3 8451   6.382   4.986  11.941 -0.1365  0.0706 -0.1304
  529loPI   PO4 8452   6.623   5.227  11.406  0.0712 -0.3214 -0.0835
  529loPI   GL1 8453   6.669   5.344  10.882 -0.1179  0.3504  0.1940
  529loPI   GL2 8454   6.372   5.508  10.768  0.1053 -0.0543 -0.1387
  529loPI   C1A 8455   6.771   5.323  10.511  0.3594  0.1842  0.3583
  529loPI   C2A 8456   6.778   5.320  10.119  0.1552 -0.0182  0.0537
  529loPI   C3A 8457   6.891   5.404   9.858  0.0423 -0.0849 -0.0566
  529loPI   C4A 8458   6.768   5.411   9.398 -0.1645 -0.1695 -0.0513
  529loPI   C5A 8459   6.667   5.625   9.060 -0.3296  0.0672 -0.0310
  529loPI   C6A 8460   6.726   5.904   8.731  0.1037  0.3976 -0.1935
  529loPI   C1B 8461   6.476   5.671  10.365 -0.1720 -0.0711 -0.2161
  529loPI   C2B 8462   6.459   5.781   9.962 -0.0054  0.1199 -0.0656
  529loPI   C3B 8463   6.395   5.745   9.472 -0.2332 -0.0981 -0.2266
  529loPI   C4B 8464   6.142   5.838   9.023  0.0433  0.0095 -0.1862
  530loPI    C1 8465  16.326  17.393  11.297  0.0254 -0.0256  0.1700
  530loPI    C2 8466  15.962  17.551  11.348 -0.0622 -0.2102  0.1219
  530loPI    C3 8467  16.220  17.540  11.653 -0.0379  0.0672  0.1135
  530loPI   PO4 8468  16.451  17.442  11.086  0.3139 -0.2196  0.0066
  530loPI   GL1 8469  16.647  17.261  10.676  0.0959  0.1792  0.1592
  530loPI   GL2 8470  16.746  17.643  10.676  0.0089 -0.2406  0.1978
  530loPI   C1A 8471  16.694  17.255  10.256  0.2283 -0.1173 -0.0613
  530loPI   C2A 8472  16.665  17.215   9.882 -0.2272  0.1865 -0.3452
  530loPI   C3A 8473  16.788  17.291   9.444  0.0215  0.1659  0.0482
  530loPI   C4A 8474  16.733  17.248   9.003  0.0976 -0.0535 -0.1241
  530loPI   C5A 8475  16.350  16.987   8.744 -0.1948 -0.2015  0.0554
  530loPI   C6A 8476  15.949  16.905   8.596 -0.1719  0.0490 -0.4581
  530loPI   C1B 8477  16.783  17.840  10.282  0.2321  0.0868 -0.2881
  530loPI   C2B 8478  16.904  17.757   9.802 -0.1004  0.1122 -0.1013
  530loPI   C3B 8479  16.877  17.774   9.406 -0.2428 -0.1544 -0.1726
  530loPI   C4B 8480  16.931  17.903   8.896  0.1033 -0.0878  0.1246
  531loPI    C1 8481   9.574   6.519  11.798  0.2184  0.1606  0.0117
  531loPI    C2 8482   9.326   6.804  11.666  0.1817  0.1743  0.1094
  531loPI    C3 8483   9.217   6.569  11.971  0.2786  0.1638  0.1364
  531loPI   PO4 8484   9.627   6.372  11.573  0.4378 -0.4428  0.1325
  531loPI   GL1 8485   9.439   6.437  11.233  0.2693  0.1568  0.1165
  531loPI   GL2 8486   9.688   6.251  11.052 -0.1085 -0.3145 -0.1943
  531loPI   C1A 8487   9.303   6.466  10.814 -0.1157 -0.0891  0.3501
  531loPI   C2A 8488   9.462   6.518  10.415 -0.2405  0.1628  0.2272
  531loPI   C3A 8489   9.487   6.616   9.965 -0.0433  0.1658 -0.1786
  531loPI   C4A 8490   9.369   6.659   9.517 -0.0387  0.1862 -0.0694
  531loPI   C5A 8491   9.435   6.707   9.061 -0.2204  0.2229  0.3777
  531loPI   C6A 8492   9.295   6.831   8.662 -0.0385 -0.1128  0.2267
  531loPI   C1B 8493   9.875   6.131  10.632  0.3582 -0.0280 -0.1205
  531loPI   C2B 8494   9.805   6.251  10.227  0.3655 -0.0335 -0.0535
  531loPI   C3B 8495   9.744   6.209   9.800  0.3378 -0.1125  0.1005
  531loPI   C4B 8496   9.675   6.247   9.363  0.1399  0.1616 -0.2625
  532loPI    C1 8497  14.911  10.868  11.274  0.0526 -0.0541 -0.1221
  532loPI    C2 8498  14.619  11.010  11.508  0.1337  0.3276 -0.2451
  532loPI    C3 8499  14.984  10.946  11.660 -0.0104 -0.1673 -0.0867
  532loPI   PO4 8500  14.919  10.953  11.098 -0.0289 -0.2529 -0.0748
  532loPI   GL1 8501  14.792  10.759  10.781  0.0870 -0.1605 -0.0527
  532loPI   GL2 8502  15.112  10.735  10.708 -0.1285 -0.0866 -0.2048
  532loPI   C1A 8503  14.664  10.979  10.497  0.0603 -0.3255  0.1973
  532loPI   C2A 8504  14.646  10.948  10.105  0.0508 -0.0943 -0.1201
  532loPI   C3A 8505  14.676  10.975   9.690  0.0570  0.1252 -0.0562
  532loPI   C4A 8506  14.776  11.129   9.200  0.0781  0.0157 -0.0887
  532loPI   C5A 8507  14.667  11.007   8.757  0.0852  0.0271 -0.1924
  532loPI   C6A 8508  14.229  10.949   8.559 -0.0816  0.0512  0.0594
  532loPI   C1B 8509  15.024  10.667  10.334  0.0994  0.2386 -0.0832
  532loPI   C2B 8510  14.976  10.625   9.946  0.4341 -0.0247  0.2109
  532loPI   C3B 8511  14.969  10.653   9.435  0.1631  0.0854 -0.3067
  532loPI   C4B 8512  14.956  10.549   9.008 -0.3317  0.1199  0.4064
  533loPI    C1 8513  14.341   8.394  11.842 -0.0030 -0.0195  0.0003
  533loPI    C2 8514  14.159   8.726  11.713  0.0048 -0.0762 -0.1589
  533loPI    C3 8515  14.120   8.612  12.095  0.1632  0.2140 -0.0527
  533loPI   PO4 8516  14.306   8.228  11.655  0.2160  0.0631 -0.1619
  533loPI   GL1 8517  14.365   8.237  11.211  0.1231 -0.1897 -0.0670
  533loPI   GL2 8518  14.170   8.529  11.288 -0.0492  0.0926  0.0460
  533loPI   C1A 8519  14.521   8.138  10.898 -0.0919  0.1286 -0.0138
  533loPI   C2A 8520  14.376   8.108  10.348 -0.0585  0.3631  0.1443
  533loPI   C3A 8521  14.371   8.182   9.931 -0.0437  0.0920 -0.4118
  533loPI   C4A 8522  14.312   8.114   9.567  0.0682 -0.2041  0.1418
  533loPI   C5A 8523  14.262   8.119   9.084  0.3686  0.4623  0.1669
  533loPI   C6A 8524  14.076   8.474   8.815  0.1935  0.1263  0.1519
  533loPI   C1B 8525  14.183   8.439  10.817 -0.1415 -0.2808 -0.0645
  533loPI   C2B 8526  14.112   8.534  10.312 -0.0971 -0.1270 -0.0188
  533loPI   C3B 8527  13.957   8.493   9.795  0.1081 -0.0039  0.1485
  533loPI   C4B 8528  13.986   8.429   9.383 -0.0137  0.0293  0.0715
  534loPI    C1 8529   7.076  14.873  11.544 -0.1192  0.0875 -0.2328
  534loPI    C2 8530   7.127  14.563  11.296 -0.1707 -0.2390  0.1544
  534loPI    C3 8531   6.925  14.515  11.638 -0.1176  0.2078  0.2555
  534loPI   PO4 8532   7.066  15.052  11.361  0.1619  0.0717  0.0033
  534loPI   GL1 8533   6.861  15.062  10.951 -0.0397  0.2488  0.0958
  534loPI   GL2 8534   7.089  14.857  10.910 -0.0427  0.0165 -0.3023
  534loPI   C1A 8535   6.888  14.819  10.448 -0.0071 -0.0926  0.0326
  534loPI   C2A 8536   6.907  14.877  10.027  0.1374 -0.2148  0.1766
  534loPI   C3A 8537   6.789  14.815   9.505 -0.1180  0.0795 -0.0433
  534loPI   C4A 8538   6.878  14.913   9.028 -0.0310  0.0012  0.0024
  534loPI   C5A 8539   6.675  14.879   8.613 -0.3535  0.0014  0.0882
  534loPI   C6A 8540   6.224  14.850   8.469  0.0539 -0.3352  0.2643
  534loPI   C1B 8541   7.231  15.055  10.640  0.2214  0.0530 -0.0442
  534loPI   C2B 8542   7.363  14.980  10.228  0.4854  0.0736 -0.2944
  534loPI   C3B 8543   7.312  15.059   9.794  0.0697 -0.0197  0.2107
  534loPI   C4B 8544   7.365  14.988   9.359 -0.0631  0.0580  0.0121
  535loPI    C1 8545   7.969  10.435  11.648  0.0042 -0.0105  0.1274
  535loPI    C2 8546   8.101  10.671  11.943  0.0204 -0.0436  0.1467
  535loPI    C3 8547   7.811  10.406  12.014 -0.2105  0.1797  0.0516
  535loPI   PO4 8548   8.118  10.541  11.389 -0.0995  0.1140  0.1081
  535loPI   GL1 8549   8.182  10.347  11.043 -0.1560 -0.0378  0.0200
  535loPI   GL2 8550   7.918  10.476  10.829  0.2200  0.0012  0.0373
  535loPI   C1A 8551   7.992   9.997  10.811 -0.2769 -0.4850  0.0376
  535loPI   C2A 8552   7.877   9.912  10.363 -0.1075  0.2085  0.0147
  535loPI   C3A 8553   7.940   9.834   9.945  0.0548 -0.0883 -0.0817
  535loPI   C4A 8554   8.071   9.871   9.551  0.0558 -0.0859 -0.1282
  535loPI   C5A 8555   7.912   9.982   9.093 -0.0254  0.1679 -0.2288
  535loPI   C6A 8556   7.803   9.942   8.591 -0.0358 -0.1941  0.0458
  535loPI   C1B 8557   8.018  10.414  10.543 -0.1246 -0.0854 -0.2609
  535loPI   C2B 8558   7.963  10.379  10.095 -0.1019 -0.1395  0.2095
  535loPI   C3B 8559   8.076  10.483   9.702 -0.2274 -0.3360  0.0233
  535loPI   C4B 8560   8.179  10.325   9.366 -0.1813 -0.2151 -0.2121
  536loPI    C1 8561  16.756  17.392  11.520 -0.2504 -0.0787  0.1815
  536loPI    C2 8562  16.970  17.643  11.746  0.0817  0.0214 -0.2318
  536loPI    C3 8563  16.694  17.408  11.915  0.2601  0.1531  0.2602
  536loPI   PO4 8564  16.877  17.529  11.286 -0.1063  0.1225 -0.1036
  536loPI   GL1 8565  17.188  17.422  10.918 -0.1238  0.0054 -0.0573
  536loPI   GL2 8566  17.259  17.776  10.993 -0.1716  0.1398  0.1467
  536loPI   C1A 8567  17.154  17.309  10.496 -0.0893 -0.0351 -0.0737
  536loPI   C2A 8568  17.140  17.380  10.014 -0.1186 -0.0303  0.2311
  536loPI   C3A 8569  17.229  17.414   9.589 -0.0944 -0.1419 -0.1574
  536loPI   C4A 8570  17.239  17.359   9.172  0.1783 -0.2734  0.2630
  536loPI   C5A 8571  17.084  17.252   8.682 -0.4676  0.0652  0.1138
  536loPI   C6A 8572  16.769  17.087   8.503  0.0769 -0.4769 -0.1627
  536loPI   C1B 8573  17.263  17.846  10.486  0.1733  0.2339 -0.0684
  536loPI   C2B 8574  17.402  17.893  10.070 -0.1163  0.0128  0.1259
  536loPI   C3B 8575  17.385  17.917   9.592  0.1336  0.0933 -0.1920
  536loPI   C4B 8576  17.416  17.874   9.184 -0.0710 -0.0462 -0.0985
  537loPI    C1 8577   9.812   8.571  11.563 -0.1510 -0.1285  0.0986
  537loPI    C2 8578   9.493   8.550  11.803 -0.1249 -0.2508  0.1236
  537loPI    C3 8579   9.858   8.598  11.959 -0.1305 -0.1084  0.0948
  537loPI   PO4 8580   9.763   8.701  11.411 -0.0495  0.1360  0.2567
  537loPI   GL1 8581  10.055   8.785  11.041  0.2650 -0.5104 -0.1505
  537loPI   GL2 8582  10.331   8.858  11.012  0.1259 -0.1264  0.0458
  537loPI   C1A 8583   9.861   8.563  10.725  0.0301 -0.2232 -0.0063
  537loPI   C2A 8584   9.870   8.557  10.244  0.3792  0.2594 -0.2004
  537loPI   C3A 8585   9.919   8.618   9.956 -0.3832  0.0501  0.0191
  537loPI   C4A 8586   9.997   8.701   9.525  0.1165  0.2209  0.0079
  537loPI   C5A 8587  10.123   8.734   9.108  0.0797 -0.2248  0.0985
  537loPI   C6A 8588  10.432   8.719   8.877  0.0298  0.0746 -0.2996
  537loPI   C1B 8589  10.371   8.737  10.696 -0.0678 -0.2037  0.1374
  537loPI   C2B 8590  10.334   8.758  10.237  0.1233 -0.0636  0.1165
  537loPI   C3B 8591  10.421   8.735   9.834 -0.0303 -0.2670 -0.0113
  537loPI   C4B 8592  10.493   8.795   9.384 -0.0451  0.1958  0.4085
  538loPI    C1 8593   6.825   9.832  11.580 -0.3023 -0.0799 -0.0202
  538loPI    C2 8594   6.647  10.138  11.766 -0.0569  0.0330  0.0329
  538loPI    C3 8595   6.604   9.766  11.906 -0.4318  0.0275 -0.0851
  538loPI   PO4 8596   6.758   9.892  11.319  0.1114  0.0559  0.0542
  538loPI   GL1 8597   6.595   9.715  11.029  0.2188 -0.0597  0.0187
  538loPI   GL2 8598   6.561  10.000  10.888  0.0920 -0.0892  0.0090
  538loPI   C1A 8599   6.393   9.601  10.697 -0.1484  0.1526 -0.0681
  538loPI   C2A 8600   6.315   9.573  10.347  0.0507  0.2112  0.0330
  538loPI   C3A 8601   6.329   9.510   9.969  0.3269 -0.3074  0.1231
  538loPI   C4A 8602   6.404   9.399   9.604 -0.1368 -0.3574  0.0532
  538loPI   C5A 8603   6.457   9.523   9.163 -0.0492  0.1183 -0.0202
  538loPI   C6A 8604   6.619   9.314   8.790 -0.0203  0.0828 -0.0986
  538loPI   C1B 8605   6.535  10.006  10.441 -0.3189  0.0717  0.1888
  538loPI   C2B 8606   6.454   9.986  10.055  0.2781 -0.2463 -0.0201
  538loPI   C3B 8607   6.605   9.902   9.617  0.0937  0.0653 -0.2234
  538loPI   C4B 8608   6.495  10.010   9.229  0.0663  0.2067  0.1366
  539loPI    C1 8609   6.630   1.056  11.684  0.0498  0.0852  0.0551
  539loPI    C2 8610   6.596   1.244  12.036 -0.1935  0.0443  0.0553
  539loPI    C3 8611   6.305   1.275  11.763 -0.1537 -0.1848 -0.0158
  539loPI   PO4 8612   6.722   0.766  11.625  0.0719  0.2078 -0.1904
  539loPI   GL1 8613   6.939   0.637  11.243 -0.3923  0.0076 -0.0291
  539loPI   GL2 8614   6.643   0.683  11.142 -0.2617  0.4161 -0.2136
  539loPI   C1A 8615   7.234   0.674  10.873  0.0812 -0.0083  0.2205
  539loPI   C2A 8616   7.263   0.658  10.404  0.0917 -0.2415 -0.1874
  539loPI   C3A 8617   7.325   0.622   9.957  0.0892  0.3638  0.0253
  539loPI   C4A 8618   7.198   0.571   9.579  0.0216 -0.3424  0.2532
  539loPI   C5A 8619   7.314   0.515   9.142 -0.0593 -0.0862 -0.3661
  539loPI   C6A 8620   7.082   0.477   8.814 -0.0134  0.2722 -0.3394
  539loPI   C1B 8621   6.676   0.515  10.716 -0.2187 -0.1104  0.0844
  539loPI   C2B 8622   6.718   0.483  10.297 -0.0276  0.2010 -0.2035
  539loPI   C3B 8623   6.760   0.490   9.776  0.4178 -0.0650 -0.0521
  539loPI   C4B 8624   6.745   0.539   9.284 -0.1117  0.0267 -0.0959
  540loPI    C1 8625  12.262   2.077  11.836 -0.0540  0.0398 -0.1762
  540loPI    C2 8626  12.526   2.287  12.052  0.0841 -0.0808 -0.2260
  540loPI    C3 8627  12.224   2.474  11.867 -0.0424  0.0233  0.0783
  540loPI   PO4 8628  12.296   1.944  11.687 -0.0756 -0.1792 -0.0937
  540loPI   GL1 8629  12.234   1.801  11.269  0.0945  0.0037  0.0218
  540loPI   GL2 8630  12.061   1.567  11.396  0.0318 -0.2501 -0.1326
  540loPI   C1A 8631  12.517   1.752  10.948  0.1627  0.1398  0.1769
  540loPI   C2A 8632  12.557   1.712  10.526 -0.2355 -0.0304  0.1841
  540loPI   C3A 8633  12.507   1.697  10.128  0.1295 -0.2135  0.0055
  540loPI   C4A 8634  12.578   1.692   9.702 -0.0770 -0.0891  0.0096
  540loPI   C5A 8635  12.635   1.794   9.247  0.0748 -0.1090  0.0549
  540loPI   C6A 8636  12.585   1.439   8.970  0.1122 -0.0354 -0.1436
  540loPI   C1B 8637  11.980   1.529  10.922 -0.1158 -0.0446 -0.1025
  540loPI   C2B 8638  12.024   1.539  10.510 -0.0224 -0.2022 -0.0581
  540loPI   C3B 8639  12.006   1.574  10.124 -0.3031  0.1123  0.1832
  540loPI   C4B 8640  12.111   1.660   9.676  0.0577  0.1218  0.1369
  541POPI    C1 8641   1.822  12.942  11.717 -0.1147  0.1700  0.0346
  541POPI    C2 8642   1.590  12.699  11.933  0.1448 -0.0627  0.0576
  541POPI    C3 8643   1.593  13.092  12.009 -0.1346 -0.0756  0.1473
  541POPI   PO4 8644   1.703  12.836  11.501 -0.1668 -0.0099  0.1790
  541POPI   GL1 8645   1.629  12.743  11.069 -0.1623  0.0552  0.0629
  541POPI   GL2 8646   1.997  12.904  11.101  0.0955 -0.3338 -0.0435
  541POPI   C1A 8647   1.285  12.734  10.706 -0.1447  0.0801  0.1763
  541POPI   D2A 8648   1.184  12.706  10.308  0.0439  0.1273 -0.2249
  541POPI   C3A 8649   1.261  12.701   9.892  0.0638  0.1022  0.0233
  541POPI   C4A 8650   1.148  12.638   9.548 -0.1350  0.3098 -0.0358
  541POPI   C1B 8651   1.822  12.942  10.645  0.2285 -0.1049 -0.0074
  541POPI   C2B 8652   1.690  12.839  10.264  0.0513 -0.0300 -0.0416
  541POPI   C3B 8653   1.763  12.850   9.847 -0.2376  0.1810  0.1346
  541POPI   C4B 8654   1.685  12.828   9.446 -0.0207  0.0083  0.0591
  542POPI    C1 8655   1.953   8.892  11.393  0.0176  0.0935 -0.0513
  542POPI    C2 8656   1.622   8.669  11.432  0.1683 -0.0888  0.2202
  542POPI    C3 8657   1.790   8.836  11.754  0.3579 -0.0205  0.0882
  542POPI   PO4 8658   1.943   9.006  11.135  0.0152  0.0177  0.3703
  542POPI   GL1 8659   1.865   9.268  10.909 -0.1886  0.0007 -0.1335
  542POPI   GL2 8660   1.594   9.432  10.850 -0.0518 -0.2220 -0.1228
  542POPI   C1A 8661   2.047   9.234  10.447  0.0334  0.0234 -0.0044
  542POPI   D2A 8662   2.220   9.232   9.912 -0.0553  0.1896  0.1404
  542POPI   C3A 8663   2.251   9.321   9.502  0.0020  0.1491  0.1504
  542POPI   C4A 8664   2.237   9.352   9.076  0.0510  0.0538 -0.1636
  542POPI   C1B 8665   1.723   9.586  10.521 -0.0283  0.1107  0.4104
  542POPI   C2B 8666   1.845   9.529  10.033 -0.0941  0.0575 -0.0998
  542POPI   C3B 8667   1.754   9.632   9.701  0.4429 -0.1630  0.1075
  542POPI   C4B 8668   1.849   9.616   9.217 -0.1558 -0.2000  0.0557
  543POPI    C1 8669  13.105  11.772  11.795 -0.0624  0.1775  0.0923
  543POPI    C2 8670  13.364  11.921  12.061  0.1591 -0.2047  0.0991
  543POPI    C3 8671  12.986  11.847  12.169  0.1578 -0.0416  0.2097
  543POPI   PO4 8672  13.255  11.633  11.638 -0.0123 -0.1725  0.0738
  543POPI   GL1 8673  13.230  11.587  11.217 -0.0650 -0.0397  0.0735
  543POPI   GL2 8674  13.130  11.320  11.040 -0.1081  0.0547  0.0280
  543POPI   C1A 8675  13.200  11.707  10.724  0.2830  0.2922 -0.1236
  543POPI   D2A 8676  13.101  11.973  10.387 -0.3517  0.0956 -0.0440
  543POPI   C3A 8677  12.948  11.939   9.979  0.2789  0.3268  0.1766
  543POPI   C4A 8678  13.085  11.965   9.571 -0.0436  0.0451 -0.4372
  543POPI   C1B 8679  13.122  11.213  10.618 -0.2196  0.0605 -0.3538
  543POPI   C2B 8680  13.253  11.048  10.112  0.0659  0.0941 -0.0602
  543POPI   C3B 8681  13.296  11.144   9.730 -0.2138 -0.1170  0.1236
  543POPI   C4B 8682  13.343  11.075   9.312  0.0593 -0.1483  0.0773
  544POPI    C1 8683   8.388  14.144  11.043  0.0618  0.2897  0.0486
  544POPI    C2 8684   8.412  14.120  11.442  0.2101  0.1377  0.0318
  544POPI    C3 8685   8.542  14.448  11.253  0.3826  0.1037  0.0899
  544POPI   PO4 8686   8.202  13.980  11.006 -0.0543  0.3245 -0.0368
  544POPI   GL1 8687   8.387  13.760  10.705  0.0187  0.2394  0.1423
  544POPI   GL2 8688   8.703  13.935  10.659  0.0223 -0.0025 -0.0286
  544POPI   C1A 8689   8.476  13.920  10.238  0.0716 -0.0561 -0.0202
  544POPI   D2A 8690   8.592  13.925   9.892  0.1418  0.3171 -0.0563
  544POPI   C3A 8691   8.400  13.922   9.596 -0.1185 -0.0887 -0.2348
  544POPI   C4A 8692   8.387  13.859   9.117  0.0366  0.2772 -0.0780
  544POPI   C1B 8693   8.994  13.956  10.246  0.0657  0.1203 -0.1239
  544POPI   C2B 8694   9.056  14.113   9.858  0.0197  0.0273 -0.1776
  544POPI   C3B 8695   8.941  14.094   9.403 -0.0145 -0.2682 -0.1698
  544POPI   C4B 8696   8.833  14.051   8.984  0.1817  0.1126  0.2253
  545POPI    C1 8697  16.880  16.641  11.464  0.1419  0.1938  0.0930
  545POPI    C2 8698  17.144  16.621  11.763  0.1979  0.2780  0.0494
  545POPI    C3 8699  16.861  16.904  11.764  0.0429  0.1245  0.1481
  545POPI   PO4 8700  17.029  16.573  11.227  0.0542 -0.0237  0.0428
  545POPI   GL1 8701  16.927  16.315  10.815  0.0516 -0.1877  0.0355
  545POPI   GL2 8702  17.222  16.101  10.657 -0.1363 -0.3105  0.0019
  545POPI   C1A 8703  16.912  16.363  10.341  0.2789  0.2086 -0.1917
  545POPI   D2A 8704  16.748  16.310   9.918 -0.1674 -0.0045 -0.0321
  545POPI   C3A 8705  16.863  16.453   9.577 -0.0868 -0.0145 -0.0513
  545POPI   C4A 8706  16.984  16.375   9.152  0.0468 -0.0081 -0.2583
  545POPI   C1B 8707  17.169  16.004  10.169 -0.0356 -0.0677  0.0083
  545POPI   C2B 8708  17.222  16.061   9.754  0.1459 -0.2061 -0.7107
  545POPI   C3B 8709  17.377  15.946   9.385 -0.0357 -0.1428  0.3215
  545POPI   C4B 8710  17.360  16.062   8.968  0.1853  0.1188 -0.0927
  546POPI    C1 8711   2.042   6.460  11.342  0.1722  0.1645  0.0032
  546POPI    C2 8712   2.073   6.854  11.406  0.2101  0.1166  0.2964
  546POPI    C3 8713   2.313   6.600  11.601  0.1386 -0.0571  0.1612
  546POPI   PO4 8714   2.089   6.448  11.123 -0.1939 -0.0342  0.2088
  546POPI   GL1 8715   2.104   6.550  10.732  0.1481  0.2860 -0.0180
  546POPI   GL2 8716   2.339   6.476  10.663 -0.1835  0.2542  0.0663
  546POPI   C1A 8717   1.965   6.721  10.346 -0.0392 -0.0459 -0.1717
  546POPI   D2A 8718   2.005   6.962   9.914  0.0793  0.1133 -0.0399
  546POPI   C3A 8719   1.855   6.787   9.586 -0.2154  0.0952  0.2397
  546POPI   C4A 8720   1.593   6.486   9.314 -0.3155 -0.1164  0.0647
  546POPI   C1B 8721   2.614   6.502  10.389  0.1330  0.2341  0.2134
  546POPI   C2B 8722   2.688   6.282  10.065  0.0980 -0.0503 -0.0174
  546POPI   C3B 8723   2.878   6.286   9.684  0.1189  0.0254  0.3455
  546POPI   C4B 8724   2.852   6.259   9.183  0.1137  0.1682 -0.1745
  547POPI    C1 8725  13.072   4.891  11.464 -0.1076  0.0406 -0.2874
  547POPI    C2 8726  12.707   4.845  11.622 -0.0353  0.0306 -0.1225
  547POPI    C3 8727  13.008   4.610  11.741  0.0227  0.0309 -0.2667
  547POPI   PO4 8728  13.036   4.903  11.251  0.0015 -0.4028 -0.1794
  547POPI   GL1 8729  12.816   5.035  10.966  0.0061 -0.0525  0.1118
  547POPI   GL2 8730  12.683   4.739  10.842  0.3497 -0.3170  0.0642
  547POPI   C1A 8731  12.878   5.122  10.566  0.1429 -0.1195 -0.2387
  547POPI   D2A 8732  12.762   5.372  10.176  0.1034  0.2708 -0.2442
  547POPI   C3A 8733  12.870   5.319   9.772 -0.0468 -0.3130  0.4649
  547POPI   C4A 8734  12.771   5.063   9.382 -0.2339  0.1142 -0.2652
  547POPI   C1B 8735  12.634   4.693  10.553  0.0522  0.0247 -0.0407
  547POPI   C2B 8736  12.683   4.897  10.152 -0.0205  0.1374  0.0826
  547POPI   C3B 8737  12.924   4.775   9.849  0.0674 -0.1461  0.0243
  547POPI   C4B 8738  13.015   4.647   9.389  0.3180  0.1621 -0.2461
  548POPI    C1 8739   7.344   7.814  11.776 -0.1422 -0.1115  0.0606
  548POPI    C2 8740   7.459   7.432  11.808 -0.1017 -0.1332 -0.3014
  548POPI    C3 8741   7.070   7.526  11.821 -0.0928 -0.1373  0.2027
  548POPI   PO4 8742   7.471   7.899  11.505  0.0822  0.0278  0.0808
  548POPI   GL1 8743   7.370   7.881  11.057  0.0476  0.1408 -0.0550
  548POPI   GL2 8744   7.456   8.165  11.008  0.0569  0.2719 -0.1184
  548POPI   C1A 8745   7.304   7.792  10.641 -0.2032  0.3281  0.2718
  548POPI   D2A 8746   7.410   7.835  10.253 -0.3095 -0.0273  0.0491
  548POPI   C3A 8747   7.402   7.948   9.857 -0.0929  0.3230  0.2683
  548POPI   C4A 8748   7.576   7.906   9.508 -0.0959  0.1671 -0.4105
  548POPI   C1B 8749   7.553   8.335  10.647  0.1136  0.1775  0.3995
  548POPI   C2B 8750   7.557   8.357  10.159  0.0371  0.4894 -0.1493
  548POPI   C3B 8751   7.574   8.432   9.777  0.0144  0.1378  0.0560
  548POPI   C4B 8752   7.536   8.454   9.334  0.1409 -0.2369 -0.1201
  549POPI    C1 8753   0.535   6.254  11.032  0.0544 -0.2503 -0.1179
  549POPI    C2 8754   0.281   5.959  10.944 -0.2041 -0.0742  0.0256
  549POPI    C3 8755   0.409   6.006  11.319 -0.0905 -0.0593 -0.0148
  549POPI   PO4 8756   0.697   6.194  10.847  0.2714 -0.2165 -0.1598
  549POPI   GL1 8757   0.602   6.008  10.505  0.1850 -0.0031 -0.0080
  549POPI   GL2 8758   0.293   5.833  10.472 -0.1981 -0.1887  0.1986
  549POPI   C1A 8759   0.663   6.059  10.116  0.0407  0.1073 -0.2134
  549POPI   D2A 8760   0.960   5.937   9.805  0.1496  0.1496 -0.1567
  549POPI   C3A 8761   1.003   5.899   9.313 -0.0280  0.1266 -0.1168
  549POPI   C4A 8762   1.366   5.929   9.041  0.1571  0.0400 -0.0270
  549POPI   C1B 8763   0.402   5.679  10.022  0.2248 -0.0408  0.0753
  549POPI   C2B 8764   0.520   5.791   9.556  0.1526  0.0261  0.0465
  549POPI   C3B 8765   0.572   5.684   9.174 -0.0995 -0.1304 -0.1188
  549POPI   C4B 8766   0.873   5.339   9.263 -0.2386  0.0105  0.2109
  550POPI    C1 8767  12.345   3.021  11.666 -0.0769  0.3040 -0.0003
  550POPI    C2 8768  12.222   3.178  12.013  0.1098  0.1395  0.1433
  550POPI    C3 8769  12.516   3.354  11.807  0.3714 -0.0564  0.3422
  550POPI   PO4 8770  12.197   2.816  11.485  0.0176 -0.0690 -0.1502
  550POPI   GL1 8771  12.060   2.977  11.153  0.0286  0.3573  0.1068
  550POPI   GL2 8772  11.829   3.156  11.123  0.2772  0.0153 -0.4394
  550POPI   C1A 8773  11.876   2.869  10.736  0.2046 -0.2560 -0.0796
  550POPI   D2A 8774  11.846   2.826  10.296 -0.3563  0.3153 -0.0528
  550POPI   C3A 8775  11.452   2.800  10.078  0.1591 -0.2161 -0.1472
  550POPI   C4A 8776  11.338   2.578   9.785 -0.2141 -0.0041 -0.0940
  550POPI   C1B 8777  11.983   3.365  10.769 -0.1919 -0.0113 -0.2331
  550POPI   C2B 8778  12.082   3.287  10.365 -0.1001  0.3110 -0.3576
  550POPI   C3B 8779  12.027   3.257  10.083 -0.1396 -0.2384  0.1070
  550POPI   C4B 8780  11.994   2.961   9.834 -0.0778 -0.0643  0.0630
  551POPI    C1 8781   5.890   8.136  11.693  0.2729 -0.0159  0.0936
  551POPI    C2 8782   6.155   8.334  11.918 -0.0774  0.1149  0.4017
  551POPI    C3 8783   5.866   8.119  12.092 -0.3245  0.1748  0.0751
  551POPI   PO4 8784   5.901   8.207  11.465  0.4018 -0.3388 -0.3506
  551POPI   GL1 8785   5.849   8.446  11.124  0.2572 -0.0137 -0.1325
  551POPI   GL2 8786   6.160   8.496  11.056 -0.1378 -0.1559  0.1288
  551POPI   C1A 8787   5.690   8.353  10.770  0.3662  0.1304 -0.0912
  551POPI   D2A 8788   5.674   8.365  10.383  0.0751  0.0457  0.0816
  551POPI   C3A 8789   5.731   8.296  10.007  0.1144 -0.3808  0.2081
  551POPI   C4A 8790   5.604   8.327   9.642  0.2051 -0.1461  0.0997
  551POPI   C1B 8791   6.117   8.552  10.596  0.2540 -0.3281 -0.0498
  551POPI   C2B 8792   6.170   8.424  10.127  0.0563  0.2722 -0.0498
  551POPI   C3B 8793   6.119   8.546   9.730  0.0727  0.1583 -0.3389
  551POPI   C4B 8794   6.161   8.461   9.361  0.1984  0.1377  0.0647
  552POPI    C1 8795  13.633  10.248  11.281 -0.2042 -0.0315 -0.0484
  552POPI    C2 8796  13.790  10.522  11.527  0.0770 -0.0630 -0.1888
  552POPI    C3 8797  13.641  10.182  11.676 -0.0287  0.0480 -0.0375
  552POPI   PO4 8798  13.502  10.366  11.096  0.0647  0.1258  0.2475
  552POPI   GL1 8799  13.473  10.495  10.727  0.0553 -0.0088  0.0648
  552POPI   GL2 8800  13.383  10.807  10.709 -0.1524 -0.1093 -0.0001
  552POPI   C1A 8801  13.471  10.251  10.309  0.0335  0.2289  0.1588
  552POPI   D2A 8802  13.597  10.217   9.890  0.2945 -0.0871 -0.0760
  552POPI   C3A 8803  13.529  10.252   9.482  0.1245 -0.2029  0.2185
  552POPI   C4A 8804  13.491  10.386   8.923 -0.1116  0.0827 -0.1805
  552POPI   C1B 8805  13.645  10.727  10.373  0.1833  0.1283  0.3306
  552POPI   C2B 8806  13.658  10.712  10.033 -0.0313 -0.0594 -0.1475
  552POPI   C3B 8807  13.726  10.836   9.653  0.2559  0.0028  0.1487
  552POPI   C4B 8808  13.685  10.712   9.283  0.2255  0.0724  0.0344
  553POPI    C1 8809  13.598   9.471  11.625 -0.1049 -0.0221  0.0899
  553POPI    C2 8810  13.587   9.732  11.928 -0.0656  0.1388 -0.0465
  553POPI    C3 8811  13.488   9.350  11.991 -0.0877  0.1776  0.1623
  553POPI   PO4 8812  13.597   9.712  11.416  0.0593  0.1091  0.1559
  553POPI   GL1 8813  13.689   9.833  11.004  0.0200  0.0506 -0.1631
  553POPI   GL2 8814  13.417   9.957  10.760 -0.0482 -0.2240  0.2544
  553POPI   C1A 8815  13.908   9.786  10.650  0.1487 -0.1641  0.3039
  553POPI   D2A 8816  13.813   9.869  10.252  0.1317  0.1915 -0.0352
  553POPI   C3A 8817  13.830   9.810   9.852 -0.2178 -0.1556 -0.1292
  553POPI   C4A 8818  13.918   9.841   9.355 -0.3986  0.3442  0.0459
  553POPI   C1B 8819  13.364   9.750  10.416  0.2093  0.0378  0.0646
  553POPI   C2B 8820  13.381   9.751   9.936 -0.0802  0.1652 -0.0524
  553POPI   C3B 8821  13.415   9.694   9.405 -0.1084  0.0323 -0.2528
  553POPI   C4B 8822  13.521   9.835   9.041 -0.2188 -0.0737  0.1898
  554POPI    C1 8823   9.085  12.301  11.431 -0.0302  0.0057  0.0703
  554POPI    C2 8824   9.184  11.917  11.484 -0.1824 -0.0459 -0.0147
  554POPI    C3 8825   8.930  12.096  11.737 -0.0596  0.0186  0.0639
  554POPI   PO4 8826   9.068  12.360  11.049  0.0234 -0.0351  0.1645
  554POPI   GL1 8827   9.104  12.506  10.677  0.2376  0.1983 -0.2214
  554POPI   GL2 8828   8.915  12.121  10.595 -0.1110 -0.0468  0.2336
  554POPI   C1A 8829   9.081  12.500  10.262 -0.1253  0.0596 -0.2179
  554POPI   D2A 8830   9.096  12.582   9.753 -0.1134  0.1680 -0.2236
  554POPI   C3A 8831   9.076  12.642   9.267  0.0159 -0.1017  0.1092
  554POPI   C4A 8832   9.073  12.690   8.844  0.1416 -0.0968  0.1905
  554POPI   C1B 8833   8.856  12.052  10.202 -0.0710 -0.0194  0.1475
  554POPI   C2B 8834   8.964  12.108   9.784 -0.0629  0.1579 -0.1031
  554POPI   C3B 8835   8.871  12.085   9.340 -0.0337  0.6786 -0.0956
  554POPI   C4B 8836   8.887  12.145   8.882 -0.0608 -0.4275  0.0809
  555POPI    C1 8837  16.960   1.948  11.468  0.1210 -0.1798  0.0234
  555POPI    C2 8838  17.153   1.600  11.510  0.1593 -0.1548  0.0546
  555POPI    C3 8839  16.884   1.713  11.783  0.2438 -0.0981  0.1148
  555POPI   PO4 8840  16.914   1.931  11.207  0.1750  0.0322  0.0672
  555POPI   GL1 8841  16.922   1.764  10.832 -0.0684  0.0437  0.2456
  555POPI   GL2 8842  16.597   1.574  10.914 -0.3453  0.0027  0.3008
  555POPI   C1A 8843  17.011   1.707  10.379 -0.1892  0.1391  0.2094
  555POPI   D2A 8844  17.111   1.698  10.014 -0.0144 -0.0171  0.1811
  555POPI   C3A 8845  17.177   1.747   9.547  0.1156  0.2112 -0.2732
  555POPI   C4A 8846  17.249   1.600   9.155  0.1974 -0.0358  0.0964
  555POPI   C1B 8847  16.489   1.538  10.503 -0.0573  0.2007 -0.0366
  555POPI   C2B 8848  16.590   1.592  10.036  0.2513  0.1595  0.0378
  555POPI   C3B 8849  16.774   1.519   9.660  0.1113 -0.0924  0.1500
  555POPI   C4B 8850  16.701   1.490   9.216  0.0321 -0.3125 -0.0575
  556POPI    C1 8851   4.123   7.804  11.456 -0.1169  0.0535 -0.1978
  556POPI    C2 8852   3.995   7.429  11.402 -0.2367  0.0347  0.1811
  556POPI    C3 8853   4.320   7.499  11.624 -0.0101  0.1358 -0.1722
  556POPI   PO4 8854   4.099   7.894  11.177 -0.1908  0.0853 -0.1328
  556POPI   GL1 8855   4.018   7.784  10.811 -0.2289 -0.0806 -0.0213
  556POPI   GL2 8856   4.395   7.893  10.741  0.0956 -0.1182  0.1662
  556POPI   C1A 8857   3.957   7.879  10.349 -0.0251  0.0288  0.2097
  556POPI   D2A 8858   3.689   7.745   9.994 -0.0342 -0.0112 -0.2328
  556POPI   C3A 8859   3.754   7.460   9.645  0.0532  0.0501 -0.0644
  556POPI   C4A 8860   3.930   7.337   9.361  0.0815 -0.0659 -0.2150
  556POPI   C1B 8861   4.655   8.024  10.398  0.0504 -0.0821  0.0975
  556POPI   C2B 8862   4.716   7.975   9.893  0.0859  0.1946  0.1199
  556POPI   C3B 8863   4.596   7.978   9.411  0.0421  0.2282 -0.0757
  556POPI   C4B 8864   4.656   8.081   9.016  0.0992 -0.0581 -0.0470
  557POPI    C1 8865  16.909   8.155  11.474  0.0936  0.3113  0.2660
  557POPI    C2 8866  16.632   7.893  11.593  0.1115  0.0393 -0.2620
  557POPI    C3 8867  17.020   7.814  11.650  0.1015  0.1923  0.0351
  557POPI   PO4 8868  16.849   8.214  11.262  0.2706 -0.0074  0.1248
  557POPI   GL1 8869  16.806   8.176  10.876  0.2192  0.0186 -0.0214
  557POPI   GL2 8870  16.578   8.364  10.574  0.0394  0.1213 -0.0898
  557POPI   C1A 8871  16.781   7.898  10.521 -0.2124 -0.0012  0.1780
  557POPI   D2A 8872  16.640   7.718  10.186  0.2139  0.2822 -0.0208
  557POPI   C3A 8873  16.640   7.741   9.721 -0.2037 -0.4738 -0.0028
  557POPI   C4A 8874  16.717   7.910   9.360 -0.0287  0.3834 -0.0677
  557POPI   C1B 8875  16.826   8.466  10.106 -0.1037  0.3320  0.0119
  557POPI   C2B 8876  16.872   8.315   9.693 -0.1400  0.0304 -0.4258
  557POPI   C3B 8877  16.996   8.428   9.275 -0.3471  0.3040  0.2237
  557POPI   C4B 8878  17.029   8.503   8.829  0.2216 -0.0646  0.3246
  558POPI    C1 8879   8.910   8.661  11.792 -0.0194 -0.0351 -0.0895
  558POPI    C2 8880   8.776   8.980  11.993 -0.1160  0.2026 -0.5175
  558POPI    C3 8881   9.165   8.946  11.908 -0.0103 -0.0942  0.0368
  558POPI   PO4 8882   8.792   8.616  11.595 -0.0808 -0.2204  0.0417
  558POPI   GL1 8883   8.952   8.400  11.176 -0.1353 -0.1086  0.2710
  558POPI   GL2 8884   8.931   8.770  11.084  0.1038  0.1077 -0.1834
  558POPI   C1A 8885   8.991   8.213  10.766 -0.0836 -0.3359 -0.0595
  558POPI   D2A 8886   8.907   8.165  10.335  0.2290 -0.0182 -0.0221
  558POPI   C3A 8887   8.945   8.277   9.946 -0.2686  0.0818  0.1150
  558POPI   C4A 8888   8.948   8.393   9.546  0.0656  0.0990 -0.2219
  558POPI   C1B 8889   8.991   8.726  10.696  0.0070 -0.0916 -0.0547
  558POPI   C2B 8890   9.035   8.738  10.323 -0.0286 -0.0781  0.0865
  558POPI   C3B 8891   9.061   8.786   9.957  0.2745  0.0080 -0.1541
  558POPI   C4B 8892   9.152   8.872   9.485 -0.0656  0.1849  0.2905
  559POPI    C1 8893   1.482  16.261  11.300 -0.1745  0.0180  0.2902
  559POPI    C2 8894   1.815  16.127  11.478 -0.1840 -0.0529  0.2547
  559POPI    C3 8895   1.601  16.420  11.648 -0.0856  0.0157  0.2610
  559POPI   PO4 8896   1.325  16.046  11.328 -0.0563 -0.1880 -0.2842
  559POPI   GL1 8897   1.146  15.927  11.061 -0.1503 -0.3406 -0.2216
  559POPI   GL2 8898   0.831  15.793  11.087  0.0014 -0.3358  0.0985
  559POPI   C1A 8899   1.067  16.003  10.648 -0.0764 -0.0955  0.0468
  559POPI   D2A 8900   1.021  15.943  10.183 -0.0400 -0.2277 -0.1634
  559POPI   C3A 8901   1.086  15.933   9.751 -0.3036  0.0838  0.3642
  559POPI   C4A 8902   1.143  15.917   9.335 -0.1967  0.0072  0.0114
  559POPI   C1B 8903   0.954  15.525  10.678  0.0006  0.3220  0.1537
  559POPI   C2B 8904   0.952  15.482  10.277 -0.0301  0.0107  0.1129
  559POPI   C3B 8905   0.881  15.463   9.753  0.2314 -0.0766  0.0248
  559POPI   C4B 8906   1.047  15.433   9.431 -0.0883 -0.0944 -0.0330
  560POPI    C1 8907   4.903  13.029  11.543 -0.1473 -0.1003  0.0495
  560POPI    C2 8908   5.182  12.967  11.822 -0.0303 -0.3734 -0.1241
  560POPI    C3 8909   4.860  12.730  11.805 -0.2429 -0.1022  0.0322
  560POPI   PO4 8910   5.015  13.020  11.330  0.1022  0.1557  0.1606
  560POPI   GL1 8911   4.874  12.796  10.942 -0.0912 -0.1801  0.2348
  560POPI   GL2 8912   4.513  12.713  10.869  0.0510 -0.3312 -0.1960
  560POPI   C1A 8913   4.932  12.857  10.474  0.0296 -0.1067  0.1385
  560POPI   D2A 8914   4.969  12.954  10.106 -0.1458  0.0851 -0.3111
  560POPI   C3A 8915   4.845  12.833   9.824 -0.0644 -0.0432  0.0172
  560POPI   C4A 8916   4.891  12.894   9.385  0.2922  0.0060 -0.0656
  560POPI   C1B 8917   4.420  12.693  10.496 -0.0284  0.0548 -0.0169
  560POPI   C2B 8918   4.389  12.601  10.040  0.1511 -0.0414 -0.1218
  560POPI   C3B 8919   4.417  12.817   9.522 -0.0067 -0.1756  0.0659
  560POPI   C4B 8920   4.349  12.856   9.130 -0.1380  0.1772  0.3486
  561POPI    C1 8921   8.565  15.875  11.586  0.0161  0.1810  0.0918
  561POPI    C2 8922   8.302  15.990  11.865 -0.1825 -0.0870  0.0191
  561POPI    C3 8923   8.324  15.605  11.757  0.1340 -0.0418 -0.0880
  561POPI   PO4 8924   8.585  16.019  11.413  0.1118  0.1924 -0.1513
  561POPI   GL1 8925   8.790  16.164  11.097 -0.0595 -0.2284 -0.0376
  561POPI   GL2 8926   9.103  16.001  10.986  0.1776 -0.3679  0.3794
  561POPI   C1A 8927   8.598  16.317  10.742 -0.2015  0.1796 -0.0006
  561POPI   D2A 8928   8.552  16.267  10.456  0.0154 -0.1078 -0.3259
  561POPI   C3A 8929   8.541  16.377  10.084  0.0828 -0.1253 -0.1914
  561POPI   C4A 8930   8.560  16.339   9.712 -0.1840  0.1980  0.2240
  561POPI   C1B 8931   8.924  15.884  10.632 -0.0256 -0.0377 -0.2219
  561POPI   C2B 8932   8.887  16.003  10.146  0.0592  0.0728  0.0992
  561POPI   C3B 8933   8.930  15.954   9.731 -0.1537 -0.2803  0.2083
  561POPI   C4B 8934   8.962  15.883   9.262  0.1272  0.0781 -0.3836
  562POPI    C1 8935   7.760  15.869  11.734 -0.2501  0.0411 -0.1040
  562POPI    C2 8936   7.571  15.692  12.038 -0.0464  0.0648  0.0383
  562POPI    C3 8937   7.864  15.954  12.110 -0.0814  0.1658 -0.1776
  562POPI   PO4 8938   7.682  15.642  11.493  0.0461 -0.2090 -0.0670
  562POPI   GL1 8939   7.725  15.648  11.053  0.1072  0.0352 -0.2813
  562POPI   GL2 8940   7.960  15.591  10.992 -0.1920  0.0565  0.1392
  562POPI   C1A 8941   7.535  15.482  10.666 -0.1258 -0.0914  0.0695
  562POPI   D2A 8942   7.519  15.544  10.231  0.1073 -0.1397  0.0179
  562POPI   C3A 8943   7.426  15.518   9.767  0.0333 -0.0053  0.1324
  562POPI   C4A 8944   7.466  15.490   9.319  0.1724  0.0249 -0.1762
  562POPI   C1B 8945   7.993  15.701  10.583  0.1092 -0.0961  0.4769
  562POPI   C2B 8946   7.980  15.803  10.201  0.1337  0.3741  0.1064
  562POPI   C3B 8947   7.888  15.599   9.739 -0.0758  0.1187  0.2300
  562POPI   C4B 8948   7.969  15.587   9.267  0.1613  0.0304 -0.0532
  563POPI    C1 8949   7.100   5.103  11.442  0.0852  0.0738  0.0499
  563POPI    C2 8950   6.842   4.877  11.647  0.0037  0.1589  0.0420
  563POPI    C3 8951   7.162   5.032  11.830  0.0776  0.0108  0.0396
  563POPI   PO4 8952   7.050   4.998  11.143 -0.1843 -0.3887  0.1634
  563POPI   GL1 8953   7.150   5.176  10.781 -0.1161  0.1034 -0.2983
  563POPI   GL2 8954   7.255   5.473  10.742  0.1991  0.0679 -0.0775
  563POPI   C1A 8955   7.145   4.927  10.465 -0.1783 -0.2229  0.0829
  563POPI   D2A 8956   7.238   4.959  10.023 -0.3494 -0.2945  0.1303
  563POPI   C3A 8957   7.238   5.036   9.578 -0.1474  0.0559  0.2484
  563POPI   C4A 8958   7.174   5.071   9.148 -0.0245  0.1325  0.0950
  563POPI   C1B 8959   7.235   5.409  10.320  0.1382  0.1234 -0.1577
  563POPI   C2B 8960   7.411   5.476   9.899 -0.0360  0.0991 -0.1709
  563POPI   C3B 8961   7.353   5.506   9.491  0.1537  0.1102 -0.0672
  563POPI   C4B 8962   7.412   5.489   9.046 -0.0688  0.0735 -0.1454
  564POPI    C1 8963  12.760   7.333  11.757 -0.1454  0.3372 -0.1927
  564POPI    C2 8964  13.112   7.152  11.813 -0.3162  0.0398 -0.0572
  564POPI    C3 8965  13.056   7.526  11.945 -0.0294  0.1171 -0.1467
  564POPI   PO4 8966  12.689   7.237  11.554  0.2496  0.1330  0.1670
  564POPI   GL1 8967  12.681   7.382  11.162 -0.2435  0.3395  0.2858
  564POPI   GL2 8968  12.852   7.086  11.110 -0.0467 -0.0485 -0.2189
  564POPI   C1A 8969  12.417   7.488  10.938  0.0784  0.1089 -0.1182
  564POPI   D2A 8970  12.316   7.532  10.472 -0.0925 -0.1977  0.0342
  564POPI   C3A 8971  12.334   7.396  10.015 -0.1073  0.0815  0.1190
  564POPI   C4A 8972  12.424   7.470   9.675  0.2800 -0.1019  0.0855
  564POPI   C1B 8973  12.807   7.245  10.688  0.0092  0.2228  0.0374
  564POPI   C2B 8974  12.758   7.114  10.292  0.0473 -0.2173  0.1669
  564POPI   C3B 8975  12.811   7.090   9.848 -0.3060  0.3133 -0.0294
  564POPI   C4B 8976  12.701   7.126   9.386  0.0283 -0.0772 -0.1190
  565POPI    C1 8977   1.496   4.464  11.288  0.0052  0.1644  0.0905
  565POPI    C2 8978   1.619   4.390  11.661  0.0947 -0.1443  0.0036
  565POPI    C3 8979   1.228   4.392  11.576  0.0855 -0.4496  0.0270
  565POPI   PO4 8980   1.597   4.616  11.209 -0.0774 -0.1110  0.1250
  565POPI   GL1 8981   1.833   4.496  10.844 -0.1516  0.1480 -0.0636
  565POPI   GL2 8982   2.089   4.286  10.627  0.0787 -0.0799 -0.3305
  565POPI   C1A 8983   1.722   4.624  10.484 -0.0193  0.0497 -0.0947
  565POPI   D2A 8984   1.669   4.906  10.244  0.1770 -0.0199 -0.0259
  565POPI   C3A 8985   1.661   4.611   9.899  0.0017  0.1260  0.3456
  565POPI   C4A 8986   1.600   4.638   9.462  0.0049  0.1548 -0.1264
  565POPI   C1B 8987   2.010   4.307  10.204 -0.1012  0.1761  0.1169
  565POPI   C2B 8988   2.062   4.314   9.837  0.0034 -0.1646  0.0558
  565POPI   C3B 8989   1.966   4.343   9.446  0.1735 -0.1411  0.2683
  565POPI   C4B 8990   1.757   4.573   9.011 -0.4947 -0.0630  0.0666
  566POPI    C1 8991  10.489  11.300  11.393  0.0216 -0.2445 -0.1638
  566POPI    C2 8992  10.133  11.365  11.563  0.0616 -0.1678 -0.1088
  566POPI    C3 8993  10.388  11.102  11.726  0.1387 -0.0235  0.0061
  566POPI   PO4 8994  10.515  11.144  11.154 -0.1337  0.2520  0.3563
  566POPI   GL1 8995  10.388  11.237  10.707  0.1094 -0.2923 -0.1572
  566POPI   GL2 8996  10.189  11.470  10.582  0.1617 -0.4072 -0.0460
  566POPI   C1A 8997  10.564  11.084  10.393 -0.3576  0.1227  0.0740
  566POPI   D2A 8998  10.550  11.142   9.905 -0.3043  0.2474  0.1717
  566POPI   C3A 8999  10.525  11.223   9.407 -0.0406  0.0282  0.5968
  566POPI   C4A 9000  10.549  11.305   8.987 -0.0345  0.0105 -0.2814
  566POPI   C1B 9001  10.157  11.466  10.174 -0.1707 -0.0577 -0.2274
  566POPI   C2B 9002  10.157  11.516   9.664  0.1523 -0.2404 -0.1463
  566POPI   C3B 9003  10.233  11.596   9.235  0.2105 -0.1703 -0.2994
  566POPI   C4B 9004  10.217  11.691   8.881 -0.6987  0.3796  0.2745
  567POPI    C1 9005  14.996  11.404  11.409  0.0221  0.0336  0.0634
  567POPI    C2 9006  15.318  11.424  11.646  0.1445 -0.0351 -0.0952
  567POPI    C3 9007  14.990  11.634  11.736  0.1149 -0.2223  0.2479
  567POPI   PO4 9008  15.061  11.466  11.089 -0.1846 -0.1616  0.0808
  567POPI   GL1 9009  15.341  11.573  10.741 -0.1215  0.0156  0.3145
  567POPI   GL2 9010  15.280  11.222  10.765 -0.0594  0.2507  0.1721
  567POPI   C1A 9011  15.301  11.660  10.360 -0.1107 -0.1065  0.1090
  567POPI   D2A 9012  15.311  11.683   9.932  0.0566 -0.0493  0.1105
  567POPI   C3A 9013  15.372  11.699   9.498 -0.0447 -0.1834 -0.2774
  567POPI   C4A 9014  15.225  11.774   8.978  0.1179  0.2050  0.0997
  567POPI   C1B 9015  15.228  11.119  10.324 -0.1125 -0.0658 -0.1707
  567POPI   C2B 9016  15.249  11.112   9.982  0.0368  0.0354  0.1369
  567POPI   C3B 9017  15.234  11.176   9.578  0.0500  0.3884  0.1789
  567POPI   C4B 9018  15.299  11.315   9.079 -0.2383  0.1038  0.1522
  568POPI    C1 9019   9.818   5.213  11.511 -0.1679 -0.1206 -0.2219
  568POPI    C2 9020   9.606   5.040  11.804  0.1921  0.0977  0.1791
  568POPI    C3 9021   9.924   5.265  11.893  0.2110  0.3083 -0.3777
  568POPI   PO4 9022   9.541   5.350  11.397  0.2530  0.1818 -0.0318
  568POPI   GL1 9023   9.176   5.266  11.122 -0.0343 -0.0605 -0.1497
  568POPI   GL2 9024   9.491   5.119  10.970  0.4277  0.1255  0.1818
  568POPI   C1A 9025   9.115   5.092  10.729 -0.1347  0.1646  0.2186
  568POPI   D2A 9026   9.033   5.031  10.329  0.3080 -0.1558 -0.2920
  568POPI   C3A 9027   9.113   4.998   9.958 -0.1122 -0.0790 -0.2857
  568POPI   C4A 9028   9.149   5.056   9.539  0.2472  0.0460  0.1495
  568POPI   C1B 9029   9.621   5.203  10.616 -0.1003  0.0172 -0.0589
  568POPI   C2B 9030   9.688   5.194  10.153  0.3902  0.0691 -0.1278
  568POPI   C3B 9031   9.629   5.256   9.748  0.0495 -0.1105  0.0742
  568POPI   C4B 9032   9.578   5.271   9.372 -0.1609 -0.0370 -0.3746
  569POPI    C1 9033   6.147  14.532  11.667  0.0015 -0.4822 -0.1066
  569POPI    C2 9034   5.980  14.294  11.941 -0.1797 -0.0935  0.1297
  569POPI    C3 9035   6.127  14.649  12.049  0.1104 -0.1042 -0.2129
  569POPI   PO4 9036   6.007  14.628  11.490 -0.3295  0.0228 -0.1437
  569POPI   GL1 9037   6.154  14.858  11.113  0.0217 -0.2180 -0.1264
  569POPI   GL2 9038   5.919  15.066  11.119  0.0899  0.0558 -0.0930
  569POPI   C1A 9039   5.957  14.600  10.877  0.1760  0.0990 -0.3004
  569POPI   D2A 9040   5.797  14.513  10.405  0.2597 -0.0923 -0.1647
  569POPI   C3A 9041   5.853  14.491   9.933  0.2295  0.1119 -0.0133
  569POPI   C4A 9042   5.927  14.580   9.477  0.0520 -0.0897  0.2420
  569POPI   C1B 9043   5.950  15.239  10.746  0.0266  0.2299 -0.0274
  569POPI   C2B 9044   5.914  15.149  10.389  0.1097 -0.0449  0.2655
  569POPI   C3B 9045   5.990  15.018   9.900 -0.0401 -0.0019 -0.0935
  569POPI   C4B 9046   6.000  15.083   9.525  0.1796  0.1061  0.1461
  570POPI    C1 9047   8.647  10.883  11.732 -0.2160  0.2917  0.1445
  570POPI    C2 9048   9.000  11.071  11.753  0.1282 -0.3252  0.1095
  570POPI    C3 9049   8.877  10.840  12.056 -0.1154 -0.3409  0.0015
  570POPI   PO4 9050   8.649  10.801  11.443  0.1506  0.1489  0.0700
  570POPI   GL1 9051   8.431  10.842  11.095  0.3530 -0.0365 -0.0572
  570POPI   GL2 9052   8.463  11.114  11.063 -0.0075  0.3546  0.2405
  570POPI   C1A 9053   8.476  10.624  10.691  0.0736  0.0702  0.1877
  570POPI   D2A 9054   8.486  10.563  10.253 -0.1621 -0.1490  0.1100
  570POPI   C3A 9055   8.592  10.650   9.894  0.3195  0.0019 -0.0009
  570POPI   C4A 9056   8.669  10.594   9.465  0.0131  0.2630 -0.2379
  570POPI   C1B 9057   8.589  11.076  10.663 -0.0410 -0.1760  0.1864
  570POPI   C2B 9058   8.651  11.051  10.201 -0.1049 -0.2238 -0.0402
  570POPI   C3B 9059   8.664  11.140   9.874 -0.4272 -0.0400 -0.0905
  570POPI   C4B 9060   8.816  11.082   9.477  0.3405 -0.0391  0.0747
  571POPI    C1 9061   0.962   5.232  11.363 -0.1277  0.0538  0.2219
  571POPI    C2 9062   1.199   5.410  11.632 -0.0259  0.0911  0.1084
  571POPI    C3 9063   0.866   5.223  11.751  0.1869 -0.1748  0.2978
  571POPI   PO4 9064   0.968   5.317  11.161 -0.3417 -0.0506 -0.0337
  571POPI   GL1 9065   0.892   5.211  10.838  0.0874  0.0596  0.0118
  571POPI   GL2 9066   0.715   5.035  10.739 -0.0229  0.2800 -0.2191
  571POPI   C1A 9067   1.213   5.260  10.491  0.1109  0.2907  0.1884
  571POPI   D2A 9068   1.274   5.119  10.115  0.0249 -0.0347  0.0683
  571POPI   C3A 9069   1.294   4.998   9.782 -0.2365  0.1718 -0.1132
  571POPI   C4A 9070   1.203   4.983   9.406 -0.1923 -0.1182 -0.2777
  571POPI   C1B 9071   0.979   4.728  10.532  0.2609  0.2001  0.0416
  571POPI   C2B 9072   1.228   4.505  10.205 -0.0927  0.2418 -0.0089
  571POPI   C3B 9073   1.128   4.524   9.735  0.1610  0.0740 -0.0336
  571POPI   C4B 9074   1.125   4.464   9.304 -0.0389  0.0420  0.4038
  572POPI    C1 9075   3.543  10.051  11.642  0.1040  0.0202  0.1503
  572POPI    C2 9076   3.186   9.920  11.766  0.0312  0.0913  0.0172
  572POPI    C3 9077   3.363  10.226  11.954 -0.0554  0.1659 -0.0213
  572POPI   PO4 9078   3.445  10.009  11.352  0.3033 -0.3163  0.1483
  572POPI   GL1 9079   3.422  10.136  11.051  0.1341  0.2562  0.2877
  572POPI   GL2 9080   3.521  10.432  11.128 -0.0349 -0.0389 -0.1301
  572POPI   C1A 9081   3.222  10.060  10.619  0.1259  0.1063  0.0573
  572POPI   D2A 9082   3.270   9.985  10.282  0.3573 -0.1932 -0.2416
  572POPI   C3A 9083   3.294  10.005   9.792  0.1265  0.2464  0.0688
  572POPI   C4A 9084   3.394  10.056   9.411 -0.1010  0.0272  0.0526
  572POPI   C1B 9085   3.441  10.550  10.732  0.0669  0.1764  0.1024
  572POPI   C2B 9086   3.372  10.614  10.235 -0.0879 -0.2627 -0.0827
  572POPI   C3B 9087   3.436  10.593   9.743  0.0119  0.3335  0.0145
  572POPI   C4B 9088   3.489  10.704   9.258 -0.2935 -0.1874  0.1313
  573POPI    C1 9089   5.918   4.081  11.241  0.1452  0.0130 -0.1760
  573POPI    C2 9090   6.078   3.887  11.552  0.0704 -0.0437 -0.1724
  573POPI    C3 9091   5.763   4.127  11.607  0.0397 -0.0755 -0.2088
  573POPI   PO4 9092   5.867   4.030  11.087  0.0460  0.4180 -0.4718
  573POPI   GL1 9093   5.758   4.094  10.679  0.0313  0.2164  0.1837
  573POPI   GL2 9094   6.170   4.043  10.695 -0.1031 -0.1693  0.0485
  573POPI   C1A 9095   5.945   4.081  10.193 -0.1942 -0.0810 -0.3038
  573POPI   D2A 9096   6.119   4.171   9.821  0.0717  0.0795 -0.0495
  573POPI   C3A 9097   6.186   4.130   9.358 -0.0619  0.0961  0.0673
  573POPI   C4A 9098   6.029   4.171   8.928 -0.0334  0.1880 -0.0502
  573POPI   C1B 9099   6.390   4.241  10.371  0.1515  0.2358 -0.1685
  573POPI   C2B 9100   6.539   4.310  10.034  0.2800  0.1280 -0.0447
  573POPI   C3B 9101   6.649   4.451   9.622  0.1438 -0.0040  0.4974
  573POPI   C4B 9102   6.684   4.430   9.251 -0.2117  0.0763  0.1482
  574DPPI    C1 9103   8.885  14.111  11.330 -0.1671 -0.0765  0.2033
  574DPPI    C2 9104   8.966  13.827  11.600  0.2682 -0.0825  0.0749
  574DPPI    C3 9105   9.054  14.209  11.679  0.0401 -0.0316  0.0918
  574DPPI   PO4 9106   8.902  14.087  11.069  0.0275  0.0685  0.1461
  574DPPI   GL1 9107   9.174  14.208  10.715 -0.2066  0.0761  0.0003
  574DPPI   GL2 9108   9.336  13.927  10.641  0.2850  0.1881 -0.2970
  574DPPI   C1A 9109   9.125  14.496  10.325  0.1615 -0.1006 -0.1052
  574DPPI   C2A 9110   9.093  14.654   9.884  0.1184 -0.0877  0.2044
  574DPPI   C3A 9111   9.082  14.571   9.414  0.0379 -0.0949  0.0070
  574DPPI   C4A 9112   8.994  14.502   8.929  0.2085  0.3024  0.0627
  574DPPI   C1B 9113   9.474  14.113  10.350 -0.0219  0.1579  0.0088
  574DPPI   C2B 9114   9.554  14.200   9.932  0.0754 -0.3192  0.1061
  574DPPI   C3B 9115   9.480  14.176   9.515  0.0701  0.1266 -0.3185
  574DPPI   C4B 9116   9.364  14.175   9.097  0.0113 -0.2626 -0.0982
  575DPPI    C1 9117   3.734   6.609  11.657  0.0532 -0.2382 -0.1615
  575DPPI    C2 9118   3.564   6.546  12.014  0.0477  0.2194 -0.0772
  575DPPI    C3 9119   3.958   6.609  11.989  0.0439  0.2147 -0.1498
  575DPPI   PO4 9120   3.616   6.383  11.540  0.0992  0.0951  0.1319
  575DPPI   GL1 9121   3.468   6.279  11.079  0.3026  0.1754  0.1429
  575DPPI   GL2 9122   3.413   5.973  10.935  0.4216 -0.3541  0.2207
  575DPPI   C1A 9123   3.519   6.366  10.704 -0.0441 -0.0652 -0.1025
  575DPPI   C2A 9124   3.805   6.465  10.361  0.1408  0.1186 -0.2892
  575DPPI   C3A 9125   3.971   6.688  10.001 -0.0753  0.2128  0.0182
  575DPPI   C4A 9126   3.785   6.927   9.703  0.0455 -0.0453 -0.1594
  575DPPI   C1B 9127   3.550   5.888  10.497  0.2706 -0.2566 -0.0373
  575DPPI   C2B 9128   3.687   6.100  10.044  0.2165 -0.3793 -0.1955
  575DPPI   C3B 9129   3.795   6.335   9.748  0.3446 -0.0716 -0.1403
  575DPPI   C4B 9130   4.136   6.614   9.482  0.1075 -0.1168  0.1134
  576DPPI    C1 9131   8.167   1.951  11.960  0.0603 -0.1468 -0.0862
  576DPPI    C2 9132   8.430   1.663  12.052  0.1658 -0.0067  0.0569
  576DPPI    C3 9133   8.341   1.945  12.321 -0.4277 -0.2728  0.1548
  576DPPI   PO4 9134   8.352   2.005  11.727 -0.0695  0.1763  0.2539
  576DPPI   GL1 9135   8.212   1.949  11.274 -0.0773 -0.0785  0.1459
  576DPPI   GL2 9136   8.360   2.160  11.069 -0.1293  0.2216  0.0330
  576DPPI   C1A 9137   8.435   1.575  11.048  0.2174 -0.0579 -0.3464
  576DPPI   C2A 9138   8.319   1.464  10.691 -0.0305 -0.0135  0.1952
  576DPPI   C3A 9139   8.290   1.403  10.169  0.2329 -0.2158  0.1465
  576DPPI   C4A 9140   8.306   1.405   9.654 -0.2802 -0.2263 -0.2270
  576DPPI   C1B 9141   8.382   1.980  10.625  0.0017 -0.3472 -0.2764
  576DPPI   C2B 9142   8.382   1.912  10.149 -0.1091 -0.0602  0.2252
  576DPPI   C3B 9143   8.436   2.002   9.771 -0.1924  0.2086 -0.1360
  576DPPI   C4B 9144   8.461   2.060   9.329  0.0590 -0.2034  0.0284
  577DPPI    C1 9145  15.622   2.709  11.526 -0.0078 -0.0838  0.1278
  577DPPI    C2 9146  15.376   2.641  11.833 -0.0431  0.0535  0.1304
  577DPPI    C3 9147  15.426   3.014  11.696  0.0917  0.0135  0.0699
  577DPPI   PO4 9148  15.602   2.519  11.224 -0.0337  0.3926 -0.3547
  577DPPI   GL1 9149  15.473   2.672  10.782 -0.3023  0.0956 -0.2205
  577DPPI   GL2 9150  15.740   2.435  10.710 -0.1316  0.2391  0.0747
  577DPPI   C1A 9151  15.418   2.797  10.408  0.1098  0.0399  0.1810
  577DPPI   C2A 9152  15.477   2.669   9.950 -0.0057 -0.1967 -0.1770
  577DPPI   C3A 9153  15.560   2.564   9.499 -0.0096 -0.1220 -0.0958
  577DPPI   C4A 9154  15.607   2.694   9.027 -0.1629  0.2537 -0.5511
  577DPPI   C1B 9155  15.780   2.397  10.279  0.1109  0.1689  0.0760
  577DPPI   C2B 9156  15.954   2.272   9.925 -0.0989  0.1535 -0.1424
  577DPPI   C3B 9157  15.909   2.186   9.548 -0.1525 -0.1255 -0.1538
  577DPPI   C4B 9158  16.074   2.226   9.098 -0.1312 -0.3623 -0.3286
  578DPPI    C1 9159   5.218   6.540  11.604 -0.0373 -0.0515  0.1286
  578DPPI    C2 9160   5.045   6.391  11.933  0.1223  0.0096  0.2417
  578DPPI    C3 9161   4.927   6.745  11.787 -0.0494 -0.0854  0.1473
  578DPPI   PO4 9162   5.203   6.330  11.393  0.1438  0.1017 -0.1283
  578DPPI   GL1 9163   5.369   6.335  10.938  0.2665  0.1139  0.0298
  578DPPI   GL2 9164   5.139   6.108  10.846  0.0293 -0.0040 -0.2194
  578DPPI   C1A 9165   5.636   6.456  10.621  0.2566  0.0616  0.1221
  578DPPI   C2A 9166   5.675   6.372  10.198 -0.2452  0.0183 -0.0577
  578DPPI   C3A 9167   5.683   6.469   9.804 -0.3474  0.2055  0.0913
  578DPPI   C4A 9168   5.355   6.814   9.598 -0.0052  0.2111 -0.1880
  578DPPI   C1B 9169   5.212   6.194  10.473 -0.0619  0.0449 -0.1532
  578DPPI   C2B 9170   5.214   6.425  10.011  0.2525  0.2924  0.0415
  578DPPI   C3B 9171   5.207   6.313   9.567  0.1245 -0.0398  0.1287
  578DPPI   C4B 9172   5.123   6.283   9.113 -0.2689  0.0939 -0.3975
  579DPPI    C1 9173   4.665   2.057  11.449 -0.2733  0.3675  0.3699
  579DPPI    C2 9174   4.835   2.081  11.810  0.0436 -0.0864  0.2599
  579DPPI    C3 9175   4.680   1.734  11.685  0.0118  0.0446 -0.0734
  579DPPI   PO4 9176   4.830   2.169  11.299 -0.1027  0.1182 -0.2098
  579DPPI   GL1 9177   5.117   2.145  11.052  0.0525  0.0205  0.2127
  579DPPI   GL2 9178   5.275   2.380  10.927  0.0084 -0.1937 -0.0619
  579DPPI   C1A 9179   5.208   1.930  10.676 -0.0381 -0.0555  0.3282
  579DPPI   C2A 9180   5.228   1.902  10.236  0.1992 -0.1460 -0.3198
  579DPPI   C3A 9181   5.214   1.949   9.761 -0.0991 -0.2978  0.1674
  579DPPI   C4A 9182   5.359   1.977   9.326  0.1292  0.0961 -0.0028
  579DPPI   C1B 9183   5.284   2.416  10.475 -0.3321  0.0294  0.0182
  579DPPI   C2B 9184   5.374   2.469  10.132 -0.1754 -0.0177  0.2703
  579DPPI   C3B 9185   5.389   2.429   9.664 -0.0240 -0.1484  0.1856
  579DPPI   C4B 9186   5.398   2.495   9.219 -0.1261  0.2510 -0.1018
  580DPPI    C1 9187   8.372   3.804  11.971  0.1999  0.0783 -0.2742
  580DPPI    C2 9188   8.440   3.620  12.320 -0.0043 -0.0604 -0.3056
  580DPPI    C3 9189   8.450   4.019  12.299  0.2101 -0.0580 -0.1865
  580DPPI   PO4 9190   8.494   3.667  11.789 -0.1965  0.2351 -0.0010
  580DPPI   GL1 9191   8.479   3.734  11.355  0.3218  0.0267  0.4269
  580DPPI   GL2 9192   8.644   3.865  11.365 -0.0831 -0.3554 -0.0399
  580DPPI   C1A 9193   8.696   3.580  10.954 -0.1817 -0.1341 -0.3288
  580DPPI   C2A 9194   8.842   3.614  10.505  0.0532  0.1215 -0.0207
  580DPPI   C3A 9195   8.877   3.514  10.033 -0.0254  0.2426  0.1583
  580DPPI   C4A 9196   8.782   3.561   9.616  0.1655 -0.1913 -0.0110
  580DPPI   C1B 9197   8.353   3.966  10.958  0.0259 -0.0794  0.1533
  580DPPI   C2B 9198   8.438   3.954  10.524 -0.2176 -0.4404  0.0137
  580DPPI   C3B 9199   8.409   3.907  10.112 -0.0624 -0.2091  0.0109
  580DPPI   C4B 9200   8.340   3.842   9.631  0.1185 -0.2493 -0.3308
  581DPPI    C1 9201   6.694   4.406  11.479  0.1010 -0.1708  0.2318
  581DPPI    C2 9202   6.305   4.340  11.541  0.0767 -0.1877  0.0668
  581DPPI    C3 9203   6.575   4.072  11.663  0.0255 -0.2529  0.0370
  581DPPI   PO4 9204   6.735   4.417  11.255  0.0148  0.0018 -0.2096
  581DPPI   GL1 9205   6.584   4.310  10.815  0.2419  0.4760 -0.1306
  581DPPI   GL2 9206   6.866   4.111  10.817 -0.0344  0.1502 -0.1688
  581DPPI   C1A 9207   6.969   4.412  10.389  0.0365 -0.0060  0.0962
  581DPPI   C2A 9208   6.989   4.493  10.006  0.0770  0.3196 -0.0462
  581DPPI   C3A 9209   7.205   4.541   9.678 -0.3900  0.0174  0.1224
  581DPPI   C4A 9210   7.143   4.569   9.232  0.1482  0.2901 -0.1429
  581DPPI   C1B 9211   6.940   3.936  10.462 -0.0518 -0.0503 -0.0409
  581DPPI   C2B 9212   6.979   4.007  10.071 -0.0490  0.0035  0.2577
  581DPPI   C3B 9213   6.975   4.082   9.626 -0.1752  0.2047 -0.1256
  581DPPI   C4B 9214   7.118   4.082   9.170  0.1170 -0.1872 -0.0738
  582DPPI    C1 9215   1.955   0.698  11.417  0.2682  0.0242 -0.0519
  582DPPI    C2 9216   1.670   0.912  11.600  0.0942 -0.1311 -0.1382
  582DPPI    C3 9217   1.725   0.527  11.696  0.0361 -0.1996 -0.3728
  582DPPI   PO4 9218   1.948   0.775  11.115  0.2866 -0.2534  0.2912
  582DPPI   GL1 9219   1.690   0.623  10.757  0.0189 -0.3585 -0.0865
  582DPPI   GL2 9220   2.047   0.547  10.633 -0.0138 -0.2953  0.2247
  582DPPI   C1A 9221   1.450   0.363  10.330  0.0461  0.1985 -0.0305
  582DPPI   C2A 9222   1.603   0.400   9.855 -0.0464  0.4094  0.0784
  582DPPI   C3A 9223   1.638   0.362   9.407  0.0044 -0.0409  0.1033
  582DPPI   C4A 9224   1.493   0.374   8.929 -0.2750 -0.1203  0.0959
  582DPPI   C1B 9225   2.047   0.453  10.167 -0.0853  0.0711  0.0312
  582DPPI   C2B 9226   2.063   0.545   9.650 -0.0838 -0.1571  0.1016
  582DPPI   C3B 9227   2.089   0.611   9.372  0.2600 -0.1534 -0.0741
  582DPPI   C4B 9228   2.161   0.659   8.915  0.0192  0.1265  0.0115
  583DPPI    C1 9229  16.586  13.374  11.959  0.1115  0.0567  0.2762
  583DPPI    C2 9230  16.225  13.435  12.121 -0.1518 -0.4728 -0.0784
  583DPPI    C3 9231  16.536  13.339  12.354 -0.2269  0.0058  0.2325
  583DPPI   PO4 9232  16.534  13.467  11.691  0.0229  0.0238  0.0417
  583DPPI   GL1 9233  16.637  13.294  11.253 -0.1145 -0.0225 -0.2056
  583DPPI   GL2 9234  16.669  13.027  11.136  0.1847 -0.0062 -0.3610
  583DPPI   C1A 9235  16.724  13.504  10.702  0.0447  0.1086 -0.1620
  583DPPI   C2A 9236  16.633  13.488  10.225  0.1801 -0.1949 -0.1022
  583DPPI   C3A 9237  16.610  13.525   9.681 -0.0314 -0.1115  0.3014
  583DPPI   C4A 9238  16.696  13.439   9.265 -0.1857 -0.0815 -0.0064
  583DPPI   C1B 9239  16.470  13.069  10.745 -0.1588  0.1546  0.2472
  583DPPI   C2B 9240  16.502  13.033  10.264 -0.0682 -0.1683 -0.1552
  583DPPI   C3B 9241  16.467  13.006   9.848 -0.1919 -0.2555  0.0984
  583DPPI   C4B 9242  16.501  12.999   9.431 -0.2134  0.2790  0.1006
  584DPPI    C1 9243   3.670  16.617  11.760 -0.0218  0.1242 -0.0373
  584DPPI    C2 9244   4.029  16.580  11.934 -0.0447  0.0054 -0.0143
  584DPPI    C3 9245   3.698  16.480  12.135 -0.0936  0.1441 -0.0247
  584DPPI   PO4 9246   3.759  16.429  11.479  0.2860 -0.1570  0.1802
  584DPPI   GL1 9247   3.579  16.514  11.074 -0.4659 -0.0024  0.0563
  584DPPI   GL2 9248   3.441  16.173  11.019 -0.2138  0.4608  0.1889
  584DPPI   C1A 9249   3.598  16.639  10.651 -0.1655  0.0459  0.1004
  584DPPI   C2A 9250   3.512  16.801  10.304  0.0611  0.4351  0.0565
  584DPPI   C3A 9251   3.644  16.727   9.821  0.0629  0.1399 -0.0643
  584DPPI   C4A 9252   3.575  16.728   9.392 -0.3342 -0.0706  0.2370
  584DPPI   C1B 9253   3.525  16.164  10.509  0.0951  0.1959  0.2990
  584DPPI   C2B 9254   3.530  16.211  10.101 -0.0882 -0.0521 -0.2183
  584DPPI   C3B 9255   3.512  16.250   9.624  0.2163 -0.2101 -0.2159
  584DPPI   C4B 9256   3.469  16.122   9.243 -0.1007 -0.1610 -0.1478
  585DPPI    C1 9257  14.773   6.496  11.491  0.1970 -0.0836 -0.3264
  585DPPI    C2 9258  14.937   6.131  11.470  0.0647 -0.1884  0.2710
  585DPPI    C3 9259  15.081   6.401  11.728  0.2542  0.2425 -0.2653
  585DPPI   PO4 9260  14.763   6.484  11.133  0.0324  0.2512  0.0476
  585DPPI   GL1 9261  14.519   6.687  10.714 -0.2079  0.2797 -0.1684
  585DPPI   GL2 9262  14.671   6.920  10.761  0.4135  0.1005  0.0817
  585DPPI   C1A 9263  14.289   6.608  10.453 -0.1811 -0.1298  0.1809
  585DPPI   C2A 9264  14.125   6.617  10.077 -0.1092 -0.2319  0.0731
  585DPPI   C3A 9265  13.976   6.699   9.760  0.0071  0.0755 -0.0049
  585DPPI   C4A 9266  14.193   6.528   9.308 -0.3369 -0.3256 -0.2095
  585DPPI   C1B 9267  14.730   7.141  10.446  0.2240  0.2088 -0.1576
  585DPPI   C2B 9268  15.097   7.233  10.089 -0.0713 -0.2372  0.0605
  585DPPI   C3B 9269  15.148   7.445   9.656 -0.0952 -0.0222  0.0367
  585DPPI   C4B 9270  15.233   7.681   9.339  0.0489  0.2467  0.2258
  586DPPI    C1 9271  11.349   2.334  11.432 -0.2645  0.0704 -0.1589
  586DPPI    C2 9272  10.995   2.383  11.612 -0.1201  0.1302  0.1145
  586DPPI    C3 9273  11.159   2.685  11.407 -0.0959  0.1950  0.2285
  586DPPI   PO4 9274  11.329   2.038  11.373  0.1552 -0.4776 -0.0275
  586DPPI   GL1 9275  11.633   1.712  11.228 -0.0549  0.1712 -0.0105
  586DPPI   GL2 9276  11.283   1.610  11.182  0.0957  0.0454  0.4495
  586DPPI   C1A 9277  11.633   1.862  10.783  0.1504 -0.0262 -0.1986
  586DPPI   C2A 9278  11.734   1.889  10.372  0.0625 -0.0493 -0.0834
  586DPPI   C3A 9279  11.699   1.906   9.917 -0.1837 -0.4627 -0.1119
  586DPPI   C4A 9280  11.723   2.143   9.545 -0.1272  0.0338 -0.2391
  586DPPI   C1B 9281  11.139   1.726  10.712  0.0360  0.2258  0.0666
  586DPPI   C2B 9282  11.184   1.768  10.319  0.0020  0.1158 -0.0626
  586DPPI   C3B 9283  11.124   1.783   9.882  0.0741  0.1853  0.0019
  586DPPI   C4B 9284  11.316   1.876   9.559  0.1935  0.1782  0.1939
  587DPPI    C1 9285   4.683  17.488  11.644  0.2726 -0.2564 -0.0330
  587DPPI    C2 9286   4.793  17.196  11.895  0.1341 -0.1916  0.1051
  587DPPI    C3 9287   4.435  17.370  11.935  0.2207  0.0069  0.0324
  587DPPI   PO4 9288   4.735  17.367  11.402  0.1010 -0.0665 -0.2599
  587DPPI   GL1 9289   4.678  17.214  11.040  0.0423 -0.0889  0.1257
  587DPPI   GL2 9290   4.503  17.073  10.866  0.4153  0.1053 -0.0471
  587DPPI   C1A 9291   4.682  17.490  10.631  0.0404  0.0884 -0.1079
  587DPPI   C2A 9292   4.640  17.557  10.250 -0.2390  0.0454 -0.3068
  587DPPI   C3A 9293   4.717  17.520   9.849  0.4547  0.1384 -0.1985
  587DPPI   C4A 9294   4.808  17.459   9.330  0.1718  0.1241 -0.1185
  587DPPI   C1B 9295   4.611  16.967  10.416  0.3115 -0.0036  0.2248
  587DPPI   C2B 9296   4.612  17.068   9.938  0.5348  0.0568 -0.4728
  587DPPI   C3B 9297   4.633  17.033   9.512  0.3684  0.0971 -0.0790
  587DPPI   C4B 9298   4.678  16.995   9.018 -0.1693  0.2532 -0.2035
  588DPPI    C1 9299  10.731  10.636  11.549 -0.1009 -0.0270 -0.1653
  588DPPI    C2 9300  10.868  11.011  11.545  0.2028 -0.1346 -0.0873
  588DPPI    C3 9301  10.811  10.823  11.893  0.3087 -0.2516 -0.1321
  588DPPI   PO4 9302  10.564  10.614  11.330 -0.1378  0.1646  0.0642
  588DPPI   GL1 9303  10.705  10.441  11.032  0.0450  0.0475 -0.2148
  588DPPI   GL2 9304  10.453  10.750  10.818 -0.1196 -0.0727  0.1070
  588DPPI   C1A 9305  10.786  10.198  10.626 -0.0063 -0.1626  0.0904
  588DPPI   C2A 9306  10.794  10.258  10.166 -0.1256  0.2873 -0.1923
  588DPPI   C3A 9307  10.789  10.215   9.830  0.1305  0.0404 -0.0317
  588DPPI   C4A 9308  10.692  10.337   9.363 -0.2782 -0.2033  0.2200
  588DPPI   C1B 9309  10.385  10.606  10.438 -0.1208 -0.4258 -0.2526
  588DPPI   C2B 9310  10.417  10.675  10.004 -0.2920  0.0584 -0.1128
  588DPPI   C3B 9311  10.440  10.750   9.572 -0.2472  0.1438  0.0238
  588DPPI   C4B 9312  10.510  10.816   9.055 -0.1298  0.1111  0.0395
  589DPPI    C1 9313  11.423   4.404  11.538  0.2158 -0.2597  0.1882
  589DPPI    C2 9314  11.502   4.680  11.816  0.0604  0.0925 -0.1090
  589DPPI    C3 9315  11.309   4.345  11.916  0.1442  0.1432  0.2344
  589DPPI   PO4 9316  11.351   4.470  11.357  0.2741 -0.0630  0.0309
  589DPPI   GL1 9317  11.348   4.651  11.011 -0.1027  0.1718 -0.0615
  589DPPI   GL2 9318  11.479   4.395  10.824 -0.1990 -0.1777  0.0213
  589DPPI   C1A 9319  11.491   4.803  10.584 -0.3339  0.4237  0.0303
  589DPPI   C2A 9320  11.345   4.781  10.260  0.1842  0.1119  0.2791
  589DPPI   C3A 9321  11.362   4.779   9.843 -0.0989  0.2032 -0.3483
  589DPPI   C4A 9322  11.245   4.925   9.574  0.1149  0.0291 -0.1494
  589DPPI   C1B 9323  11.244   4.286  10.509 -0.2923 -0.0357  0.1400
  589DPPI   C2B 9324  11.297   4.298  10.078 -0.1785 -0.0896 -0.0820
  589DPPI   C3B 9325  11.212   4.346   9.658 -0.3548 -0.0699  0.0024
  589DPPI   C4B 9326  11.231   4.465   9.188  0.2220 -0.0675  0.0669
  590DPPI    C1 9327  12.943   3.592  11.519  0.0648  0.1764  0.1438
  590DPPI    C2 9328  13.285   3.398  11.445 -0.0645  0.0786 -0.2216
  590DPPI    C3 9329  13.146   3.424  11.819  0.2031 -0.1136 -0.1058
  590DPPI   PO4 9330  12.774   3.433  11.338  0.0458 -0.0264 -0.3131
  590DPPI   GL1 9331  12.833   3.315  10.905 -0.0684  0.2912 -0.0253
  590DPPI   GL2 9332  12.477   3.131  10.781 -0.2105 -0.0040 -0.0211
  590DPPI   C1A 9333  12.978   3.286  10.540 -0.3239 -0.2404  0.2415
  590DPPI   C2A 9334  13.080   3.217  10.107 -0.2577  0.1187  0.4377
  590DPPI   C3A 9335  12.949   3.193   9.668  0.3077  0.0608 -0.2651
  590DPPI   C4A 9336  12.654   3.494   9.351  0.2220  0.0158 -0.0405
  590DPPI   C1B 9337  12.562   3.237  10.354 -0.2546 -0.0871 -0.0695
  590DPPI   C2B 9338  12.566   3.211  10.003  0.2494 -0.3881 -0.1886
  590DPPI   C3B 9339  12.435   3.022   9.668 -0.0663  0.1823  0.0966
  590DPPI   C4B 9340  12.084   3.002   9.341 -0.2218 -0.1043 -0.0358
  591DPPI    C1 9341   7.979   0.176  11.663 -0.0758  0.2204 -0.0824
  591DPPI    C2 9342   7.630   0.116  11.850  0.0251  0.0297  0.0481
  591DPPI    C3 9343   7.943   0.260  12.053  0.0637  0.0624 -0.0344
  591DPPI   PO4 9344   7.869   0.212  11.433  0.0930 -0.0606 -0.2490
  591DPPI   GL1 9345   8.045   0.213  11.044 -0.0656 -0.1228 -0.0590
  591DPPI   GL2 9346   8.075   0.550  10.960  0.0523  0.1006 -0.1577
  591DPPI   C1A 9347   7.968  -0.067  10.681  0.0261  0.1792 -0.1479
  591DPPI   C2A 9348   7.939  -0.017  10.277 -0.0462 -0.1023 -0.2031
  591DPPI   C3A 9349   8.034  -0.052   9.845 -0.0039 -0.1427  0.1539
  591DPPI   C4A 9350   8.026  -0.105   9.372  0.0549 -0.1374 -0.2019
  591DPPI   C1B 9351   8.078   0.447  10.513 -0.1680  0.2293  0.3161
  591DPPI   C2B 9352   8.126   0.423  10.074  0.2358  0.1036  0.0874
  591DPPI   C3B 9353   8.128   0.370   9.675 -0.0236  0.0226 -0.1660
  591DPPI   C4B 9354   8.245   0.422   9.188 -0.0362  0.4204 -0.3097
  592DPPI    C1 9355   7.117   8.910  11.590 -0.1576 -0.2658 -0.0803
  592DPPI    C2 9356   6.730   8.999  11.638  0.0123  0.2723  0.4066
  592DPPI    C3 9357   6.930   8.816  11.931  0.0782 -0.2288  0.0612
  592DPPI   PO4 9358   7.068   8.791  11.370  0.0472  0.0925 -0.3618
  592DPPI   GL1 9359   7.131   8.842  11.055 -0.0853 -0.0033  0.0100
  592DPPI   GL2 9360   7.497   8.776  11.101  0.1345  0.1113  0.0026
  592DPPI   C1A 9361   7.095   8.856  10.652  0.0473 -0.2187 -0.0671
  592DPPI   C2A 9362   7.007   8.846  10.237 -0.2020  0.2304  0.1358
  592DPPI   C3A 9363   7.195   8.894   9.916 -0.2812  0.0087 -0.0235
  592DPPI   C4A 9364   7.175   8.839   9.478 -0.3240  0.3708 -0.3923
  592DPPI   C1B 9365   7.577   8.809  10.640 -0.0740 -0.2622 -0.0823
  592DPPI   C2B 9366   7.656   8.888  10.211  0.1018  0.0001 -0.0079
  592DPPI   C3B 9367   7.724   8.932   9.795  0.0395 -0.0723  0.1391
  592DPPI   C4B 9368   7.631   9.008   9.325  0.1223  0.2099 -0.2371
  593DPPI    C1 9369   4.934   3.154  11.251 -0.1044 -0.1063 -0.0078
  593DPPI    C2 9370   4.710   3.181  11.581  0.0007  0.2274  0.0403
  593DPPI    C3 9371   5.066   3.000  11.596 -0.2208 -0.2280 -0.0167
  593DPPI   PO4 9372   4.936   3.373  11.105 -0.0663  0.1082 -0.0726
  593DPPI   GL1 9373   4.762   3.340  10.652  0.0199  0.0482 -0.0548
  593DPPI   GL2 9374   4.545   3.387  10.604 -0.2622  0.0390 -0.0619
  593DPPI   C1A 9375   4.994   3.297  10.239 -0.2359  0.0977 -0.1373
  593DPPI   C2A 9376   5.356   3.407  10.014 -0.0132  0.0889  0.2053
  593DPPI   C3A 9377   5.541   3.479   9.539  0.0547  0.2200  0.1774
  593DPPI   C4A 9378   5.595   3.436   9.251  0.0684 -0.1819 -0.0380
  593DPPI   C1B 9379   4.481   3.105  10.252  0.2494 -0.2654  0.3136
  593DPPI   C2B 9380   4.627   3.107   9.819  0.1730 -0.2862 -0.1323
  593DPPI   C3B 9381   4.647   3.177   9.363  0.1136  0.0731 -0.2962
  593DPPI   C4B 9382   5.041   3.353   9.192 -0.0474 -0.1038 -0.0944
  594PYPI    C1 9383   8.696  13.319  11.078  0.0833 -0.1319  0.2396
  594PYPI    C2 9384   8.627  13.677  11.244 -0.0235 -0.0946  0.1168
  594PYPI    C3 9385   8.757  13.373  11.470 -0.1812 -0.0486  0.2714
  594PYPI   PO4 9386   8.769  13.427  10.845 -0.0355 -0.3231  0.0787
  594PYPI   GL1 9387   8.891  13.175  10.589  0.0046 -0.0890  0.0106
  594PYPI   GL2 9388   8.768  12.921  10.716 -0.0595 -0.3623 -0.1003
  594PYPI   C1A 9389   8.867  13.425  10.270 -0.1155 -0.4412 -0.0615
  594PYPI   C2A 9390   8.848  13.557   9.923  0.0070  0.1032  0.1412
  594PYPI   D3A 9391   8.791  13.575   9.424  0.0541  0.0869  0.1350
  594PYPI   C4A 9392   8.776  13.506   9.011  0.0823 -0.2140 -0.2759
  594PYPI   C1B 9393   8.664  12.903  10.232 -0.3289 -0.1955 -0.0535
  594PYPI   C2B 9394   8.725  13.092   9.711  0.0606 -0.2427  0.0605
  594PYPI   C3B 9395   8.718  13.068   9.263 -0.0823 -0.3092 -0.2519
  594PYPI   C4B 9396   8.621  13.077   8.727 -0.0126  0.2434 -0.0789
  595PYPI    C1 9397   5.800   5.321  11.444  0.2786  0.0259  0.0441
  595PYPI    C2 9398   5.861   5.066  11.746 -0.0305  0.0477  0.1277
  595PYPI    C3 9399   6.010   5.437  11.764 -0.1617  0.0926  0.3158
  595PYPI   PO4 9400   5.537   5.351  11.439  0.1616  0.1019 -0.0372
  595PYPI   GL1 9401   5.273   5.573  11.069 -0.0747  0.3107  0.0496
  595PYPI   GL2 9402   4.911   5.625  10.776 -0.0471 -0.0895  0.2647
  595PYPI   C1A 9403   5.391   5.500  10.604 -0.0929  0.1472  0.2745
  595PYPI   C2A 9404   5.477   5.439  10.167 -0.2652 -0.0381  0.2535
  595PYPI   D3A 9405   5.408   5.411   9.775 -0.0922 -0.1475  0.1930
  595PYPI   C4A 9406   5.371   5.409   9.325 -0.0788 -0.1925 -0.0564
  595PYPI   C1B 9407   5.051   5.712  10.298 -0.2537  0.2364  0.0063
  595PYPI   C2B 9408   5.029   5.707   9.822  0.0912 -0.0014  0.0314
  595PYPI   C3B 9409   4.987   5.733   9.337  0.0204  0.0995 -0.0462
  595PYPI   C4B 9410   4.918   5.965   8.839 -0.2124 -0.0660  0.1936
  596PYPI    C1 9411   4.127   6.971  11.448 -0.0128 -0.0467 -0.0285
  596PYPI    C2 9412   4.369   6.656  11.496 -0.1346 -0.1362  0.0026
  596PYPI    C3 9413   4.346   6.936  11.781 -0.0907 -0.1433  0.0130
  596PYPI   PO4 9414   4.034   6.958  11.196  0.0167 -0.0284 -0.1667
  596PYPI   GL1 9415   4.245   7.034  10.848 -0.1555  0.2164 -0.1295
  596PYPI   GL2 9416   4.367   6.713  10.957 -0.1795  0.1423 -0.1613
  596PYPI   C1A 9417   4.271   7.006  10.454 -0.0691  0.1533 -0.1930
  596PYPI   C2A 9418   4.569   6.788  10.149 -0.0335  0.1579  0.0386
  596PYPI   D3A 9419   4.785   6.656   9.762  0.0275 -0.1004  0.1522
  596PYPI   C4A 9420   4.705   6.645   9.363  0.0115 -0.0181  0.1354
  596PYPI   C1B 9421   4.677   6.881  10.723  0.0891  0.0961  0.0245
  596PYPI   C2B 9422   4.910   7.070  10.455 -0.2470 -0.0404  0.3174
  596PYPI   C3B 9423   4.736   7.313  10.096 -0.4087 -0.0146 -0.3529
  596PYPI   C4B 9424   4.536   7.459   9.687 -0.1694 -0.1160  0.1042
  597PYPI    C1 9425   2.340   7.243  11.203  0.2023  0.1380  0.1134
  597PYPI    C2 9426   2.226   7.402  11.551  0.1894  0.2360  0.0648
  597PYPI    C3 9427   2.524   7.136  11.541  0.1926  0.2361  0.1501
  597PYPI   PO4 9428   2.480   7.447  10.998 -0.1409 -0.1176  0.0115
  597PYPI   GL1 9429   2.378   7.668  10.550  0.1078  0.0351  0.0871
  597PYPI   GL2 9430   2.325   7.950  10.333 -0.1236  0.0166  0.0461
  597PYPI   C1A 9431   2.435   7.537  10.154 -0.0475  0.1843 -0.1029
  597PYPI   C2A 9432   2.321   7.327   9.830  0.0404  0.2089 -0.3715
  597PYPI   D3A 9433   2.412   6.991   9.518  0.1682  0.1739 -0.2094
  597PYPI   C4A 9434   2.154   6.996   9.147  0.0250 -0.1775  0.0465
  597PYPI   C1B 9435   2.076   8.281  10.147  0.0325 -0.1033 -0.0633
  597PYPI   C2B 9436   2.055   8.341   9.620 -0.1768 -0.0777  0.0657
  597PYPI   C3B 9437   2.066   8.351   9.137  0.0722 -0.0507  0.0290
  597PYPI   C4B 9438   2.214   8.201   8.777  0.1604  0.0512  0.1159
  598PYPI    C1 9439   5.842  11.997  11.884  0.1447 -0.2217  0.1970
  598PYPI    C2 9440   6.122  12.221  12.060  0.1546 -0.1995  0.1531
  598PYPI    C3 9441   5.925  11.945  12.272 -0.0567  0.0434  0.2781
  598PYPI   PO4 9442   5.888  11.918  11.624 -0.3283  0.0992 -0.1237
  598PYPI   GL1 9443   6.016  11.799  11.179 -0.2471 -0.2281  0.0663
  598PYPI   GL2 9444   5.945  11.632  10.923 -0.2076  0.1899 -0.0182
  598PYPI   C1A 9445   6.413  11.800  10.873 -0.3871  0.2291 -0.1579
  598PYPI   C2A 9446   6.476  11.840  10.414  0.0134 -0.1032 -0.0131
  598PYPI   D3A 9447   6.659  11.887  10.025  0.2381  0.0721 -0.0390
  598PYPI   C4A 9448   6.480  11.920   9.648 -0.2294 -0.0853 -0.1545
  598PYPI   C1B 9449   6.019  11.672  10.450  0.0024 -0.0656 -0.3166
  598PYPI   C2B 9450   6.059  11.730  10.024 -0.0790 -0.3086 -0.1805
  598PYPI   C3B 9451   6.018  11.739   9.578 -0.2651  0.2644  0.2859
  598PYPI   C4B 9452   6.064  11.779   9.038 -0.2587 -0.1951  0.2868
  599PYPI    C1 9453   0.632   0.950  11.435 -0.2646  0.1530  0.0068
  599PYPI    C2 9454   0.458   0.635  11.611 -0.0712  0.1370  0.1726
  599PYPI    C3 9455   0.717   0.861  11.816  0.3833 -0.0530 -0.1733
  599PYPI   PO4 9456   0.538   0.951  11.168  0.0026  0.1601  0.2055
  599PYPI   GL1 9457   0.805   0.773  10.946  0.1578 -0.0164  0.0819
  599PYPI   GL2 9458   1.052   0.823  10.775 -0.0579 -0.1324  0.2305
  599PYPI   C1A 9459   0.684   0.563  10.597  0.2064  0.0242 -0.3109
  599PYPI   C2A 9460   0.724   0.481  10.172 -0.3972 -0.1772  0.0702
  599PYPI   D3A 9461   0.720   0.567   9.700 -0.0384  0.1217 -0.0477
  599PYPI   C4A 9462   0.843   0.503   9.310  0.0642 -0.0915  0.0574
  599PYPI   C1B 9463   1.088   0.719  10.401  0.1997  0.0623 -0.0656
  599PYPI   C2B 9464   1.212   0.693  10.006 -0.2531  0.0357  0.0754
  599PYPI   C3B 9465   1.220   0.699   9.547 -0.0226 -0.0469 -0.0869
  599PYPI   C4B 9466   1.245   0.763   9.082  0.0229 -0.1410  0.0857
  600PYPI    C1 9467  15.601  15.178  11.152 -0.0306  0.1337  0.2365
  600PYPI    C2 9468  15.403  14.997  11.448  0.1919  0.0697  0.3486
  600PYPI    C3 9469  15.504  15.382  11.482 -0.1317  0.1733  0.1828
  600PYPI   PO4 9470  15.387  15.142  10.905  0.3737  0.1989  0.0845
  600PYPI   GL1 9471  15.510  15.016  10.585  0.0819 -0.1476  0.0383
  600PYPI   GL2 9472  15.152  14.958  10.450 -0.0344 -0.0016  0.1815
  600PYPI   C1A 9473  15.706  14.982  10.152  0.0133 -0.0624  0.2326
  600PYPI   C2A 9474  15.608  15.070   9.701 -0.0333  0.0240  0.2668
  600PYPI   D3A 9475  15.534  15.035   9.291 -0.1382  0.0021  0.2107
  600PYPI   C4A 9476  15.737  15.121   8.899  0.1229 -0.1104  0.1716
  600PYPI   C1B 9477  15.153  14.977  10.044 -0.0754 -0.1649  0.1303
  600PYPI   C2B 9478  15.057  14.891   9.628  0.1033  0.0476  0.3780
  600PYPI   C3B 9479  15.068  14.923   9.194 -0.1248  0.1740 -0.1194
  600PYPI   C4B 9480  14.836  15.135   8.909  0.1766  0.0396  0.1930
  601PYPI    C1 9481  11.357   2.990  11.766  0.0076 -0.0990 -0.0880
  601PYPI    C2 9482  11.183   3.255  12.010  0.0297  0.0086 -0.1880
  601PYPI    C3 9483  11.377   2.939  12.163 -0.0763 -0.0008 -0.0710
  601PYPI   PO4 9484  11.371   3.087  11.572 -0.0409 -0.1861  0.4542
  601PYPI   GL1 9485  11.332   3.083  11.167 -0.0648 -0.1289  0.0295
  601PYPI   GL2 9486  11.338   3.440  11.061 -0.0436  0.1114  0.1136
  601PYPI   C1A 9487  11.396   2.829  10.899 -0.0828 -0.3250  0.1067
  601PYPI   C2A 9488  11.436   2.660  10.596  0.1331 -0.3169 -0.0011
  601PYPI   D3A 9489  11.308   2.283  10.459  0.2934  0.3325 -0.0680
  601PYPI   C4A 9490  11.269   2.191  10.066  0.0478 -0.4597  0.2754
  601PYPI   C1B 9491  11.476   3.367  10.688  0.1448  0.0472  0.1137
  601PYPI   C2B 9492  11.564   3.279  10.325  0.1525 -0.4332 -0.2206
  601PYPI   C3B 9493  11.540   3.259   9.870  0.0725 -0.0480  0.3335
  601PYPI   C4B 9494  11.559   2.953   9.444 -0.0134 -0.3353 -0.0940
  602PYPI    C1 9495   5.859   2.113  11.699  0.2641  0.1013 -0.2543
  602PYPI    C2 9496   6.026   2.476  11.684  0.2412  0.1332  0.1502
  602PYPI    C3 9497   6.137   2.217  11.967  0.1306 -0.1133 -0.0290
  602PYPI   PO4 9498   5.813   1.960  11.493  0.2441 -0.0165  0.1070
  602PYPI   GL1 9499   5.577   2.085  11.174  0.1001  0.0125  0.0137
  602PYPI   GL2 9500   5.507   1.750  11.146  0.6565 -0.1695 -0.0671
  602PYPI   C1A 9501   5.661   2.089  10.780  0.0678 -0.1372 -0.0631
  602PYPI   C2A 9502   5.656   2.092  10.357 -0.2315  0.2761  0.0024
  602PYPI   D3A 9503   5.688   2.054   9.912 -0.1978 -0.0313  0.1295
  602PYPI   C4A 9504   5.810   2.145   9.522 -0.1812 -0.3405 -0.0006
  602PYPI   C1B 9505   5.537   1.592  10.803  0.4022 -0.1786  0.0290
  602PYPI   C2B 9506   5.465   1.545  10.395 -0.0798  0.0856 -0.1425
  602PYPI   C3B 9507   5.569   1.599  10.047  0.1715  0.3591  0.0235
  602PYPI   C4B 9508   5.690   1.646   9.576  0.1063 -0.0771 -0.0164
  603PYPI    C1 9509   9.423   9.280  11.593  0.0595 -0.0100  0.0560
  603PYPI    C2 9510   9.780   9.229  11.420 -0.1018  0.0555 -0.3038
  603PYPI    C3 9511   9.685   9.020  11.748  0.2110 -0.0677 -0.2890
  603PYPI   PO4 9512   9.304   9.319  11.369 -0.2051 -0.1348 -0.1157
  603PYPI   GL1 9513   9.373   9.126  11.040  0.2117  0.1229  0.3151
  603PYPI   GL2 9514   9.617   9.021  10.930 -0.3338  0.0853  0.1035
  603PYPI   C1A 9515   9.127   9.259  10.610 -0.1337  0.0421  0.1091
  603PYPI   C2A 9516   9.172   9.217  10.260 -0.1255  0.1265  0.0200
  603PYPI   D3A 9517   9.162   9.342  10.012  0.1522 -0.0701 -0.0276
  603PYPI   C4A 9518   9.232   9.389   9.609  0.1034 -0.0677  0.1164
  603PYPI   C1B 9519   9.483   8.866  10.488  0.3106 -0.1828 -0.0192
  603PYPI   C2B 9520   9.538   8.958  10.037 -0.1757  0.1899  0.2757
  603PYPI   C3B 9521   9.606   9.073   9.627 -0.1428 -0.1616  0.0252
  603PYPI   C4B 9522   9.700   8.991   9.218  0.1206  0.0501  0.1889
  604PYPI    C1 9523  16.292   4.586  11.490 -0.2211  0.1034 -0.2048
  604PYPI    C2 9524  16.212   4.696  11.866 -0.3089 -0.0065 -0.1907
  604PYPI    C3 9525  16.591   4.687  11.737 -0.2800  0.0491 -0.1109
  604PYPI   PO4 9526  16.153   4.737  11.251 -0.2326  0.1901 -0.1079
  604PYPI   GL1 9527  16.385   4.925  10.851  0.2983  0.0377  0.0291
  604PYPI   GL2 9528  16.098   4.791  10.742 -0.1528  0.0879 -0.0080
  604PYPI   C1A 9529  16.424   4.748  10.318 -0.0244 -0.1739 -0.1749
  604PYPI   C2A 9530  16.344   4.795   9.908 -0.0527 -0.2979 -0.0542
  604PYPI   D3A 9531  16.296   4.758   9.495  0.1812 -0.0904 -0.3288
  604PYPI   C4A 9532  16.179   4.495   9.154 -0.1759  0.4366 -0.0207
  604PYPI   C1B 9533  15.935   4.779  10.307  0.2283  0.1834  0.2448
  604PYPI   C2B 9534  15.838   4.752   9.911  0.0701 -0.0768  0.3449
  604PYPI   C3B 9535  15.441   4.851   9.639 -0.0425 -0.1102 -0.1245
  604PYPI   C4B 9536  15.281   4.848   9.149 -0.0273 -0.1406 -0.0028
  605PYPI    C1 9537   8.061   9.102  11.651 -0.0058  0.1432 -0.0830
  605PYPI    C2 9538   8.358   9.227  11.888 -0.1172  0.0248  0.1220
  605PYPI    C3 9539   7.979   9.314  11.980 -0.1577  0.0322 -0.0486
  605PYPI   PO4 9540   8.035   9.182  11.450 -0.1311  0.0697  0.2777
  605PYPI   GL1 9541   8.021   9.221  11.052  0.2074  0.1974 -0.0263
  605PYPI   GL2 9542   7.759   9.169  10.966  0.1227 -0.0161 -0.0101
  605PYPI   C1A 9543   8.220   9.474  10.715 -0.0791  0.0741 -0.0292
  605PYPI   C2A 9544   8.262   9.531  10.291 -0.0398 -0.1116 -0.1848
  605PYPI   D3A 9545   8.340   9.512   9.877 -0.0906  0.0471  0.1036
  605PYPI   C4A 9546   8.411   9.582   9.430 -0.1894  0.0103  0.0687
  605PYPI   C1B 9547   7.834   9.276  10.507  0.3196  0.3354  0.0722
  605PYPI   C2B 9548   7.846   9.341  10.106  0.0565  0.1533  0.3456
  605PYPI   C3B 9549   7.847   9.437   9.642  0.1012  0.0413 -0.0965
  605PYPI   C4B 9550   7.940   9.421   9.183 -0.0340  0.0487  0.2115
  606PYPI    C1 9551  14.320   4.316  11.491  0.0725  0.0876  0.0703
  606PYPI    C2 9552  14.086   4.586  11.671 -0.0077  0.0707 -0.0082
  606PYPI    C3 9553  14.448   4.505  11.819 -0.0421  0.1139  0.1002
  606PYPI   PO4 9554  14.327   4.418  11.244  0.0821 -0.0562 -0.1618
  606PYPI   GL1 9555  14.553   4.330  10.806  0.1426 -0.1640 -0.1314
  606PYPI   GL2 9556  14.398   4.641  10.684  0.1569  0.2627 -0.1688
  606PYPI   C1A 9557  14.726   4.451  10.322  0.1849 -0.1991 -0.1253
  606PYPI   C2A 9558  14.781   4.395   9.889  0.1532  0.0911 -0.1133
  606PYPI   D3A 9559  14.604   4.475   9.509  0.2056  0.1464  0.2418
  606PYPI   C4A 9560  14.376   4.838   9.488  0.1330 -0.2357  0.1011
  606PYPI   C1B 9561  14.436   4.853  10.336  0.1812 -0.2284 -0.0598
  606PYPI   C2B 9562  14.368   5.056   9.946  0.3751  0.2168  0.2564
  606PYPI   C3B 9563  14.200   5.457   9.620 -0.0245 -0.1640 -0.1360
  606PYPI   C4B 9564  14.296   5.863   9.362 -0.1142  0.4974  0.3945
  607ERGO   ROH 9565  10.744  12.728  10.637  0.1027  0.0151  0.0688
  607ERGO    R1 9566  10.863  12.770  10.383  0.0571  0.0587  0.0525
  607ERGO    R2 9567  10.868  12.575  10.187  0.1264  0.0457  0.0524
  607ERGO    R3 9568  10.752  12.769  10.037  0.0143 -0.0106  0.0693
  607ERGO    R4 9569  10.919  12.620   9.848  0.1622  0.1771  0.0765
  607ERGO    R5 9570  10.922  12.835   9.882 -0.0121  0.1617  0.1248
  607ERGO    C1 9571  10.840  12.829   9.510  0.0777  0.2009  0.1063
  607ERGO    C2 9572  11.012  12.828   9.121 -0.0370 -0.1905  0.2806
  608ERGO   ROH 9573  11.238  15.630  10.786  0.0644  0.0365  0.1230
  608ERGO    R1 9574  11.076  15.646  10.554  0.0388  0.1272  0.1468
  608ERGO    R2 9575  11.124  15.827  10.351  0.1575  0.0490  0.1027
  608ERGO    R3 9576  11.122  15.604  10.195 -0.0544  0.0181  0.1477
  608ERGO    R4 9577  11.094  15.827  10.007  0.1707  0.0054  0.1015
  608ERGO    R5 9578  10.962  15.654  10.023  0.0005  0.1370  0.1320
  608ERGO    C1 9579  11.074  15.618   9.660 -0.0205 -0.0490  0.1429
  608ERGO    C2 9580  11.179  15.528   9.326  0.0054  0.0100  0.0267
  609ERGO   ROH 9581   6.670   1.517  11.049  0.0496 -0.1477 -0.0358
  609ERGO    R1 9582   6.865   1.560  10.848  0.0735  0.0933  0.0392
  609ERGO    R2 9583   6.907   1.383  10.640  0.3729  0.1418  0.0620
  609ERGO    R3 9584   6.868   1.604  10.487  0.1589  0.0924  0.0384
  609ERGO    R4 9585   6.915   1.389  10.294  0.4244  0.1236  0.0606
  609ERGO    R5 9586   7.020   1.579  10.305  0.2210  0.2427  0.0649
  609ERGO    C1 9587   6.883   1.600   9.950  0.2535  0.0667  0.0375
  609ERGO    C2 9588   6.937   1.504   9.635 -0.1387 -0.1633  0.1359
  610ERGO   ROH 9589  11.555   3.856  10.842  0.1126  0.0496 -0.0890
  610ERGO    R1 9590  11.649   3.929  10.586  0.0107  0.0759 -0.1183
  610ERGO    R2 9591  11.809   3.764  10.434  0.0524  0.1458 -0.1420
  610ERGO    R3 9592  11.616   3.803  10.246 -0.0112  0.0342 -0.1024
  610ERGO    R4 9593  11.857   3.732  10.093  0.0998  0.4907 -0.1722
  610ERGO    R5 9594  11.732   3.908  10.064 -0.1522  0.3499 -0.0213
  610ERGO    C1 9595  11.703   3.750   9.718  0.0678  0.5869 -0.1527
  610ERGO    C2 9596  11.620   3.612   9.466 -0.0926  0.0075 -0.1013
  611ERGO   ROH 9597  16.918   1.280  10.725  0.0386  0.1140  0.1450
  611ERGO    R1 9598  16.965   1.157  10.474  0.3466  0.0993  0.2037
  611ERGO    R2 9599  16.779   1.162  10.269  0.2256 -0.6238  0.2566
  611ERGO    R3 9600  16.988   1.264  10.128 -0.1325 -0.0178  0.1314
  611ERGO    R4 9601  16.839   1.105   9.933  0.1452 -0.3276  0.1897
  611ERGO    R5 9602  17.051   1.089   9.978  0.2259  0.2072  0.0190
  611ERGO    C1 9603  17.070   1.167   9.606 -0.2379  0.4137  0.0332
  611ERGO    C2 9604  17.099   1.147   9.198 -0.0346 -0.1746  0.2630
  612ERGO   ROH 9605   5.472  12.912  10.993 -0.2517 -0.1731  0.0738
  612ERGO    R1 9606   5.464  13.046  10.743 -0.3694 -0.1140  0.1084
  612ERGO    R2 9607   5.644  12.993  10.540 -0.1768  0.2539  0.1729
  612ERGO    R3 9608   5.418  12.952  10.395 -0.0466 -0.1017  0.0590
  612ERGO    R4 9609   5.619  13.036  10.198 -0.1804  0.6783  0.2222
  612ERGO    R5 9610   5.422  13.125  10.229 -0.4207  0.1568  0.3029
  612ERGO    C1 9611   5.392  13.024   9.863 -0.0602  0.5915  0.1439
  612ERGO    C2 9612   5.303  12.944   9.649  0.0289  0.0239  0.1965
  613ERGO   ROH 9613   0.092   7.518  10.407  0.1141 -0.1752  0.0235
  613ERGO    R1 9614   0.136   7.490  10.128  0.1553  0.0753  0.0031
  613ERGO    R2 9615  -0.060   7.403   9.954  0.3123 -0.2136 -0.0299
  613ERGO    R3 9616  -0.000   7.633   9.823 -0.1503 -0.0102  0.0945
  613ERGO    R4 9617  -0.078   7.445   9.612  0.6238 -0.2148 -0.0496
  613ERGO    R5 9618   0.107   7.561   9.621  0.3149  0.3041  0.2083
  613ERGO    C1 9619  -0.032   7.686   9.289  0.3709 -0.0245  0.0559
  613ERGO    C2 9620   0.127   7.691   8.947 -0.1961 -0.1177 -0.0275
  614ERGO   ROH 9621   2.748   5.292  10.532  0.0184 -0.0827  0.1203
  614ERGO    R1 9622   2.635   5.388  10.291  0.1199 -0.1727  0.0360
  614ERGO    R2 9623   2.737   5.325  10.042  0.1160 -0.4137  0.0963
  614ERGO    R3 9624   2.482   5.243   9.994  0.0678 -0.2761  0.1118
  614ERGO    R4 9625   2.571   5.364   9.742  0.1084 -0.2893  0.1157
  614ERGO    R5 9626   2.391   5.415   9.854  0.1436 -0.2087  0.1410
  614ERGO    C1 9627   2.234   5.311   9.522  0.0587 -0.0877  0.1415
  614ERGO    C2 9628   2.309   5.385   9.184  0.0717 -0.0051  0.2407
  615ERGO   ROH 9629   0.903   8.922  10.506  0.1229 -0.1019 -0.0320
  615ERGO    R1 9630   1.086   8.920  10.290  0.0659 -0.0935 -0.0799
  615ERGO    R2 9631   1.065   8.742  10.079 -0.0734  0.0116 -0.1517
  615ERGO    R3 9632   1.071   8.969   9.930 -0.0013  0.0744 -0.0557
  615ERGO    R4 9633   1.181   8.763   9.754 -0.1347  0.0911 -0.1695
  615ERGO    R5 9634   1.274   8.953   9.804 -0.0331  0.0302 -0.1069
  615ERGO    C1 9635   1.254   8.988   9.425 -0.1026  0.1964 -0.0897
  615ERGO    C2 9636   1.336   9.045   9.023  0.0375  0.0610 -0.0514
  616ERGO   ROH 9637  17.381  10.242   6.935 -0.2190  0.3407 -0.0339
  616ERGO    R1 9638  17.351  10.329   7.202 -0.0289  0.1276  0.0609
  616ERGO    R2 9639  17.300  10.155   7.411  0.0055 -0.0290 -0.0561
  616ERGO    R3 9640  17.520  10.272   7.519  0.1232 -0.2259 -0.0793
  616ERGO    R4 9641  17.405  10.113   7.737 -0.2244  0.1908  0.0490
  616ERGO    R5 9642  17.455  10.325   7.743  0.0834  0.1292 -0.1719
  616ERGO    C1 9643  17.673  10.199   8.029 -0.2477  0.1341  0.0883
  616ERGO    C2 9644  17.970  10.146   8.162 -0.0768 -0.1870  0.0254
  617ERGO   ROH 9645   4.719   2.381  10.878  0.1624 -0.1062 -0.0114
  617ERGO    R1 9646   4.853   2.307  10.639  0.0769 -0.0463 -0.0786
  617ERGO    R2 9647   4.725   2.176  10.431  0.0179 -0.0552 -0.0372
  617ERGO    R3 9648   4.823   2.383  10.285 -0.0980 -0.0139 -0.0578
  617ERGO    R4 9649   4.741   2.184  10.086 -0.0483 -0.0490 -0.0405
  617ERGO    R5 9650   4.937   2.278  10.102 -0.0863  0.0350 -0.0779
  617ERGO    C1 9651   4.842   2.382   9.748 -0.1957 -0.0066 -0.0617
  617ERGO    C2 9652   4.936   2.382   9.458  0.3715  0.4990 -0.0473
  618ERGO   ROH 9653   3.047   3.637  11.097 -0.1585  0.0859 -0.0186
  618ERGO    R1 9654   2.866   3.573  10.889 -0.0195 -0.1745 -0.0637
  618ERGO    R2 9655   2.800   3.753  10.689 -0.3631 -0.1984  0.0234
  618ERGO    R3 9656   2.879   3.550  10.526  0.0605  0.0321 -0.0758
  618ERGO    R4 9657   2.734   3.735  10.351 -0.3014 -0.1618  0.0087
  618ERGO    R5 9658   2.695   3.522  10.374  0.1224 -0.2601 -0.1023
  618ERGO    C1 9659   2.769   3.534  10.000  0.1321  0.0758 -0.0930
  618ERGO    C2 9660   2.828   3.540   9.615 -0.2223 -0.0543 -0.1592
  619ERGO   ROH 9661   2.189  14.391  10.812  0.2233  0.0886 -0.0280
  619ERGO    R1 9662   2.025  14.342  10.586  0.1982 -0.0348  0.0159
  619ERGO    R2 9663   1.989  14.529  10.385 -0.0252 -0.0480  0.0424
  619ERGO    R3 9664   2.072  14.326  10.225  0.1065  0.0377  0.0003
  619ERGO    R4 9665   2.025  14.549  10.042 -0.1561  0.0136  0.0314
  619ERGO    R5 9666   1.941  14.349  10.026  0.0181 -0.0631  0.0448
  619ERGO    C1 9667   2.125  14.370   9.692 -0.1085  0.1300 -0.0144
  619ERGO    C2 9668   2.120  14.373   9.432 -0.3827 -0.0074  0.2607
  620ERGO   ROH 9669  12.710  10.819  10.752 -0.2725 -0.2145 -0.0962
  620ERGO    R1 9670  12.628  10.852  10.483 -0.1993 -0.3811 -0.1405
  620ERGO    R2 9671  12.724  11.056  10.323 -0.4719 -0.2232 -0.1094
  620ERGO    R3 9672  12.789  10.851  10.157 -0.0291 -0.1325 -0.0610
  620ERGO    R4 9673  12.727  11.074   9.978 -0.4430 -0.2769 -0.1117
  620ERGO    R5 9674  12.640  10.875   9.971 -0.0487 -0.4608 -0.0945
  620ERGO    C1 9675  12.789  10.892   9.621 -0.0106 -0.2229 -0.0678
  620ERGO    C2 9676  12.865  10.937   9.267 -0.1150  0.0718  0.1565
  621ERGO   ROH 9677   8.718  10.406   9.008  0.0594 -0.1031 -0.1760
  621ERGO    R1 9678   8.716  10.644   8.856 -0.0970 -0.0093 -0.0337
  621ERGO    R2 9679   8.696  10.894   8.972  0.0143 -0.0703  0.1407
  621ERGO    R3 9680   8.923  10.943   8.830 -0.1246  0.0052 -0.0566
  621ERGO    R4 9681   8.831  11.207   8.917 -0.0466 -0.0445  0.1458
  621ERGO    R5 9682   8.877  11.147   8.713 -0.2411  0.0522  0.0788
  621ERGO    C1 9683   9.123  11.435   8.752 -0.2125  0.0413 -0.0365
  621ERGO    C2 9684   9.305  11.732   8.626  0.1583  0.1518 -0.0914
  622ERGO   ROH 9685  14.379   5.075  10.944  0.0535 -0.1204 -0.1359
  622ERGO    R1 9686  14.273   5.177  10.703  0.1568 -0.1599 -0.1980
  622ERGO    R2 9687  14.237   5.448  10.659 -0.1083 -0.1848 -0.1347
  622ERGO    R3 9688  14.386   5.399  10.437  0.1516  0.0595 -0.0217
  622ERGO    R4 9689  14.263   5.660  10.388 -0.1931 -0.1028 -0.0800
  622ERGO    R5 9690  14.255   5.486  10.257  0.1671 -0.1036 -0.1170
  622ERGO    C1 9691  14.418   5.738  10.021  0.0016  0.1742  0.0578
  622ERGO    C2 9692  14.585   5.828   9.856 -0.0823 -0.0417 -0.2266
  623ERGO   ROH 9693  11.094   3.727  10.683  0.0803 -0.1286 -0.1899
  623ERGO    R1 9694  11.237   3.728  10.438  0.0478  0.1238 -0.2096
  623ERGO    R2 9695  11.156   3.581  10.218  0.2694 -0.0134 -0.1993
  623ERGO    R3 9696  11.168   3.821  10.093 -0.1638  0.0173 -0.1987
  623ERGO    R4 9697  11.179   3.624   9.876  0.5229  0.0110 -0.1813
  623ERGO    R5 9698  11.321   3.786   9.912  0.1168  0.3544 -0.0413
  623ERGO    C1 9699  11.205   3.875   9.559  0.2638  0.0540 -0.1702
  623ERGO    C2 9700  11.148   3.891   9.221  0.1769 -0.1936 -0.1374
  624ERGO   ROH 9701   8.372  13.199  10.607  0.2048 -0.0080  0.0397
  624ERGO    R1 9702   8.259  13.282  10.361  0.0593 -0.0726  0.0830
  624ERGO    R2 9703   8.398  13.434  10.177 -0.0968  0.0030  0.0219
  624ERGO    R3 9704   8.330  13.233  10.007 -0.0551 -0.0389  0.0557
  624ERGO    R4 9705   8.388  13.461   9.833 -0.0167 -0.0847  0.0132
  624ERGO    R5 9706   8.206  13.342   9.833 -0.0142 -0.0850 -0.0003
  624ERGO    C1 9707   8.319  13.288   9.473  0.0692 -0.1751  0.0398
  624ERGO    C2 9708   8.269  13.367   9.120  0.1813  0.0152 -0.1848
  625ERGO   ROH 9709  12.397  15.225  10.685  0.3383 -0.1228 -0.1632
  625ERGO    R1 9710  12.462  15.101  10.439  0.3532  0.0475 -0.2456
  625ERGO    R2 9711  12.271  14.996  10.269  0.3833 -0.0948 -0.1897
  625ERGO    R3 9712  12.390  15.158  10.087  0.1153  0.1110 -0.1878
  625ERGO    R4 9713  12.281  14.937   9.929  0.2169  0.0941 -0.2298
  625ERGO    R5 9714  12.487  15.009   9.927  0.1516  0.2837 -0.3299
  625ERGO    C1 9715  12.399  15.056   9.559 -0.1316  0.3973 -0.2514
  625ERGO    C2 9716  12.398  15.139   9.146  0.1580  0.0148  0.1721
  626ERGO   ROH 9717  15.632   1.298  10.499 -0.1517 -0.0266 -0.0699
  626ERGO    R1 9718  15.672   1.183  10.243 -0.0706  0.0595 -0.0970
  626ERGO    R2 9719  15.479   1.190  10.044 -0.0454  0.0415 -0.1245
  626ERGO    R3 9720  15.680   1.301   9.899 -0.0655  0.1597 -0.0625
  626ERGO    R4 9721  15.522   1.152   9.704  0.0335  0.1405 -0.1256
  626ERGO    R5 9722  15.736   1.134   9.737  0.0338  0.2223 -0.0919
  626ERGO    C1 9723  15.736   1.233   9.369  0.0607  0.3091 -0.0682
  626ERGO    C2 9724  15.781   1.089   9.072  0.1470 -0.1646 -0.2248
  627ERGO   ROH 9725   5.961   3.099  10.890 -0.0069  0.0744 -0.0706
  627ERGO    R1 9726   5.851   3.021  10.641 -0.0469  0.0633 -0.0497
  627ERGO    R2 9727   5.764   3.205  10.454 -0.0340  0.0553 -0.0631
  627ERGO    R3 9728   5.932   3.068  10.290 -0.0760  0.0055 -0.0647
  627ERGO    R4 9729   5.795   3.258  10.113  0.0326  0.1046 -0.0491
  627ERGO    R5 9730   5.809   3.043  10.086 -0.0644  0.1006 -0.0857
  627ERGO    C1 9731   5.971   3.161   9.762  0.0320  0.0866 -0.0424
  627ERGO    C2 9732   6.031   3.125   9.368  0.1397 -0.0519  0.2913
  628ERGO   ROH 9733   6.450  12.256  10.903  0.0473  0.2081  0.2259
  628ERGO    R1 9734   6.422  12.408  10.666 -0.1329  0.0223  0.1255
  628ERGO    R2 9735   6.638  12.516  10.532 -0.2638  0.2524  0.0998
  628ERGO    R3 9736   6.532  12.382  10.320 -0.0342 -0.0333  0.1602
  628ERGO    R4 9737   6.740  12.552  10.203 -0.4050  0.3816  0.0683
  628ERGO    R5 9738   6.531  12.541  10.142 -0.4090 -0.0738  0.1153
  628ERGO    C1 9739   6.701  12.446   9.814 -0.2718  0.1887  0.1066
  628ERGO    C2 9740   6.671  12.341   9.445  0.0603 -0.2276 -0.1308
  629ERGO   ROH 9741  16.072   0.108  10.706 -0.3827  0.1592 -0.1333
  629ERGO    R1 9742  16.125   0.171  10.435 -0.1364  0.1016 -0.1008
  629ERGO    R2 9743  16.362   0.103  10.310 -0.1212 -0.1517  0.0573
  629ERGO    R3 9744  16.197  -0.015  10.130 -0.1299  0.0205 -0.0500
  629ERGO    R4 9745  16.439   0.052   9.977  0.0590 -0.2668  0.1148
  629ERGO    R5 9746  16.234   0.107   9.927  0.1546 -0.0365 -0.0371
  629ERGO    C1 9747  16.328  -0.089   9.614  0.1557 -0.1723  0.0474
  629ERGO    C2 9748  16.402   0.062   9.281 -0.1410  0.2014 -0.0858
  630ERGO   ROH 9749   6.934   8.395  11.120  0.2087 -0.2948  0.0240
  630ERGO    R1 9750   7.061   8.377  10.867  0.1503  0.0081 -0.0306
  630ERGO    R2 9751   6.992   8.187  10.679  0.3348  0.0175 -0.1075
  630ERGO    R3 9752   6.962   8.404  10.518 -0.0026  0.0687  0.0166
  630ERGO    R4 9753   7.059   8.192  10.340 -0.0360  0.2171 -0.1832
  630ERGO    R5 9754   7.145   8.390  10.365 -0.1548  0.2720 -0.1922
  630ERGO    C1 9755   7.069   8.399   9.992 -0.5686  0.3812 -0.1107
  630ERGO    C2 9756   7.075   8.407   9.706  0.3705  0.1734 -0.2350
  631ERGO   ROH 9757  13.436   3.534  10.236  0.0013 -0.2127  0.1198
  631ERGO    R1 9758  13.601   3.437  10.028 -0.0306 -0.1356  0.0570
  631ERGO    R2 9759  13.500   3.342   9.789 -0.0703 -0.0631  0.0388
  631ERGO    R3 9760  13.670   3.525   9.682 -0.1005 -0.0143  0.0756
  631ERGO    R4 9761  13.635   3.324   9.472  0.0542 -0.0401  0.0902
  631ERGO    R5 9762  13.824   3.395   9.553 -0.0064  0.0373  0.1449
  631ERGO    C1 9763  13.873   3.485   9.186  0.0984  0.0190  0.1546
  631ERGO    C2 9764  13.914   3.437   8.895 -0.4568 -0.0774  0.1315
  632ERGO   ROH 9765   5.185  17.065  11.006  0.0125 -0.0812 -0.0865
  632ERGO    R1 9766   5.066  17.119  10.755 -0.0165  0.1027 -0.0328
  632ERGO    R2 9767   5.194  17.263  10.557  0.1594 -0.1763 -0.1154
  632ERGO    R3 9768   5.138  17.045  10.406 -0.3397 -0.0984 -0.0650
  632ERGO    R4 9769   5.173  17.263  10.212  0.6166 -0.2560 -0.1496
  632ERGO    R5 9770   5.001  17.129  10.228  0.1417  0.2759 -0.2941
  632ERGO    C1 9771   5.109  17.057   9.870  0.4142 -0.2293 -0.1222
  632ERGO    C2 9772   5.105  17.133   9.622  0.1613  0.2424 -0.0778
  633ERGO   ROH 9773  10.820   0.369  10.793  0.1125  0.3429 -0.2225
  633ERGO    R1 9774  10.748   0.245  10.549  0.1343  0.0683 -0.0955
  633ERGO    R2 9775  10.603   0.375  10.353 -0.0275 -0.2104 -0.1826
  633ERGO    R3 9776  10.812   0.301  10.195 -0.0074 -0.1907 -0.1611
  633ERGO    R4 9777  10.613   0.408  10.009  0.0558 -0.1469 -0.1727
  633ERGO    R5 9778  10.710   0.213   9.998  0.0383 -0.1396 -0.1964
  633ERGO    C1 9779  10.815   0.356   9.661  0.1232 -0.0913 -0.1467
  633ERGO    C2 9780  10.879   0.271   9.244 -0.0119 -0.2351  0.2420
  634ERGO   ROH 9781   1.949   1.061  10.711  0.1052 -0.0655  0.0299
  634ERGO    R1 9782   2.102   1.089  10.474  0.1003 -0.1435  0.0152
  634ERGO    R2 9783   2.103   0.899  10.273 -0.0378 -0.1362 -0.0055
  634ERGO    R3 9784   2.034   1.111  10.117  0.0707 -0.0784  0.0273
  634ERGO    R4 9785   2.202   0.942   9.945  0.2798  0.0658  0.1134
  634ERGO    R5 9786   2.231   1.154   9.987  0.1835  0.0432  0.2461
  634ERGO    C1 9787   2.195   1.166   9.607  0.5666  0.2378  0.2135
  634ERGO    C2 9788   2.346   1.042   9.287  0.2713  0.1175 -0.0902
  635ERGO   ROH 9789  14.697   9.686  10.708  0.0575 -0.3056  0.0462
  635ERGO    R1 9790  14.736   9.766  10.440 -0.1960 -0.0214  0.0889
  635ERGO    R2 9791  14.913   9.639  10.270 -0.0538  0.4066 -0.0980
  635ERGO    R3 9792  14.694   9.616  10.111 -0.0946  0.1709 -0.0133
  635ERGO    R4 9793  14.918   9.653   9.925 -0.1939  0.3346 -0.1039
  635ERGO    R5 9794  14.735   9.771   9.932 -0.3006  0.1698 -0.0638
  635ERGO    C1 9795  14.716   9.641   9.574 -0.3137  0.0714 -0.0277
  635ERGO    C2 9796  14.704   9.565   9.321  0.0475  0.1627  0.2148
  636ERGO   ROH 9797   0.631   1.231  10.775 -0.1104  0.2160 -0.0530
  636ERGO    R1 9798   0.732   1.088  10.552 -0.1708  0.0358  0.0329
  636ERGO    R2 9799   0.573   1.015  10.338 -0.1684  0.1203 -0.0016
  636ERGO    R3 9800   0.763   1.145  10.194  0.0173 -0.1180  0.0245
  636ERGO    R4 9801   0.610   0.994   9.996 -0.2059  0.1502 -0.0072
  636ERGO    R5 9802   0.826   0.988  10.024 -0.2109 -0.1678 -0.0142
  636ERGO    C1 9803   0.811   1.103   9.661 -0.0535 -0.0561  0.0140
  636ERGO    C2 9804   0.912   1.063   9.353  0.0625 -0.0372  0.0226
  637ERGO   ROH 9805  14.386   3.040  10.821  0.0047  0.2181 -0.1915
  637ERGO    R1 9806  14.340   3.015  10.543 -0.0810  0.0725 -0.1644
  637ERGO    R2 9807  14.509   3.126  10.354 -0.2604  0.1593 -0.2665
  637ERGO    R3 9808  14.516   2.872  10.258 -0.0602  0.1302 -0.1830
  637ERGO    R4 9809  14.588   3.040  10.029  0.2370  0.0907 -0.1369
  637ERGO    R5 9810  14.430   2.890  10.036  0.2542  0.0516 -0.3223
  637ERGO    C1 9811  14.641   2.751   9.750  0.7146  0.0234  0.0169
  637ERGO    C2 9812  14.621   2.682   9.435  0.1364  0.2375 -0.2657
  638ERGO   ROH 9813   0.419  12.929  11.148  0.4454  0.2487 -0.1102
  638ERGO    R1 9814   0.275  12.900  10.907  0.2586  0.1782  0.0090
  638ERGO    R2 9815   0.281  13.091  10.706  0.2245  0.0460 -0.1075
  638ERGO    R3 9816   0.354  12.879  10.552 -0.0084 -0.0878 -0.0418
  638ERGO    R4 9817   0.282  13.089  10.361  0.0396 -0.1076 -0.1097
  638ERGO    R5 9818   0.203  12.886  10.366 -0.1113 -0.0597  0.0316
  638ERGO    C1 9819   0.351  12.890  10.015 -0.2867 -0.3227 -0.0493
  638ERGO    C2 9820   0.390  12.910   9.648 -0.1753  0.2957  0.1174
  639ERGO   ROH 9821  15.220   4.409  10.772 -0.0419 -0.0871  0.0613
  639ERGO    R1 9822  15.219   4.531  10.517  0.0100 -0.0082  0.0979
  639ERGO    R2 9823  15.414   4.481  10.326  0.0375  0.0320  0.1110
  639ERGO    R3 9824  15.199   4.421  10.170  0.0554  0.0981  0.0618
  639ERGO    R4 9825  15.421   4.458   9.982  0.0984  0.0592  0.1109
  639ERGO    R5 9826  15.227   4.558   9.976  0.1263  0.1058  0.0797
  639ERGO    C1 9827  15.224   4.388   9.634  0.1506  0.1371  0.0645
  639ERGO    C2 9828  15.247   4.382   9.289  0.1469  0.1389  0.2001
  640ERGO   ROH 9829  12.334   2.626  10.944 -0.2911  0.2176 -0.0828
  640ERGO    R1 9830  12.251   2.616  10.674 -0.1755  0.0867 -0.1133
  640ERGO    R2 9831  12.327   2.806  10.488 -0.1631  0.0377 -0.1507
  640ERGO    R3 9832  12.413   2.588  10.349 -0.0343  0.0155 -0.0398
  640ERGO    R4 9833  12.324   2.778  10.143 -0.1132 -0.1132 -0.1403
  640ERGO    R5 9834  12.260   2.571  10.165 -0.0111 -0.1431 -0.0513
  640ERGO    C1 9835  12.403   2.557   9.812  0.0368 -0.2220 -0.0300
  640ERGO    C2 9836  12.335   2.572   9.514  0.0387 -0.0999 -0.1062
  641ERGO   ROH 9837   0.859   6.466  10.283 -0.0444  0.0244 -0.2016
  641ERGO    R1 9838   0.960   6.652  10.095 -0.0126  0.1722 -0.0391
  641ERGO    R2 9839   0.917   6.629   9.823  0.2470  0.2438 -0.0867
  641ERGO    R3 9840   0.822   6.882   9.849  0.0380  0.1668 -0.0737
  641ERGO    R4 9841   0.774   6.814   9.569 -0.0670  0.0765 -0.0378
  641ERGO    R5 9842   0.879   6.989   9.643 -0.1752  0.1847 -0.1283
  641ERGO    C1 9843   0.601   7.159   9.445 -0.4460 -0.0930  0.0029
  641ERGO    C2 9844   0.296   7.219   9.321  0.1289  0.1320  0.2166
  642ERGO   ROH 9845  12.548   4.148  10.790  0.2976 -0.1827 -0.1318
  642ERGO    R1 9846  12.678   4.220  10.549  0.2807 -0.2040 -0.1467
  642ERGO    R2 9847  12.659   4.068  10.319  0.0513 -0.0855 -0.2043
  642ERGO    R3 9848  12.579   4.304  10.209  0.2404  0.0416 -0.0773
  642ERGO    R4 9849  12.684   4.148   9.984 -0.1941 -0.0704 -0.2214
  642ERGO    R5 9850  12.744   4.350  10.041  0.1331 -0.1500 -0.2441
  642ERGO    C1 9851  12.624   4.415   9.685 -0.1594  0.0577 -0.1119
  642ERGO    C2 9852  12.522   4.608   9.320 -0.0814 -0.0298 -0.1287
  643ERGO   ROH 9853  17.032   6.755  10.731  0.2003 -0.2780 -0.1281
  643ERGO    R1 9854  16.929   6.875  10.497  0.1235 -0.1767 -0.0425
  643ERGO    R2 9855  17.091   6.981  10.299  0.0577 -0.0890 -0.0467
  643ERGO    R3 9856  16.948   6.815  10.138  0.0085 -0.0184 -0.0770
  643ERGO    R4 9857  17.097   6.989   9.954  0.0999 -0.0566 -0.0458
  643ERGO    R5 9858  16.881   6.955   9.955  0.0833  0.0282 -0.0718
  643ERGO    C1 9859  16.965   6.838   9.601  0.0784  0.0284 -0.0738
  643ERGO    C2 9860  16.981   6.871   9.280 -0.1568  0.0432  0.3634
  644ERGO   ROH 9861   7.016   9.683  10.815  0.2957  0.2274 -0.0137
  644ERGO    R1 9862   6.982   9.559  10.562  0.3746 -0.0166  0.0899
  644ERGO    R2 9863   6.819   9.665  10.366  0.1113 -0.4104  0.0694
  644ERGO    R3 9864   7.044   9.647  10.214  0.0852 -0.1659  0.0011
  644ERGO    R4 9865   6.823   9.653  10.020  0.0470 -0.3817  0.0688
  644ERGO    R5 9866   6.982   9.503  10.033  0.1976 -0.2102  0.0102
  644ERGO    C1 9867   7.037   9.630   9.677 -0.0150 -0.1354  0.0043
  644ERGO    C2 9868   6.882   9.629   9.342 -0.1796 -0.0463 -0.1070
  645ERGO   ROH 9869   3.586   7.905   7.028 -0.3289  0.1509 -0.1033
  645ERGO    R1 9870   3.673   7.857   7.293 -0.3684 -0.1450 -0.1412
  645ERGO    R2 9871   3.746   8.061   7.465  0.0630 -0.3623 -0.0597
  645ERGO    R3 9872   3.562   7.946   7.628 -0.1345 -0.0831 -0.0766
  645ERGO    R4 9873   3.740   8.093   7.809  0.0374 -0.2863 -0.0661
  645ERGO    R5 9874   3.687   7.882   7.823 -0.2560 -0.2189 -0.0373
  645ERGO    C1 9875   3.564   8.003   8.163 -0.1630  0.0200 -0.0858
  645ERGO    C2 9876   3.503   8.120   8.521  0.0543 -0.1371 -0.1670
  646ERGO   ROH 9877  11.558  13.030  10.893 -0.0249 -0.0211 -0.0781
  646ERGO    R1 9878  11.763  13.052  10.700 -0.0092  0.0112 -0.0578
  646ERGO    R2 9879  11.809  12.857  10.508  0.0884 -0.0169 -0.0053
  646ERGO    R3 9880  11.784  13.067  10.337  0.0305 -0.0675 -0.0595
  646ERGO    R4 9881  11.861  12.842  10.167  0.2489 -0.0593  0.0203
  646ERGO    R5 9882  11.960  13.035  10.177  0.1230  0.0077  0.0243
  646ERGO    C1 9883  11.868  13.030   9.807  0.2881 -0.1314 -0.0156
  646ERGO    C2 9884  11.955  13.002   9.434 -0.2051 -0.0244 -0.0355
  647ERGO   ROH 9885   7.155  14.797   6.405 -0.1139 -0.2780 -0.1740
  647ERGO    R1 9886   7.060  14.739   6.665 -0.0282 -0.2760 -0.1437
  647ERGO    R2 9887   7.178  14.549   6.828  0.2387 -0.0301 -0.0527
  647ERGO    R3 9888   7.192  14.755   7.004 -0.0418  0.0790 -0.1491
  647ERGO    R4 9889   7.145  14.519   7.171  0.4488  0.0418 -0.0241
  647ERGO    R5 9890   7.029  14.704   7.171  0.1157 -0.1503 -0.0517
  647ERGO    C1 9891   7.140  14.696   7.535  0.3079  0.1861 -0.0979
  647ERGO    C2 9892   7.214  14.744   7.879 -0.1008 -0.1701 -0.0215
  648ERGO   ROH 9893   3.510   7.752  10.592  0.1937 -0.1815  0.0756
  648ERGO    R1 9894   3.527   7.548  10.396  0.0076 -0.1679  0.0440
  648ERGO    R2 9895   3.333   7.354  10.366 -0.0482 -0.1307  0.1779
  648ERGO    R3 9896   3.332   7.441  10.109 -0.2340 -0.1121  0.1832
  648ERGO    R4 9897   3.306   7.149  10.090  0.1122 -0.1512  0.1768
  648ERGO    R5 9898   3.455   7.273   9.990 -0.0653  0.0394  0.1358
  648ERGO    C1 9899   3.290   7.110   9.687  0.0312 -0.1457  0.1811
  648ERGO    C2 9900   3.391   7.060   9.409 -0.3031  0.0484 -0.1918
  649ERGO   ROH 9901   1.645   5.672  10.368 -0.0368 -0.2719  0.1381
  649ERGO    R1 9902   1.460   5.593  10.169 -0.1907  0.1549  0.1014
  649ERGO    R2 9903   1.408   5.745   9.945  0.3055  0.2252  0.0258
  649ERGO    R3 9904   1.470   5.515   9.814 -0.2674 -0.0077  0.1332
  649ERGO    R4 9905   1.353   5.690   9.609  0.5272  0.3748 -0.0374
  649ERGO    R5 9906   1.290   5.487   9.657 -0.1942  0.5571 -0.0805
  649ERGO    C1 9907   1.379   5.442   9.289  0.1184  0.2432  0.0265
  649ERGO    C2 9908   1.414   5.346   8.923  0.0138  0.2185 -0.1856
  650ERGO   ROH 9909   1.137   3.897  10.730 -0.0645  0.0409  0.0056
  650ERGO    R1 9910   1.016   3.896  10.474 -0.0242 -0.0712 -0.0135
  650ERGO    R2 9911   0.919   4.126  10.355 -0.2627 -0.1678 -0.0069
  650ERGO    R3 9912   1.082   4.050  10.151 -0.1445  0.0325  0.0101
  650ERGO    R4 9913   0.824   4.104  10.023 -0.2269 -0.3539 -0.0056
  650ERGO    R5 9914   0.941   3.921  10.007  0.0388 -0.1944  0.0261
  650ERGO    C1 9915   0.922   4.020   9.639 -0.0951 -0.2743  0.0109
  650ERGO    C2 9916   1.019   3.993   9.207  0.0166 -0.0566  0.1110
  651ERGO   ROH 9917  11.173  17.126  10.867  0.0096  0.0179  0.0543
  651ERGO    R1 9918  11.015  17.069  10.639 -0.0295  0.0348  0.0770
  651ERGO    R2 9919  11.118  17.071  10.382 -0.0497 -0.0351  0.0689
  651ERGO    R3 9920  11.015  16.820  10.373 -0.1327 -0.0060  0.1134
  651ERGO    R4 9921  11.020  16.908  10.094  0.0669 -0.1141  0.0726
  651ERGO    R5 9922  10.848  16.830  10.203 -0.0306 -0.0117  0.0064
  651ERGO    C1 9923  10.865  16.578   9.917  0.0571 -0.1328  0.1167
  651ERGO    C2 9924  10.832  16.421   9.565 -0.1524  0.0038 -0.1043
  652ERGO   ROH 9925   3.904  10.190  10.839  0.0804  0.0657 -0.0100
  652ERGO    R1 9926   3.820  10.110  10.581  0.0556  0.0755 -0.0059
  652ERGO    R2 9927   3.688  10.280  10.408  0.0940  0.1039 -0.0139
  652ERGO    R3 9928   3.889  10.210  10.238  0.0768  0.0456 -0.0092
  652ERGO    R4 9929   3.655  10.249  10.065  0.0370 -0.1410  0.0129
  652ERGO    R5 9930   3.782  10.072  10.074  0.0866 -0.0957  0.1064
  652ERGO    C1 9931   3.824  10.165   9.706 -0.0124 -0.3383  0.0329
  652ERGO    C2 9932   3.817  10.300   9.316  0.0505  0.1653  0.1937
  653ERGO   ROH 9933  14.990   6.423  10.540  0.1047 -0.2575  0.0356
  653ERGO    R1 9934  14.916   6.631  10.362 -0.0333 -0.1804  0.1791
  653ERGO    R2 9935  15.036   6.665  10.116  0.0489  0.1598  0.2548
  653ERGO    R3 9936  14.779   6.654  10.026  0.0984 -0.0430  0.1361
  653ERGO    R4 9937  14.930   6.777   9.806  0.0948  0.0556  0.2020
  653ERGO    R5 9938  14.751   6.857   9.902 -0.0072 -0.0781  0.1115
  653ERGO    C1 9939  14.628   6.832   9.542  0.1679 -0.1955  0.0599
  653ERGO    C2 9940  14.704   6.866   9.238 -0.1729  0.0651  0.0080
  654ERGO   ROH 9941   5.252  12.407  10.935  0.1896 -0.0908 -0.0238
  654ERGO    R1 9942   5.305  12.515  10.679  0.2101 -0.0714 -0.0109
  654ERGO    R2 9943   5.449  12.379  10.486 -0.0720 -0.2034 -0.1307
  654ERGO    R3 9944   5.229  12.428  10.334 -0.0853  0.1537 -0.0078
  654ERGO    R4 9945   5.453  12.429  10.144 -0.1680 -0.1103 -0.1190
  654ERGO    R5 9946   5.304  12.586  10.170  0.0625  0.0991  0.0026
  654ERGO    C1 9947   5.249  12.504   9.802 -0.2363  0.2793  0.0031
  654ERGO    C2 9948   5.248  12.430   9.418 -0.2474  0.2210 -0.1434
  655ERGO   ROH 9949   7.494   4.734  10.973  0.0059 -0.0418  0.1237
  655ERGO    R1 9950   7.579   4.570  10.759 -0.1180  0.0408  0.0092
  655ERGO    R2 9951   7.417   4.509  10.543 -0.1824  0.2718 -0.0111
  655ERGO    R3 9952   7.626   4.607  10.400 -0.1419  0.2397  0.0261
  655ERGO    R4 9953   7.442   4.500  10.199 -0.1054  0.2422 -0.0046
  655ERGO    R5 9954   7.653   4.451  10.221 -0.1163  0.2241  0.0451
  655ERGO    C1 9955   7.654   4.585   9.864 -0.0226  0.1948  0.0339
  655ERGO    C2 9956   7.585   4.637   9.487 -0.3212 -0.2214  0.1231
  656ERGO   ROH 9957   2.576  13.536  10.933 -0.0402 -0.1339 -0.0155
  656ERGO    R1 9958   2.687  13.680  10.717 -0.0185 -0.0810  0.0297
  656ERGO    R2 9959   2.886  13.576  10.554  0.0850  0.0016  0.0925
  656ERGO    R3 9960   2.711  13.638  10.356  0.1251 -0.0611  0.0383
  656ERGO    R4 9961   2.963  13.583  10.217  0.1659  0.0105  0.1112
  656ERGO    R5 9962   2.841  13.763  10.198  0.1230 -0.0334  0.0672
  656ERGO    C1 9963   2.843  13.646   9.835  0.2508 -0.0431  0.0713
  656ERGO    C2 9964   2.774  13.596   9.535  0.0583 -0.1145 -0.1093
  657ERGO   ROH 9965  15.696  15.669  10.740  0.1681  0.0697 -0.0422
  657ERGO    R1 9966  15.806  15.548  10.509  0.1779  0.1613 -0.0848
  657ERGO    R2 9967  15.649  15.430  10.314  0.2046 -0.1153  0.0612
  657ERGO    R3 9968  15.785  15.598  10.149 -0.1479  0.0339 -0.0877
  657ERGO    R4 9969  15.625  15.430   9.969  0.2411 -0.5223  0.0529
  657ERGO    R5 9970  15.840  15.463   9.959  0.1821 -0.0449  0.0550
  657ERGO    C1 9971  15.738  15.588   9.613 -0.0686 -0.6194 -0.0916
  657ERGO    C2 9972  15.856  15.548   9.243 -0.0600 -0.3653 -0.1435
  658ERGO   ROH 9973   4.971   3.783  10.777 -0.2133  0.0883  0.0021
  658ERGO    R1 9974   4.969   3.890  10.515 -0.4478 -0.0992 -0.0767
  658ERGO    R2 9975   5.201   3.944  10.374 -0.5538  0.3175 -0.1058
  658ERGO    R3 9976   5.085   3.786  10.186 -0.2060 -0.0850  0.0019
  658ERGO    R4 9977   5.229   3.990  10.033 -0.4053 -0.0520 -0.1486
  658ERGO    R5 9978   5.018   3.938  10.014 -0.3224 -0.3840 -0.2271
  658ERGO    C1 9979   5.137   3.869   9.658  0.0077 -0.6449 -0.0724
  658ERGO    C2 9980   4.987   3.810   9.398 -0.1447  0.0867  0.1644
  659ERGO   ROH 9981  13.694   3.771  10.697 -0.0668  0.1100 -0.0801
  659ERGO    R1 9982  13.716   3.935  10.468  0.1635  0.1252 -0.0490
  659ERGO    R2 9983  13.886   3.876  10.258  0.0544 -0.0932 -0.0738
  659ERGO    R3 9984  13.659   3.900  10.110  0.0739  0.2858 -0.0530
  659ERGO    R4 9985  13.877   3.920   9.915  0.1096 -0.1679 -0.0848
  659ERGO    R5 9986  13.714   4.062   9.942  0.3639  0.1487 -0.1026
  659ERGO    C1 9987  13.658   3.967   9.577  0.1599  0.1444 -0.0717
  659ERGO    C2 9988  13.550   3.918   9.296 -0.1121 -0.0067  0.3268
  660ERGO   ROH 9989   5.480   4.845  10.644 -0.0605  0.1406  0.0231
  660ERGO    R1 9990   5.546   4.976  10.402  0.1022  0.1586  0.0758
  660ERGO    R2 9991   5.808   5.025  10.326  0.1688 -0.1520  0.0854
  660ERGO    R3 9992   5.731   4.895  10.099 -0.0160  0.0409  0.0350
  660ERGO    R4 9993   5.892   5.121  10.005  0.3198 -0.1578  0.1227
  660ERGO    R5 9994   5.689   5.070   9.942  0.2448  0.1612  0.0966
  660ERGO    C1 9995   5.868   5.056   9.605  0.2343  0.0200  0.0972
  660ERGO    C2 9996   5.827   4.987   9.342  0.2157 -0.1798  0.0121
  661ERGO   ROH 9997  16.828   4.946  10.627  0.0230  0.0262  0.0083
  661ERGO    R1 9998  16.879   5.030  10.362  0.0406  0.0543  0.0204
  661ERGO    R2 9999  17.025   4.878  10.183  0.0104  0.0497 -0.0024
  661ERGO    R310000  16.804   4.909  10.027  0.0159  0.1174  0.0036
  661ERGO    R410001  17.031   4.959   9.847  0.0171  0.2019  0.0338
  661ERGO    R510002  16.860   5.091   9.881  0.0159  0.1832  0.0871
  661ERGO    C110003  16.827   5.035   9.505  0.0260  0.3541  0.0605
  661ERGO    C210004  16.781   4.932   9.218  0.1318  0.0805 -0.1861
  662ERGO   ROH10005   2.970  11.385  11.039  0.2599  0.1737 -0.0049
  662ERGO    R110006   3.107  11.483  10.812  0.2308  0.0173 -0.0929
  662ERGO    R210007   3.244  11.318  10.638  0.0532 -0.1270 -0.1058
  662ERGO    R310008   3.086  11.439  10.452  0.0494 -0.0799 -0.0708
  662ERGO    R410009   3.287  11.294  10.296  0.0822  0.0219 -0.1126
  662ERGO    R510010   3.238  11.505  10.279  0.0478  0.0164 -0.0314
  662ERGO    C110011   3.165  11.393   9.922  0.0956  0.1529 -0.0836
  662ERGO    C210012   3.084  11.503   9.602 -0.0382  0.1127  0.1025
  663ERGO   ROH10013   2.396  15.924  10.721  0.3187 -0.0487 -0.0212
  663ERGO    R110014   2.365  15.981  10.445  0.1851  0.0026  0.0043
  663ERGO    R210015   2.579  16.020  10.276  0.1059 -0.1078 -0.1218
  663ERGO    R310016   2.459  15.825  10.130 -0.1014 -0.0177 -0.0739
  663ERGO    R410017   2.587  15.999   9.931  0.0768 -0.1935 -0.1177
  663ERGO    R510018   2.377  15.939   9.936  0.0115  0.0248 -0.0980
  663ERGO    C110019   2.477  15.804   9.594 -0.1349 -0.1590 -0.0704
  663ERGO    C210020   2.478  15.800   9.264 -0.0929 -0.1757  0.0702
  664ERGO   ROH10021  13.618  17.219  10.842  0.0466 -0.0705 -0.0523
  664ERGO    R110022  13.514  17.128  10.595  0.2242 -0.1124 -0.1137
  664ERGO    R210023  13.347  17.283  10.437 -0.1249 -0.3419  0.0128
  664ERGO    R310024  13.533  17.231  10.246 -0.0116  0.1984 -0.0392
  664ERGO    R410025  13.287  17.286  10.097 -0.1878 -0.3804  0.0240
  664ERGO    R510026  13.413  17.109  10.078  0.2685 -0.0581 -0.0587
  664ERGO    C110027  13.426  17.238   9.719 -0.1181  0.1041 -0.0182
  664ERGO    C210028  13.413  17.231   9.404  0.1889 -0.2050  0.0686
  665ERGO   ROH10029   4.117   4.728  10.778  0.0445 -0.0465 -0.1287
  665ERGO    R110030   4.031   4.604  10.539  0.0173 -0.1767 -0.0519
  665ERGO    R210031   4.187   4.596  10.311 -0.0948 -0.1120 -0.1285
  665ERGO    R310032   4.142   4.328  10.329  0.1249 -0.1450 -0.0389
  665ERGO    R410033   4.222   4.373  10.050 -0.1240 -0.1294 -0.1178
  665ERGO    R510034   4.042   4.271  10.119  0.0027 -0.2589  0.0453
  665ERGO    C110035   4.201   3.992   9.914  0.0653 -0.1706 -0.0274
  665ERGO    C210036   4.262   4.019   9.575  0.1444 -0.2961 -0.2039
  666ERGO   ROH10037  14.796  11.586  10.724 -0.0262  0.1731  0.3031
  666ERGO    R110038  14.845  11.431  10.492 -0.1725  0.0566  0.3477
  666ERGO    R210039  14.663  11.414  10.284 -0.1538  0.2436  0.3103
  666ERGO    R310040  14.876  11.494  10.135 -0.0137 -0.0589  0.3411
  666ERGO    R410041  14.657  11.465   9.942 -0.0017  0.1799  0.2977
  666ERGO    R510042  14.854  11.373   9.930 -0.1167 -0.0739  0.3636
  666ERGO    C110043  14.854  11.570   9.603  0.2184 -0.1413  0.3193
  666ERGO    C210044  14.952  11.551   9.339 -0.4280 -0.0603  0.1438
  667ERGO   ROH10045   5.140  11.344  11.113  0.2292  0.0676 -0.0870
  667ERGO    R110046   5.018  11.388  10.861  0.1234 -0.0469 -0.0586
  667ERGO    R210047   5.119  11.568  10.677 -0.0806  0.0402 -0.0951
  667ERGO    R310048   5.112  11.352  10.512  0.0684  0.0255 -0.0802
  667ERGO    R410049   5.081  11.582  10.333 -0.1467 -0.0113 -0.0887
  667ERGO    R510050   4.950  11.409  10.345 -0.0032 -0.1166 -0.0576
  667ERGO    C110051   5.053  11.388   9.979 -0.0453 -0.0552 -0.0709
  667ERGO    C210052   5.080  11.501   9.597 -0.2070  0.1647  0.1900
  668ERGO   ROH10053   8.143  14.186  10.515 -0.0581  0.0186  0.0203
  668ERGO    R110054   8.063  14.259  10.254  0.0285  0.0333 -0.0014
  668ERGO    R210055   8.244  14.310  10.052  0.0924 -0.0122  0.0490
  668ERGO    R310056   8.099  14.123   9.918  0.0845  0.0216  0.0082
  668ERGO    R410057   8.168  14.323   9.715 -0.0558  0.1601  0.0872
  668ERGO    R510058   7.968  14.249   9.763 -0.0187  0.0782  0.1353
  668ERGO    C110059   7.987  14.155   9.394 -0.1496  0.2920  0.0711
  668ERGO    C210060   7.996  14.272   9.160  0.3912  0.0803 -0.1420
  669ERGO   ROH10061   9.225   9.589  10.979  0.0270  0.0319  0.1417
  669ERGO    R110062   9.199   9.768  10.761  0.1749  0.0190  0.1118
  669ERGO    R210063   9.397   9.800  10.571  0.1759 -0.2275  0.0651
  669ERGO    R310064   9.195   9.744  10.398  0.0793 -0.0489  0.1177
  669ERGO    R410065   9.402   9.869  10.232  0.0235  0.0339  0.1133
  669ERGO    R510066   9.193   9.929  10.246  0.0440  0.0689  0.2618
  669ERGO    C110067   9.216   9.856   9.873 -0.1558  0.3537  0.1908
  669ERGO    C210068   9.339   9.879   9.523  0.0372  0.0755 -0.3566
  670ERGO   ROH10069  10.378  16.395  10.940  0.0743  0.0378 -0.1178
  670ERGO    R110070  10.251  16.239  10.741  0.2730 -0.0018 -0.2165
  670ERGO    R210071   9.989  16.282  10.664  0.1261 -0.4535  0.0044
  670ERGO    R310072  10.099  16.299  10.416 -0.0582  0.0671 -0.0542
  670ERGO    R410073   9.827  16.197  10.370  0.1217 -0.5003  0.0202
  670ERGO    R510074  10.013  16.108  10.300  0.2949 -0.0128 -0.2008
  670ERGO    C110075   9.837  16.164   9.966 -0.0538 -0.0388 -0.0258
  670ERGO    C210076   9.825  16.170   9.661 -0.4379 -0.1955  0.1804
  671ERGO   ROH10077   1.929   7.568  10.342  0.0715 -0.0926 -0.1276
  671ERGO    R110078   1.996   7.571  10.067  0.0475 -0.0470 -0.1335
  671ERGO    R210079   1.867   7.733   9.883 -0.0344 -0.0871 -0.1133
  671ERGO    R310080   2.119   7.816   9.828 -0.0728  0.0195 -0.1273
  671ERGO    R410081   1.983   7.817   9.569 -0.1771  0.2800 -0.0724
  671ERGO    R510082   2.170   7.717   9.616 -0.1400  0.2607 -0.2594
  671ERGO    C110083   2.287   7.945   9.334 -0.2963  0.5939 -0.0616
  671ERGO    C210084   2.417   7.870   9.081 -0.2431  0.1273 -0.0287
  672ERGO   ROH10085   4.857  16.692  10.817 -0.0607 -0.0305 -0.0340
  672ERGO    R110086   5.013  16.665  10.583 -0.1292  0.0047 -0.0833
  672ERGO    R210087   4.957  16.477  10.388 -0.1704  0.0187 -0.0803
  672ERGO    R310088   4.960  16.694  10.224 -0.2382  0.0313 -0.0661
  672ERGO    R410089   5.021  16.467  10.048  0.0113  0.0770 -0.0495
  672ERGO    R510090   5.138  16.650  10.070 -0.1249  0.1611  0.0219
  672ERGO    C110091   5.061  16.664   9.697  0.0533  0.1226 -0.0183
  672ERGO    C210092   4.935  16.643   9.333  0.0663  0.0996 -0.1261
  673ERGO   ROH10093   3.459  14.506  11.019  0.1493 -0.2001 -0.0259
  673ERGO    R110094   3.550  14.387  10.779  0.0185 -0.2993 -0.0264
  673ERGO    R210095   3.379  14.263  10.600 -0.1193 -0.0968 -0.0308
  673ERGO    R310096   3.493  14.435  10.423  0.0837 -0.2259 -0.0283
  673ERGO    R410097   3.378  14.221  10.257 -0.2870 -0.0347 -0.0396
  673ERGO    R510098   3.584  14.292  10.253 -0.1753 -0.3359 -0.0843
  673ERGO    C110099   3.484  14.357   9.891 -0.1943 -0.1198 -0.0423
  673ERGO    C210100   3.457  14.298   9.615 -0.0496  0.0777  0.0037
  674loPI    C110101  12.878  11.388   5.617  0.1961  0.0869 -0.0752
  674loPI    C210102  12.877  10.992   5.561  0.0280  0.0547  0.1435
  674loPI    C310103  12.995  11.235   5.266  0.0520 -0.1533 -0.0207
  674loPI   PO410104  12.888  11.456   5.859 -0.0142  0.3094  0.2242
  674loPI   GL110105  12.598  11.616   6.158  0.2903 -0.1322  0.3408
  674loPI   GL210106  12.808  11.895   6.261 -0.3212  0.0412 -0.0717
  674loPI   C1A10107  12.451  11.738   6.548 -0.0291 -0.1542 -0.3871
  674loPI   C2A10108  12.448  11.824   6.937 -0.0111 -0.1146  0.1668
  674loPI   C3A10109  12.411  11.750   7.377 -0.1672 -0.0063 -0.0531
  674loPI   C4A10110  12.381  11.838   7.748 -0.1630  0.1129 -0.2326
  674loPI   C5A10111  12.414  11.984   8.187  0.1712  0.1773 -0.1116
  674loPI   C6A10112  12.187  11.925   8.582 -0.1089 -0.1290  0.0698
  674loPI   C1B10113  12.882  11.926   6.675  0.1683  0.2062 -0.0741
  674loPI   C2B10114  12.933  11.906   7.213  0.4933  0.1497 -0.1401
  674loPI   C3B10115  12.841  11.935   7.605  0.0492  0.0583 -0.2419
  674loPI   C4B10116  12.961  12.010   8.049 -0.0947 -0.2157  0.1851
  675loPI    C110117  13.349   6.811   6.067 -0.2319 -0.0832  0.0055
  675loPI    C210118  13.329   6.906   5.679  0.1498  0.0867  0.0229
  675loPI    C310119  13.346   7.195   5.955 -0.1749 -0.0328  0.1735
  675loPI   PO410120  13.541   6.672   6.041 -0.1779  0.2059  0.1129
  675loPI   GL110121  13.727   6.605   6.390  0.0272  0.0086 -0.0542
  675loPI   GL210122  13.939   6.336   6.476 -0.1960  0.0999 -0.2288
  675loPI   C1A10123  13.783   6.762   6.775  0.0246  0.0658  0.2494
  675loPI   C2A10124  13.784   6.612   7.178  0.0765 -0.1241 -0.1385
  675loPI   C3A10125  13.864   6.554   7.588 -0.1711  0.0399 -0.0515
  675loPI   C4A10126  13.920   6.451   8.020  0.0678  0.0908 -0.1520
  675loPI   C5A10127  14.099   6.372   8.504  0.2078  0.2363 -0.0624
  675loPI   C6A10128  14.210   6.526   8.770  0.1028  0.2537  0.0820
  675loPI   C1B10129  14.099   6.257   6.860  0.0224  0.3169  0.0871
  675loPI   C2B10130  14.179   6.259   7.303  0.0624  0.0903 -0.0122
  675loPI   C3B10131  14.252   6.143   7.735  0.1235 -0.1067  0.0662
  675loPI   C4B10132  14.305   6.129   8.154 -0.1284  0.4004  0.1011
  676loPI    C110133   0.850  17.469   5.673  0.1777 -0.0562 -0.1833
  676loPI    C210134   0.537  17.650   5.501  0.0641 -0.1717 -0.1007
  676loPI    C310135   0.626  17.271   5.407  0.0449 -0.2119  0.0407
  676loPI   PO410136   0.804  17.470   5.938 -0.3717  0.2799 -0.1196
  676loPI   GL110137   0.911  17.793   6.284  0.0866 -0.2696 -0.1290
  676loPI   GL210138   1.100  17.420   6.354 -0.1850 -0.0807 -0.1895
  676loPI   C1A10139   0.575  17.855   6.576 -0.1100  0.0727 -0.3234
  676loPI   C2A10140   0.488  17.732   7.006  0.0870 -0.2155  0.3478
  676loPI   C3A10141   0.480  17.779   7.411 -0.1544 -0.2780  0.1545
  676loPI   C4A10142   0.349  17.825   7.849  0.2072  0.1156 -0.3023
  676loPI   C5A10143   0.480  17.786   8.247  0.1744  0.2286  0.0694
  676loPI   C6A10144   0.683  17.779   8.719  0.0836  0.1467  0.1018
  676loPI   C1B10145   0.881  17.458   6.742  0.2502  0.1372  0.0150
  676loPI   C2B10146   0.736  17.407   7.203 -0.3119 -0.2008  0.0213
  676loPI   C3B10147   0.833  17.425   7.492 -0.0355  0.0493 -0.0560
  676loPI   C4B10148   0.721  17.507   7.839 -0.2858  0.2494 -0.1617
  677loPI    C110149  17.531   1.992   5.606  0.1607  0.1138  0.0856
  677loPI    C210150  17.483   1.960   5.210  0.0160 -0.0830  0.1174
  677loPI    C310151  17.476   2.320   5.383 -0.1986 -0.0161 -0.0258
  677loPI   PO410152  17.378   1.864   5.699 -0.0173  0.0984  0.1843
  677loPI   GL110153  17.356   1.731   6.125 -0.0383 -0.2234 -0.2291
  677loPI   GL210154  17.103   1.722   6.241 -0.1542 -0.1706 -0.1320
  677loPI   C1A10155  17.605   1.844   6.463 -0.1559 -0.0224 -0.3137
  677loPI   C2A10156  17.695   1.915   6.898  0.0571 -0.0025 -0.0594
  677loPI   C3A10157  17.686   1.881   7.420  0.1184  0.0975 -0.1602
  677loPI   C4A10158  17.518   1.969   7.819  0.0218 -0.0719 -0.2688
  677loPI   C5A10159  17.383   1.899   8.234  0.1167 -0.0240 -0.3684
  677loPI   C6A10160  17.266   1.737   8.622  0.3381 -0.0767 -0.3254
  677loPI   C1B10161  17.148   1.802   6.647  0.0857  0.0445 -0.0019
  677loPI   C2B10162  17.237   1.781   7.049 -0.0069  0.0646 -0.0117
  677loPI   C3B10163  17.135   1.859   7.459  0.0774  0.1984 -0.0545
  677loPI   C4B10164  17.014   1.823   7.868 -0.2286 -0.0410  0.0932
  678loPI    C110165   0.740   8.463   6.073 -0.0506  0.1444  0.2354
  678loPI    C210166   0.492   8.585   5.784  0.2802 -0.1279 -0.1754
  678loPI    C310167   0.888   8.587   5.723  0.3543 -0.2217  0.2672
  678loPI   PO410168   0.662   8.549   6.324  0.0606 -0.1942  0.2986
  678loPI   GL110169   0.574   8.572   6.741 -0.2508  0.1066 -0.2670
  678loPI   GL210170   0.756   8.764   6.916  0.0448 -0.1331  0.3151
  678loPI   C1A10171   0.281   8.425   7.056  0.0446  0.1576 -0.0992
  678loPI   C2A10172   0.313   8.245   7.441  0.0050 -0.2386  0.0268
  678loPI   C3A10173   0.280   8.260   7.803 -0.1284 -0.1877 -0.0831
  678loPI   C4A10174   0.358   8.166   8.249  0.0533  0.0839 -0.1922
  678loPI   C5A10175   0.188   8.159   8.735 -0.0740  0.1827  0.0139
  678loPI   C6A10176   0.185   8.146   9.126 -0.0243  0.2924  0.3807
  678loPI   C1B10177   0.769   8.571   7.360 -0.1811 -0.0122  0.1818
  678loPI   C2B10178   1.027   8.487   7.684 -0.0347  0.0036 -0.1415
  678loPI   C3B10179   1.197   8.627   8.157 -0.2227  0.0678 -0.1569
  678loPI   C4B10180   1.273   8.671   8.557 -0.3422  0.2378  0.1312
  679loPI    C110181   7.351  17.580   6.008  0.1301  0.1680 -0.0432
  679loPI    C210182   7.390  17.534   5.613  0.0787  0.0405 -0.0340
  679loPI    C310183   7.710  17.619   5.837  0.0890  0.2264 -0.1169
  679loPI   PO410184   7.084  17.376   6.086 -0.0957 -0.1291 -0.0811
  679loPI   GL110185   6.992  16.985   6.357  0.0731 -0.1172 -0.0168
  679loPI   GL210186   7.306  17.027   6.379 -0.2437 -0.0130  0.1175
  679loPI   C1A10187   6.881  16.922   6.656 -0.4391 -0.2708  0.0295
  679loPI   C2A10188   6.863  16.956   7.079 -0.0304 -0.1470  0.3776
  679loPI   C3A10189   6.896  16.970   7.540  0.2652  0.1821 -0.2760
  679loPI   C4A10190   6.873  16.997   7.951  0.0172 -0.1793  0.1832
  679loPI   C5A10191   6.742  16.999   8.426 -0.1429  0.2273  0.0327
  679loPI   C6A10192   6.680  16.718   8.844 -0.2924  0.2039 -0.0544
  679loPI   C1B10193   7.330  17.054   6.850 -0.1144 -0.4093  0.3101
  679loPI   C2B10194   7.356  17.044   7.221 -0.1338  0.0768 -0.0750
  679loPI   C3B10195   7.300  17.050   7.750  0.1285  0.2905 -0.1091
  679loPI   C4B10196   7.436  17.101   8.162 -0.1462 -0.0763 -0.0905
  680loPI    C110197  12.818   7.834   5.709  0.0231  0.1910 -0.0857
  680loPI    C210198  12.799   7.660   5.349  0.2036 -0.0557  0.0210
  680loPI    C310199  13.096   7.915   5.434  0.1638 -0.0013 -0.0022
  680loPI   PO410200  12.816   7.523   5.874  0.1869  0.0047  0.2551
  680loPI   GL110201  12.896   7.291   6.313  0.0690  0.1965  0.1807
  680loPI   GL210202  12.612   7.179   6.333 -0.1834 -0.0220  0.0595
  680loPI   C1A10203  12.997   7.175   6.776  0.3288  0.3237  0.0495
  680loPI   C2A10204  13.013   7.417   7.210  0.0293 -0.0025 -0.0253
  680loPI   C3A10205  13.020   7.260   7.672 -0.3376  0.0153  0.0055
  680loPI   C4A10206  13.032   7.335   8.100 -0.0509  0.3110  0.1295
  680loPI   C5A10207  13.130   7.266   8.519  0.0353  0.1628  0.2931
  680loPI   C6A10208  13.378   7.000   8.788 -0.1111  0.1579  0.1138
  680loPI   C1B10209  12.410   7.114   6.764  0.1227  0.1188  0.1660
  680loPI   C2B10210  12.425   7.141   7.251 -0.2133 -0.0824 -0.3501
  680loPI   C3B10211  12.565   7.195   7.641  0.2079  0.1898  0.4185
  680loPI   C4B10212  12.579   7.185   8.060 -0.4495 -0.0261  0.1840
  681loPI    C110213   5.099  12.182   5.668 -0.0871 -0.2163 -0.0252
  681loPI    C210214   5.275  12.493   5.488 -0.2896  0.0696  0.2574
  681loPI    C310215   4.961  12.313   5.316  0.0545 -0.2239 -0.0842
  681loPI   PO410216   5.069  12.311   5.963 -0.2877  0.0875 -0.0114
  681loPI   GL110217   4.878  12.491   6.335  0.2784 -0.1419 -0.2457
  681loPI   GL210218   4.991  12.808   6.430  0.0709  0.1606 -0.0560
  681loPI   C1A10219   4.850  12.283   6.712 -0.0266  0.1582  0.1835
  681loPI   C2A10220   4.977  12.327   7.086  0.1497 -0.2854 -0.1966
  681loPI   C3A10221   5.053  12.498   7.453 -0.0405 -0.1307 -0.2000
  681loPI   C4A10222   4.973  12.350   7.938  0.0211 -0.0373  0.0381
  681loPI   C5A10223   4.801  12.032   8.391 -0.1710 -0.0842 -0.2218
  681loPI   C6A10224   4.576  11.632   8.566 -0.1787  0.2434 -0.2700
  681loPI   C1B10225   5.089  12.917   6.845 -0.2152 -0.0213  0.1655
  681loPI   C2B10226   5.162  12.973   7.248 -0.2036  0.0058 -0.0324
  681loPI   C3B10227   5.292  12.883   7.715 -0.0897 -0.2748 -0.3121
  681loPI   C4B10228   5.245  12.822   8.139 -0.0389 -0.2719 -0.0553
  682loPI    C110229   4.204   4.081   5.822 -0.0637 -0.1487 -0.0044
  682loPI    C210230   3.865   4.130   5.614 -0.0517  0.1571  0.0442
  682loPI    C310231   4.219   4.190   5.437 -0.0227 -0.1102  0.0081
  682loPI   PO410232   4.099   4.094   6.043 -0.0501  0.0263 -0.1859
  682loPI   GL110233   4.141   4.355   6.375 -0.0598 -0.1622  0.0500
  682loPI   GL210234   3.838   4.245   6.493  0.2606  0.1354 -0.4971
  682loPI   C1A10235   4.166   4.264   6.842 -0.0783  0.0999  0.0779
  682loPI   C2A10236   3.984   4.204   7.275  0.1934  0.0148  0.1777
  682loPI   C3A10237   4.112   4.300   7.626  0.1353  0.1809  0.0719
  682loPI   C4A10238   4.010   4.206   8.030 -0.0963 -0.0000 -0.0622
  682loPI   C5A10239   3.939   4.219   8.423  0.2835 -0.0661 -0.1998
  682loPI   C6A10240   3.700   4.424   8.827 -0.0492  0.0787 -0.0291
  682loPI   C1B10241   3.724   4.113   6.808  0.1082 -0.1758 -0.1564
  682loPI   C2B10242   3.478   4.066   7.153 -0.0935  0.0608 -0.1041
  682loPI   C3B10243   3.559   4.082   7.615  0.2115 -0.3571 -0.2406
  682loPI   C4B10244   3.543   4.083   8.130 -0.1722  0.0276 -0.3676
  683loPI    C110245  11.218  16.056   5.766 -0.0177  0.1217 -0.0819
  683loPI    C210246  11.391  15.842   5.476  0.1147 -0.1129  0.1649
  683loPI    C310247  10.992  15.845   5.511  0.0681  0.2790 -0.2906
  683loPI   PO410248  11.278  15.999   6.031 -0.3858  0.1851 -0.1021
  683loPI   GL110249  11.340  16.214   6.427 -0.2010  0.0183  0.0964
  683loPI   GL210250  11.209  16.442   6.520  0.0467 -0.1168 -0.0258
  683loPI   C1A10251  11.429  16.105   6.843 -0.1290  0.1982 -0.3379
  683loPI   C2A10252  11.467  16.149   7.260  0.2230 -0.1998 -0.4711
  683loPI   C3A10253  11.389  16.166   7.726  0.1502 -0.1286 -0.0442
  683loPI   C4A10254  11.366  16.247   8.164 -0.0054  0.1839  0.0136
  683loPI   C5A10255  11.193  16.457   8.432  0.0891 -0.2956  0.2684
  683loPI   C6A10256  10.943  16.438   8.861  0.4006 -0.1572 -0.0102
  683loPI   C1B10257  11.171  16.492   6.925  0.0217  0.0119  0.0283
  683loPI   C2B10258  11.161  16.590   7.268 -0.4107  0.1397 -0.4857
  683loPI   C3B10259  11.041  16.527   7.624 -0.1929  0.1220  0.1337
  683loPI   C4B10260  10.995  16.610   8.019  0.0730 -0.2500 -0.0011
  684loPI    C110261   5.095   2.045   5.614  0.0604  0.1658 -0.0073
  684loPI    C210262   5.457   2.086   5.448  0.1222 -0.2276  0.0219
  684loPI    C310263   5.146   1.970   5.224 -0.0120  0.2058 -0.0247
  684loPI   PO410264   5.011   2.211   5.724  0.0895 -0.2659 -0.0490
  684loPI   GL110265   5.008   2.195   6.137  0.1327  0.0993 -0.0866
  684loPI   GL210266   5.218   2.277   6.391 -0.3996 -0.1105 -0.2275
  684loPI   C1A10267   4.797   2.129   6.564 -0.2943  0.2404 -0.1788
  684loPI   C2A10268   4.785   2.182   7.004 -0.1394 -0.4138 -0.1424
  684loPI   C3A10269   4.874   2.080   7.513 -0.0572  0.0882 -0.1311
  684loPI   C4A10270   4.862   2.114   7.911  0.0184 -0.0520  0.4006
  684loPI   C5A10271   4.786   1.981   8.380  0.0937 -0.0868  0.1345
  684loPI   C6A10272   4.822   1.664   8.581 -0.0095 -0.1792  0.0025
  684loPI   C1B10273   5.265   2.319   6.798 -0.2119  0.1097  0.0521
  684loPI   C2B10274   5.259   2.327   7.233  0.1412 -0.0562  0.0958
  684loPI   C3B10275   5.333   2.238   7.674  0.1135  0.0788  0.0882
  684loPI   C4B10276   5.377   2.131   8.054 -0.0941  0.0122  0.1452
  685loPI    C110277  13.875  13.297   5.589 -0.1195  0.1317 -0.2074
  685loPI    C210278  14.244  13.389   5.465 -0.0472 -0.0708 -0.1457
  685loPI    C310279  13.932  13.448   5.223  0.0574 -0.1630 -0.3050
  685loPI   PO410280  13.834  13.352   5.885 -0.0967 -0.0600 -0.2499
  685loPI   GL110281  13.880  13.751   6.117  0.2130 -0.0131 -0.0111
  685loPI   GL210282  13.941  14.146   6.252 -0.1201 -0.2406  0.1521
  685loPI   C1A10283  13.923  13.521   6.526  0.1489 -0.3246  0.1843
  685loPI   C2A10284  14.008  13.519   6.962  0.1508  0.1518 -0.0050
  685loPI   C3A10285  13.987  13.534   7.358  0.0994 -0.0198 -0.2770
  685loPI   C4A10286  13.988  13.612   7.799 -0.1641  0.1227 -0.2712
  685loPI   C5A10287  13.993  13.579   8.185  0.0935 -0.4852 -0.2487
  685loPI   C6A10288  14.108  13.437   8.633  0.0488  0.0014 -0.1415
  685loPI   C1B10289  14.055  14.036   6.673 -0.1130  0.0908  0.0191
  685loPI   C2B10290  14.114  13.985   7.103  0.1909  0.2266 -0.3865
  685loPI   C3B10291  14.189  14.002   7.546  0.2135  0.0170  0.1690
  685loPI   C4B10292  14.124  14.081   8.011  0.1297 -0.0920 -0.0899
  686loPI    C110293   9.549   4.493   5.819 -0.0781  0.2840  0.4109
  686loPI    C210294   9.839   4.658   5.598 -0.1732 -0.0716  0.0083
  686loPI    C310295   9.471   4.814   5.594 -0.0910  0.1330  0.1979
  686loPI   PO410296   9.709   4.457   6.105  0.0918 -0.0906  0.1610
  686loPI   GL110297   9.894   4.414   6.335  0.2431  0.1463  0.0054
  686loPI   GL210298   9.723   4.189   6.548 -0.1182  0.0284 -0.3156
  686loPI   C1A10299  10.170   4.330   6.587  0.2473 -0.0582 -0.2052
  686loPI   C2A10300  10.311   4.274   7.027  0.1415 -0.1955 -0.4738
  686loPI   C3A10301  10.244   4.299   7.388 -0.0138 -0.2613  0.0523
  686loPI   C4A10302  10.293   4.347   7.740  0.3074  0.0474  0.4842
  686loPI   C5A10303  10.356   4.405   8.152  0.1556 -0.0717 -0.2175
  686loPI   C6A10304  10.411   4.231   8.484 -0.0106  0.0510 -0.2096
  686loPI   C1B10305   9.775   4.156   7.006 -0.0765  0.1475  0.3107
  686loPI   C2B10306   9.691   4.280   7.495 -0.1545 -0.2644  0.0836
  686loPI   C3B10307   9.807   4.279   7.852  0.3788  0.0526  0.0943
  686loPI   C4B10308   9.893   4.200   8.261  0.1096 -0.1249 -0.0090
  687loPI    C110309   7.190  16.806   5.884  0.2233  0.0133 -0.2781
  687loPI    C210310   7.067  16.695   5.519  0.0232  0.0274 -0.2163
  687loPI    C310311   7.093  17.083   5.612 -0.0476  0.0225 -0.1758
  687loPI   PO410312   7.045  16.575   6.051  0.3534  0.1624  0.1679
  687loPI   GL110313   7.194  16.405   6.351  0.0499 -0.0526 -0.2507
  687loPI   GL210314   7.052  16.157   6.341  0.1335 -0.2171 -0.4158
  687loPI   C1A10315   7.187  16.542   6.712 -0.0994 -0.3148  0.0304
  687loPI   C2A10316   7.220  16.534   7.205  0.0270 -0.2146  0.3067
  687loPI   C3A10317   7.229  16.591   7.635  0.3382 -0.0427  0.1383
  687loPI   C4A10318   7.126  16.611   8.075  0.1091 -0.2493  0.0559
  687loPI   C5A10319   7.198  16.805   8.525 -0.0372 -0.0189 -0.1844
  687loPI   C6A10320   7.019  17.135   8.859 -0.0080  0.1031 -0.0041
  687loPI   C1B10321   7.094  16.098   6.819  0.1377 -0.2405 -0.0259
  687loPI   C2B10322   7.138  16.068   7.296 -0.1862  0.1191 -0.2715
  687loPI   C3B10323   7.064  16.084   7.816  0.2319  0.1000  0.5010
  687loPI   C4B10324   7.026  16.127   8.219  0.1051  0.3127  0.1122
  688loPI    C110325  14.746  17.513   5.492  0.0077 -0.1622 -0.1262
  688loPI    C210326  14.549  17.659   5.808  0.3766  0.2047 -0.0573
  688loPI    C310327  14.383  17.674   5.444  0.1434  0.2059  0.0476
  688loPI   PO410328  14.860  17.328   5.622 -0.1790 -0.1814  0.1862
  688loPI   GL110329  14.769  17.261   6.038  0.0624 -0.2301 -0.0862
  688loPI   GL210330  15.120  17.372   6.097  0.2055 -0.1656  0.1439
  688loPI   C1A10331  14.684  17.418   6.435 -0.0579 -0.0534 -0.0492
  688loPI   C2A10332  14.668  17.358   6.863 -0.0425  0.0170  0.3030
  688loPI   C3A10333  14.618  17.418   7.326 -0.1846  0.1851 -0.0355
  688loPI   C4A10334  14.630  17.480   7.772 -0.0692  0.3754 -0.0217
  688loPI   C5A10335  14.599  17.386   8.256 -0.0639  0.0084  0.0145
  688loPI   C6A10336  14.943  17.414   8.576 -0.0940 -0.0838  0.3193
  688loPI   C1B10337  15.138  17.494   6.596 -0.3460  0.0862  0.0731
  688loPI   C2B10338  15.132  17.493   7.030  0.3840 -0.1516  0.2398
  688loPI   C3B10339  15.157  17.533   7.449  0.1110  0.4080  0.0945
  688loPI   C4B10340  15.134  17.628   7.805  0.1380  0.1100  0.2673
  689loPI    C110341  17.454  11.556   5.707 -0.0229  0.1782  0.0619
  689loPI    C210342  17.521  11.162   5.685 -0.2958  0.1310  0.0407
  689loPI    C310343  17.184  11.316   5.534 -0.2577  0.3543  0.1790
  689loPI   PO410344  17.581  11.587   6.009  0.4093 -0.2025  0.4473
  689loPI   GL110345  17.840  11.349   6.365 -0.0314 -0.2820  0.2786
  689loPI   GL210346  18.112  11.322   6.368 -0.0247  0.2260 -0.2283
  689loPI   C1A10347  17.708  11.425   6.739 -0.1831  0.1126 -0.1082
  689loPI   C2A10348  17.806  11.380   7.175 -0.0298 -0.1309  0.0692
  689loPI   C3A10349  17.800  11.324   7.553 -0.1729  0.0069  0.1157
  689loPI   C4A10350  17.578  11.600   7.865  0.2676 -0.4474 -0.2502
  689loPI   C5A10351  17.406  11.575   8.222 -0.0263  0.0175  0.0160
  689loPI   C6A10352  16.990  11.686   8.309 -0.2026  0.0712 -0.2244
  689loPI   C1B10353  18.195  11.426   6.798  0.0803  0.1492  0.0746
  689loPI   C2B10354  18.332  11.404   7.170 -0.3715 -0.5109  0.1450
  689loPI   C3B10355  18.327  11.299   7.553 -0.0640 -0.1853  0.4179
  689loPI   C4B10356  18.064  11.168   7.941 -0.2131 -0.1771 -0.0463
  690loPI    C110357  11.765   9.408   5.972  0.0333  0.2669  0.2450
  690loPI    C210358  12.057   9.505   5.716  0.0916  0.0110  0.2120
  690loPI    C310359  11.688   9.433   5.580  0.0775  0.0641  0.2222
  690loPI   PO410360  11.859   9.335   6.164 -0.2417  0.0951  0.1034
  690loPI   GL110361  11.767   9.173   6.529 -0.2558  0.0600  0.4547
  690loPI   GL210362  11.490   9.289   6.711  0.0329  0.1535  0.2320
  690loPI   C1A10363  11.957   8.842   6.876  0.3634 -0.0301  0.3015
  690loPI   C2A10364  11.894   8.917   7.289 -0.0259  0.2228 -0.6154
  690loPI   C3A10365  12.126   8.937   7.617 -0.0263  0.4704 -0.0241
  690loPI   C4A10366  12.121   8.839   8.032  0.2165 -0.2072 -0.1357
  690loPI   C5A10367  12.288   8.988   8.518  0.1182  0.1934 -0.2000
  690loPI   C6A10368  11.993   9.378   8.518  0.2129  0.2389  0.0996
  690loPI   C1B10369  11.568   9.305   7.200 -0.1866  0.0338  0.0848
  690loPI   C2B10370  11.710   9.295   7.679  0.3798  0.4103 -0.1091
  690loPI   C3B10371  11.624   9.294   8.145 -0.3870  0.0637 -0.0246
  690loPI   C4B10372  11.497   9.242   8.623 -0.1304  0.2284  0.1825
  691loPI    C110373   4.097   2.249   5.534  0.1806 -0.1410  0.0683
  691loPI    C210374   4.089   2.641   5.457 -0.0516 -0.1534  0.0233
  691loPI    C310375   4.262   2.390   5.198  0.0386 -0.0886  0.0201
  691loPI   PO410376   4.142   2.180   5.749 -0.1081  0.2003 -0.0182
  691loPI   GL110377   4.076   2.233   6.174  0.2814 -0.2477 -0.3144
  691loPI   GL210378   4.346   2.030   6.367 -0.0119  0.1201  0.1247
  691loPI   C1A10379   3.985   2.372   6.662 -0.3598  0.2625  0.1301
  691loPI   C2A10380   3.995   2.370   7.060  0.0235 -0.0382  0.0140
  691loPI   C3A10381   3.895   2.354   7.404  0.0693 -0.0665 -0.1262
  691loPI   C4A10382   4.018   2.371   7.810 -0.0591 -0.2047  0.2007
  691loPI   C5A10383   3.922   2.247   8.209 -0.0811  0.3071  0.0852
  691loPI   C6A10384   3.670   2.156   8.531  0.2112  0.1542 -0.2265
  691loPI   C1B10385   4.302   1.981   6.798 -0.0556 -0.0720 -0.1371
  691loPI   C2B10386   4.314   2.025   7.391  0.2683 -0.3222 -0.2897
  691loPI   C3B10387   4.404   1.969   7.882 -0.0540  0.3073  0.0518
  691loPI   C4B10388   4.346   1.841   8.367  0.0851 -0.0147  0.2695
  692loPI    C110389  14.585   2.280   5.375  0.0667 -0.2986  0.0871
  692loPI    C210390  14.601   2.613   5.154  0.1709 -0.0887  0.4049
  692loPI    C310391  14.587   2.255   4.976  0.0824  0.0826  0.0603
  692loPI   PO410392  14.654   2.416   5.642  0.0393  0.1692  0.2046
  692loPI   GL110393  14.741   2.636   6.019  0.0379 -0.2649 -0.1325
  692loPI   GL210394  14.619   2.459   6.131 -0.2632  0.1563 -0.1218
  692loPI   C1A10395  15.100   2.681   6.366 -0.2569 -0.0617 -0.0117
  692loPI   C2A10396  15.134   2.677   6.750 -0.2782  0.1998 -0.2072
  692loPI   C3A10397  15.086   2.690   7.253 -0.2080  0.1863  0.0059
  692loPI   C4A10398  14.990   2.717   7.679 -0.0484 -0.1497  0.0898
  692loPI   C5A10399  14.904   2.490   7.949  0.1603 -0.1557  0.1339
  692loPI   C6A10400  14.691   2.522   8.363  0.0532 -0.0302  0.2649
  692loPI   C1B10401  14.599   2.549   6.533 -0.0110  0.3234  0.2492
  692loPI   C2B10402  14.658   2.623   6.940 -0.2741 -0.2638 -0.3597
  692loPI   C3B10403  14.655   2.540   7.394  0.1475 -0.3009 -0.1957
  692loPI   C4B10404  14.468   2.473   7.737 -0.0862 -0.3623 -0.2134
  693loPI    C110405  13.500  16.941   5.853  0.1955 -0.0859 -0.1862
  693loPI    C210406  13.848  16.920   6.049  0.2209 -0.0500 -0.2272
  693loPI    C310407  13.836  17.070   5.679  0.1026  0.3078 -0.0822
  693loPI   PO410408  13.342  16.989   5.983  0.1117 -0.0254 -0.0265
  693loPI   GL110409  13.440  16.736   6.312  0.2682  0.1218 -0.1777
  693loPI   GL210410  13.175  16.992   6.534  0.1483  0.0452  0.1429
  693loPI   C1A10411  13.548  16.655   6.788 -0.2473  0.0114  0.0762
  693loPI   C2A10412  13.448  16.564   7.277 -0.1969  0.1808  0.0242
  693loPI   C3A10413  13.487  16.639   7.707  0.0060 -0.0883 -0.0490
  693loPI   C4A10414  13.510  16.747   8.150 -0.1743 -0.0410 -0.2053
  693loPI   C5A10415  13.410  16.907   8.563 -0.1482 -0.3534  0.2306
  693loPI   C6A10416  13.215  17.219   8.969 -0.0681 -0.0368 -0.0441
  693loPI   C1B10417  13.102  16.952   6.909  0.1599 -0.1934 -0.0840
  693loPI   C2B10418  13.133  16.980   7.304  0.1821 -0.1599  0.0031
  693loPI   C3B10419  13.057  17.076   7.681  0.0031 -0.5148  0.0339
  693loPI   C4B10420  13.123  17.040   8.076 -0.1679 -0.2516  0.1318
  694loPI    C110421  12.153   5.028   5.986 -0.1073  0.0087  0.0903
  694loPI    C210422  12.167   4.944   5.595 -0.0687  0.1803  0.0540
  694loPI    C310423  12.030   5.299   5.719 -0.1398  0.1030  0.2002
  694loPI   PO410424  12.450   5.054   6.165 -0.1313 -0.1080  0.2819
  694loPI   GL110425  12.653   5.431   6.448 -0.3189 -0.2551  0.0992
  694loPI   GL210426  12.413   5.438   6.514  0.2263 -0.2331  0.1028
  694loPI   C1A10427  12.999   5.609   6.748  0.0332  0.1080  0.0095
  694loPI   C2A10428  13.015   5.562   7.112 -0.1390  0.3132  0.4993
  694loPI   C3A10429  13.029   5.511   7.500 -0.1489 -0.1996  0.0144
  694loPI   C4A10430  13.152   5.487   8.014 -0.0848  0.1373  0.0083
  694loPI   C5A10431  13.119   5.284   8.372 -0.1619  0.3126  0.0940
  694loPI   C6A10432  13.062   5.349   8.781  0.1065  0.3183 -0.2793
  694loPI   C1B10433  12.362   5.454   6.996  0.2132 -0.1059 -0.1539
  694loPI   C2B10434  12.563   5.387   7.434  0.1544 -0.0419 -0.1106
  694loPI   C3B10435  12.537   5.383   7.907  0.0012 -0.0401  0.2291
  694loPI   C4B10436  12.538   5.150   8.313 -0.2597 -0.0665  0.2066
  695loPI    C110437  15.478  12.949   5.680  0.0620 -0.2604 -0.1048
  695loPI    C210438  15.793  13.037   5.451  0.0592  0.0768  0.0163
  695loPI    C310439  15.427  13.149   5.337  0.0176 -0.0539  0.0206
  695loPI   PO410440  15.519  13.031   5.889  0.1334 -0.0006  0.0159
  695loPI   GL110441  15.649  13.209   6.277 -0.0625 -0.0206 -0.1977
  695loPI   GL210442  15.941  13.324   6.293  0.3475  0.2180  0.0206
  695loPI   C1A10443  15.651  13.005   6.713 -0.1079 -0.2368 -0.3037
  695loPI   C2A10444  15.619  12.980   7.102  0.0580 -0.2199 -0.1422
  695loPI   C3A10445  15.628  13.018   7.488 -0.0017  0.2074 -0.0518
  695loPI   C4A10446  15.672  13.039   7.962 -0.0966  0.1793  0.2927
  695loPI   C5A10447  15.534  12.921   8.390  0.1851  0.0351  0.0933
  695loPI   C6A10448  15.594  13.015   8.808 -0.1326  0.2280  0.1419
  695loPI   C1B10449  15.820  13.442   6.799  0.1288  0.1945  0.1124
  695loPI   C2B10450  15.763  13.461   7.273  0.0704  0.3537  0.0850
  695loPI   C3B10451  15.844  13.587   7.676 -0.0635  0.0851 -0.0575
  695loPI   C4B10452  15.899  13.665   8.041  0.0725  0.0550  0.2105
  696loPI    C110453  16.153   6.612   5.730  0.0954  0.0764  0.0292
  696loPI    C210454  16.519   6.520   5.598  0.0933 -0.2359  0.2296
  696loPI    C310455  16.208   6.508   5.348  0.2194  0.0489  0.0540
  696loPI   PO410456  16.147   6.751   5.933  0.3095 -0.1500 -0.1220
  696loPI   GL110457  16.379   6.696   6.277  0.1237 -0.1638  0.0300
  696loPI   GL210458  16.018   6.685   6.421 -0.1352 -0.1709 -0.1336
  696loPI   C1A10459  16.502   6.385   6.642 -0.0762 -0.2514 -0.0200
  696loPI   C2A10460  16.595   6.283   7.158  0.4479  0.0825  0.0775
  696loPI   C3A10461  16.642   6.241   7.618  0.1561  0.2674 -0.0477
  696loPI   C4A10462  16.659   6.250   8.083 -0.2252  0.2477 -0.2615
  696loPI   C5A10463  16.342   6.023   8.322  0.0530  0.2783 -0.2016
  696loPI   C6A10464  15.963   6.087   8.460  0.0879  0.1463  0.1833
  696loPI   C1B10465  16.175   6.711   6.746  0.3296  0.1585 -0.3338
  696loPI   C2B10466  16.291   6.676   7.115 -0.1848 -0.3112  0.2283
  696loPI   C3B10467  16.307   6.651   7.528  0.1261 -0.3066  0.0918
  696loPI   C4B10468  16.455   6.727   7.979 -0.1726 -0.3310 -0.3929
  697loPI    C110469   4.799   7.325   5.923  0.2299 -0.0737  0.1488
  697loPI    C210470   4.801   6.996   5.696  0.0178  0.0596 -0.0511
  697loPI    C310471   5.137   7.208   5.743  0.1384 -0.1444  0.0214
  697loPI   PO410472   4.675   7.267   6.217 -0.3239 -0.3658 -0.0398
  697loPI   GL110473   4.547   7.053   6.590 -0.2015 -0.2743  0.0522
  697loPI   GL210474   4.679   6.767   6.610 -0.3560 -0.0457 -0.1531
  697loPI   C1A10475   4.424   7.043   6.981 -0.1953 -0.1946  0.4132
  697loPI   C2A10476   4.453   7.072   7.349  0.2558 -0.2475 -0.2311
  697loPI   C3A10477   4.419   7.037   7.806  0.0996  0.0137 -0.3859
  697loPI   C4A10478   4.412   7.153   8.176  0.2211 -0.1643 -0.1211
  697loPI   C5A10479   4.494   7.170   8.642  0.0373  0.2112  0.1064
  697loPI   C6A10480   4.348   6.936   9.009  0.0496 -0.1260 -0.1462
  697loPI   C1B10481   4.811   6.638   7.010  0.2881 -0.2891 -0.0454
  697loPI   C2B10482   4.853   6.618   7.414 -0.0114 -0.1717 -0.1990
  697loPI   C3B10483   4.789   6.722   7.831  0.0118  0.1260 -0.1399
  697loPI   C4B10484   4.863   6.828   8.271  0.3393  0.1230  0.0894
  698loPI    C110485   8.704   1.533   5.600 -0.1127 -0.0364 -0.0962
  698loPI    C210486   8.882   1.303   5.326 -0.1063  0.0559 -0.1702
  698loPI    C310487   9.028   1.666   5.407 -0.1304  0.0438 -0.0710
  698loPI   PO410488   8.709   1.500   5.941 -0.2457 -0.0718  0.0516
  698loPI   GL110489   8.868   1.834   6.273 -0.1872  0.0612 -0.0536
  698loPI   GL210490   8.686   2.183   6.343 -0.2526  0.3183  0.4541
  698loPI   C1A10491   9.085   1.597   6.565  0.1311 -0.1647  0.0777
  698loPI   C2A10492   9.213   1.615   6.955  0.1115  0.2200  0.1302
  698loPI   C3A10493   9.143   1.643   7.423  0.1388 -0.2258 -0.0840
  698loPI   C4A10494   8.972   1.805   7.849 -0.1589  0.0823 -0.0340
  698loPI   C5A10495   8.866   1.711   8.197 -0.0621  0.2194  0.0729
  698loPI   C6A10496   8.519   1.686   8.389 -0.1445  0.1430 -0.0601
  698loPI   C1B10497   8.745   1.937   6.754 -0.3931 -0.2096 -0.1299
  698loPI   C2B10498   8.786   2.019   7.192  0.6009  0.1919 -0.3293
  698loPI   C3B10499   8.672   2.120   7.624 -0.3471 -0.4951  0.0641
  698loPI   C4B10500   8.549   2.053   8.032 -0.0422  0.0242  0.1870
  699loPI    C110501   1.652   5.590   5.650  0.1636 -0.0739 -0.2821
  699loPI    C210502   1.920   5.868   5.545  0.3490 -0.1015  0.0989
  699loPI    C310503   1.902   5.522   5.345  0.3249  0.0582 -0.1813
  699loPI   PO410504   1.742   5.596   5.900  0.2073  0.0306  0.0789
  699loPI   GL110505   1.891   5.548   6.314 -0.3415 -0.1308 -0.0765
  699loPI   GL210506   1.607   5.481   6.403  0.0101  0.0003 -0.0691
  699loPI   C1A10507   2.186   5.580   6.688  0.0957 -0.0857 -0.0490
  699loPI   C2A10508   2.215   5.524   7.096  0.1776  0.0819  0.0718
  699loPI   C3A10509   2.049   5.451   7.505  0.1476 -0.0429 -0.4070
  699loPI   C4A10510   2.173   5.463   7.924 -0.1712 -0.1256 -0.0542
  699loPI   C5A10511   2.395   5.415   8.250  0.2922 -0.0968  0.1927
  699loPI   C6A10512   2.308   5.357   8.635  0.0785 -0.0988 -0.1324
  699loPI   C1B10513   1.712   5.457   6.865 -0.2986 -0.0978  0.0698
  699loPI   C2B10514   1.625   5.422   7.309  0.3603  0.2573 -0.1148
  699loPI   C3B10515   1.562   5.441   7.831  0.3855  0.0606  0.0027
  699loPI   C4B10516   1.399   5.384   8.192  0.2601  0.0551  0.1360
  700loPI    C110517   9.656   5.367   5.880 -0.0721 -0.0945  0.0416
  700loPI    C210518   9.839   5.635   5.646 -0.0719 -0.0866  0.0509
  700loPI    C310519   9.730   5.280   5.497  0.0634 -0.1401  0.0778
  700loPI   PO410520   9.801   5.397   6.042  0.1753  0.0124 -0.0572
  700loPI   GL110521   9.926   5.682   6.388 -0.0922 -0.3547  0.0454
  700loPI   GL210522  10.234   5.814   6.631  0.0817 -0.2530 -0.0633
  700loPI   C1A10523   9.582   5.554   6.713 -0.0300  0.0994 -0.0582
  700loPI   C2A10524   9.667   5.647   7.141  0.2580  0.0449  0.0466
  700loPI   C3A10525   9.657   5.580   7.545  0.2079  0.1322 -0.3798
  700loPI   C4A10526   9.826   5.578   7.973  0.2056 -0.2906 -0.1438
  700loPI   C5A10527   9.814   5.617   8.353  0.3952  0.0251  0.2406
  700loPI   C6A10528   9.871   5.893   8.659 -0.0394 -0.1296  0.3052
  700loPI   C1B10529  10.245   5.663   7.087  0.2627 -0.0452  0.0336
  700loPI   C2B10530  10.224   5.648   7.600  0.3020  0.0775 -0.0624
  700loPI   C3B10531  10.280   5.744   7.990  0.4403 -0.1481 -0.2044
  700loPI   C4B10532  10.369   5.830   8.342 -0.0281 -0.0175 -0.5969
  701loPI    C110533  13.804  12.581   5.818 -0.0431  0.1080 -0.1877
  701loPI    C210534  13.530  12.290   5.821 -0.1151  0.1752 -0.1987
  701loPI    C310535  13.705  12.396   5.478  0.2419 -0.1622 -0.1281
  701loPI   PO410536  13.687  12.790   5.933  0.1006  0.0607 -0.1154
  701loPI   GL110537  13.685  13.023   6.279 -0.1486  0.0496  0.3167
  701loPI   GL210538  13.540  13.330   6.311 -0.1174 -0.4222 -0.0273
  701loPI   C1A10539  13.784  13.000   6.762 -0.0667  0.0556 -0.3767
  701loPI   C2A10540  13.792  13.059   7.255  0.0365 -0.1271 -0.0057
  701loPI   C3A10541  13.882  13.131   7.682 -0.1366 -0.1580 -0.2155
  701loPI   C4A10542  13.839  13.117   8.234 -0.0181  0.1635  0.0769
  701loPI   C5A10543  13.615  13.375   8.513 -0.1502  0.1995 -0.3510
  701loPI   C6A10544  13.238  13.583   8.543 -0.1228  0.0170  0.0039
  701loPI   C1B10545  13.416  13.399   6.677  0.0239  0.1983 -0.0100
  701loPI   C2B10546  13.449  13.376   7.047 -0.5192  0.0234 -0.0325
  701loPI   C3B10547  13.504  13.466   7.544 -0.0849  0.1185  0.2835
  701loPI   C4B10548  13.542  13.425   8.043 -0.1633 -0.0425  0.2218
  702loPI    C110549  11.017   0.248   5.951  0.3111 -0.1474 -0.0024
  702loPI    C210550  10.853  -0.089   5.812 -0.0653 -0.0442  0.1796
  702loPI    C310551  10.625   0.234   5.874  0.3271  0.3182 -0.1998
  702loPI   PO410552  11.158   0.133   6.099 -0.1073 -0.1380  0.2216
  702loPI   GL110553  11.345   0.271   6.477 -0.1562 -0.1171 -0.2228
  702loPI   GL210554  11.412  -0.007   6.554 -0.1369  0.1112  0.0396
  702loPI   C1A10555  11.134   0.280   6.894  0.1328  0.0318 -0.2375
  702loPI   C2A10556  11.042   0.383   7.293  0.3142  0.0147 -0.0922
  702loPI   C3A10557  10.900   0.319   7.718 -0.2544 -0.0530  0.4127
  702loPI   C4A10558  10.933   0.326   8.114 -0.0431 -0.1115 -0.2461
  702loPI   C5A10559  10.797  -0.051   8.400 -0.0000  0.0221 -0.3005
  702loPI   C6A10560  10.840  -0.523   8.683 -0.1366  0.0269  0.1874
  702loPI   C1B10561  11.524  -0.031   7.043  0.0229 -0.3076  0.0055
  702loPI   C2B10562  11.437  -0.056   7.491 -0.0870 -0.2168  0.1928
  702loPI   C3B10563  11.389  -0.108   7.977  0.1655  0.1546  0.1495
  702loPI   C4B10564  11.286  -0.204   8.392 -0.0878  0.0026 -0.2770
  703loPI    C110565  17.350  12.751   5.807  0.4090  0.0514  0.1688
  703loPI    C210566  17.592  12.459   5.679 -0.1391 -0.3013 -0.1006
  703loPI    C310567  17.465  12.741   5.424  0.1370 -0.0007  0.0864
  703loPI   PO410568  17.193  12.587   6.013  0.0767  0.1805 -0.0340
  703loPI   GL110569  17.255  12.380   6.274  0.4158  0.2035 -0.0021
  703loPI   GL210570  17.065  12.233   6.387 -0.1789  0.0332  0.1628
  703loPI   C1A10571  17.204  12.567   6.712 -0.0967 -0.1169  0.1824
  703loPI   C2A10572  17.035  12.465   7.072  0.2393 -0.0307 -0.2933
  703loPI   C3A10573  16.996  12.371   7.536 -0.0355 -0.0884 -0.1165
  703loPI   C4A10574  16.918  12.227   7.964 -0.0085 -0.3028 -0.3258
  703loPI   C5A10575  16.666  12.025   8.266  0.2192 -0.1361  0.0978
  703loPI   C6A10576  16.641  11.802   8.671 -0.2232 -0.2043  0.1610
  703loPI   C1B10577  16.952  12.071   6.762  0.1834  0.1341 -0.1240
  703loPI   C2B10578  17.003  11.915   7.243 -0.2565  0.2467 -0.0196
  703loPI   C3B10579  16.656  11.872   7.612  0.3650 -0.2783 -0.0287
  703loPI   C4B10580  16.752  11.538   7.937  0.5074  0.0698  0.2729
  704loPI    C110581   9.317   9.902   5.747 -0.1972 -0.1653  0.2574
  704loPI    C210582   9.023  10.154   5.845  0.0567  0.1498  0.2273
  704loPI    C310583   9.180  10.164   5.478  0.2435  0.1248  0.3056
  704loPI   PO410584   9.484   9.882   5.951  0.0052 -0.2118 -0.1894
  704loPI   GL110585   9.536  10.023   6.291 -0.2006  0.0239  0.0460
  704loPI   GL210586   9.293  10.118   6.339  0.0302 -0.0519  0.1011
  704loPI   C1A10587   9.615  10.222   6.707 -0.0419  0.1397  0.0252
  704loPI   C2A10588   9.534  10.232   7.069 -0.0733  0.1573 -0.1048
  704loPI   C3A10589   9.665  10.215   7.532 -0.0204 -0.0803 -0.0832
  704loPI   C4A10590   9.560  10.112   7.925 -0.0185  0.1211  0.2491
  704loPI   C5A10591   9.612  10.157   8.376 -0.3746  0.0382  0.1271
  704loPI   C6A10592   9.377   9.920   8.860  0.0663 -0.2110  0.1224
  704loPI   C1B10593   9.098  10.138   6.723 -0.0894  0.1355  0.0227
  704loPI   C2B10594   8.974  10.111   7.128 -0.0485  0.1570 -0.0152
  704loPI   C3B10595   9.141  10.053   7.532 -0.1534  0.0638 -0.0238
  704loPI   C4B10596   9.111  10.034   7.973 -0.0369 -0.0238 -0.3012
  705loPI    C110597   1.047   4.501   5.303 -0.1626  0.0845  0.2725
  705loPI    C210598   1.102   4.891   5.372  0.2604  0.0591  0.1108
  705loPI    C310599   0.971   4.767   5.015 -0.2924  0.0754  0.2978
  705loPI   PO410600   0.902   4.455   5.640 -0.0232 -0.1889 -0.0472
  705loPI   GL110601   1.077   4.402   6.008  0.0808  0.1198  0.0979
  705loPI   GL210602   1.333   4.200   6.144 -0.0401  0.1260  0.0085
  705loPI   C1A10603   0.904   4.461   6.411  0.0634  0.0065 -0.0772
  705loPI   C2A10604   0.903   4.392   6.859  0.1698  0.0308 -0.0345
  705loPI   C3A10605   0.728   4.326   7.289 -0.0705 -0.0068 -0.0256
  705loPI   C4A10606   0.759   4.361   7.706 -0.2964  0.2660 -0.0950
  705loPI   C5A10607   0.477   4.133   7.958 -0.0445 -0.1937  0.1784
  705loPI   C6A10608   0.091   4.151   8.012  0.1037  0.0540  0.1456
  705loPI   C1B10609   1.273   4.087   6.596  0.0316  0.0731 -0.0666
  705loPI   C2B10610   1.198   3.974   7.035  0.1439 -0.1999 -0.0185
  705loPI   C3B10611   1.094   4.079   7.481  0.0839 -0.0829  0.1658
  705loPI   C4B10612   1.039   3.986   7.938 -0.0597 -0.0726 -0.0422
  706loPI    C110613  10.641   6.857   5.898  0.1462  0.2694  0.1102
  706loPI    C210614  10.950   6.822   5.645  0.0028 -0.1816 -0.0107
  706loPI    C310615  10.614   6.614   5.581 -0.1913  0.0197  0.3246
  706loPI   PO410616  10.645   6.798   6.099  0.1774  0.0327 -0.0560
  706loPI   GL110617  10.391   6.944   6.431 -0.2249  0.3776  0.2482
  706loPI   GL210618  10.689   7.217   6.454  0.2096  0.2897 -0.0539
  706loPI   C1A10619  10.420   6.700   6.820  0.0851  0.0346 -0.0663
  706loPI   C2A10620  10.477   6.739   7.158  0.1152 -0.0164  0.0134
  706loPI   C3A10621  10.501   6.709   7.618  0.0277  0.1448  0.0590
  706loPI   C4A10622  10.515   6.764   8.042  0.4258 -0.0475 -0.0856
  706loPI   C5A10623  10.586   7.100   8.414  0.0071 -0.3481  0.2119
  706loPI   C6A10624  10.496   6.983   8.919  0.0736  0.0340  0.0930
  706loPI   C1B10625  10.658   7.139   6.843  0.1093  0.1896  0.1501
  706loPI   C2B10626  10.637   7.227   7.257 -0.0811 -0.0596  0.0597
  706loPI   C3B10627  10.605   7.214   7.612  0.2309 -0.1616 -0.0959
  706loPI   C4B10628  10.763   7.187   7.953 -0.2228 -0.2384  0.0472
  707loPI    C110629   3.644  12.885   5.646 -0.1337 -0.2633 -0.1899
  707loPI    C210630   3.963  12.983   5.425 -0.1929  0.0451 -0.1430
  707loPI    C310631   3.624  12.867   5.247 -0.0928 -0.1721 -0.1961
  707loPI   PO410632   3.733  12.692   5.864 -0.1110  0.0761  0.2293
  707loPI   GL110633   3.680  12.541   6.229  0.0625  0.0168 -0.0883
  707loPI   GL210634   3.660  12.919   6.310  0.1374 -0.2434  0.2879
  707loPI   C1A10635   3.452  12.389   6.557  0.0735 -0.0110  0.4246
  707loPI   C2A10636   3.449  12.352   6.948  0.0547 -0.0889 -0.0694
  707loPI   C3A10637   3.591  12.493   7.363 -0.3638  0.0237  0.0511
  707loPI   C4A10638   3.598  12.434   7.788 -0.0895  0.0525 -0.0389
  707loPI   C5A10639   3.503  12.536   8.197  0.0623  0.0043 -0.1925
  707loPI   C6A10640   3.317  12.513   8.599  0.0924 -0.0593  0.4554
  707loPI   C1B10641   3.674  12.812   6.721  0.2586 -0.4880  0.3193
  707loPI   C2B10642   3.708  13.034   7.232  0.0812  0.1878 -0.1542
  707loPI   C3B10643   3.786  12.910   7.670 -0.1138 -0.0498  0.2854
  707loPI   C4B10644   3.807  12.918   8.075  0.1203 -0.1579  0.0225
  708loPI    C110645   3.942   1.310   5.816  0.2375  0.0546  0.1945
  708loPI    C210646   3.960   1.709   5.798  0.1313  0.0508 -0.0274
  708loPI    C310647   3.915   1.496   5.463  0.1751 -0.1476  0.0916
  708loPI   PO410648   3.805   1.303   6.032 -0.2593 -0.0135  0.1884
  708loPI   GL110649   3.903   1.614   6.336  0.0682  0.0279 -0.0268
  708loPI   GL210650   4.149   1.531   6.599 -0.0549 -0.0674 -0.1353
  708loPI   C1A10651   3.832   1.879   6.631 -0.2687 -0.1395 -0.0286
  708loPI   C2A10652   3.732   1.909   7.092  0.1741  0.1296 -0.0470
  708loPI   C3A10653   3.762   1.892   7.460 -0.0101  0.0857 -0.0641
  708loPI   C4A10654   3.848   1.809   7.934  0.1350  0.3215  0.2227
  708loPI   C5A10655   3.749   1.700   8.323 -0.3235 -0.2462  0.2518
  708loPI   C6A10656   3.836   1.573   8.741  0.1258  0.3371 -0.2263
  708loPI   C1B10657   4.136   1.568   7.014  0.3873  0.2016  0.2324
  708loPI   C2B10658   4.212   1.570   7.434 -0.1210  0.3138  0.1289
  708loPI   C3B10659   4.317   1.482   7.788 -0.0041  0.0667  0.3670
  708loPI   C4B10660   4.186   1.429   8.137  0.1088 -0.1373 -0.0459
  709loPI    C110661  17.130   7.281   5.757 -0.0418  0.0898  0.0829
  709loPI    C210662  17.059   7.657   5.873 -0.2861  0.1472 -0.2367
  709loPI    C310663  17.368   7.577   5.631 -0.2776  0.1524 -0.2275
  709loPI   PO410664  17.067   7.169   5.960 -0.3245 -0.0219  0.1088
  709loPI   GL110665  16.934   6.856   6.279 -0.0268 -0.1510  0.0059
  709loPI   GL210666  17.133   7.041   6.465 -0.3792  0.1119 -0.1429
  709loPI   C1A10667  16.722   6.838   6.636  0.1245 -0.0331 -0.1986
  709loPI   C2A10668  16.748   6.873   7.147  0.1405  0.3266 -0.0121
  709loPI   C3A10669  16.781   6.784   7.567 -0.1169  0.1430 -0.0618
  709loPI   C4A10670  16.992   6.555   7.859 -0.1862  0.2116  0.2399
  709loPI   C5A10671  17.149   6.464   8.206  0.0970 -0.2760 -0.3895
  709loPI   C6A10672  17.283   6.139   8.459 -0.3430  0.0694  0.2288
  709loPI   C1B10673  17.250   6.882   6.931  0.1048 -0.0546  0.2719
  709loPI   C2B10674  17.240   6.915   7.458  0.1269 -0.1463  0.4107
  709loPI   C3B10675  17.174   6.966   7.895  0.0027  0.0954 -0.0074
  709loPI   C4B10676  16.853   7.048   8.279  0.0391  0.0025 -0.0754
  710loPI    C110677  16.428  14.657   5.393  0.3935 -0.1699  0.0805
  710loPI    C210678  16.405  14.362   5.124 -0.0914 -0.0414 -0.0285
  710loPI    C310679  16.521  14.728   5.010 -0.1021 -0.0360 -0.0223
  710loPI   PO410680  16.450  14.485   5.643  0.1861 -0.1139 -0.3638
  710loPI   GL110681  16.698  14.432   6.045 -0.2211 -0.3134  0.3371
  710loPI   GL210682  16.542  14.713   6.104 -0.0299  0.0245  0.0430
  710loPI   C1A10683  16.486  14.166   6.363 -0.0605 -0.1536  0.0193
  710loPI   C2A10684  16.443  14.141   6.793 -0.1604 -0.0782  0.0785
  710loPI   C3A10685  16.383  14.163   7.215 -0.0022  0.1059 -0.2196
  710loPI   C4A10686  16.488  14.125   7.614 -0.0535  0.0918 -0.1343
  710loPI   C5A10687  16.442  14.052   8.059  0.3612 -0.1848 -0.3218
  710loPI   C6A10688  16.521  14.477   8.300  0.2869  0.1482  0.1160
  710loPI   C1B10689  16.640  14.656   6.610  0.0166  0.1176  0.4243
  710loPI   C2B10690  16.574  14.640   6.926 -0.0891  0.0639 -0.0559
  710loPI   C3B10691  16.606  14.652   7.379  0.2979 -0.2052  0.0385
  710loPI   C4B10692  16.686  14.651   7.822 -0.0271  0.1270  0.3247
  711loPI    C110693   0.553   1.612   5.646 -0.1009 -0.0246  0.1231
  711loPI    C210694   0.389   1.972   5.588  0.0094  0.0250  0.1171
  711loPI    C310695   0.212   1.645   5.439 -0.0395  0.0866  0.0390
  711loPI   PO410696   0.674   1.680   5.885  0.0111  0.0575  0.0998
  711loPI   GL110697   0.722   1.714   6.210 -0.1392 -0.1652  0.0670
  711loPI   GL210698   1.011   1.657   6.287  0.2558 -0.2667  0.1236
  711loPI   C1A10699   0.523   1.915   6.505 -0.0506  0.1558 -0.0357
  711loPI   C2A10700   0.599   2.002   7.008  0.0829 -0.1350  0.1681
  711loPI   C3A10701   0.562   1.948   7.521 -0.0363  0.0676 -0.0126
  711loPI   C4A10702   0.365   2.063   7.937 -0.0785 -0.4032  0.1387
  711loPI   C5A10703   0.111   2.489   8.082 -0.1273  0.1338 -0.2391
  711loPI   C6A10704   0.087   2.875   8.350 -0.0517 -0.0968 -0.1255
  711loPI   C1B10705   0.889   1.720   6.808 -0.1173  0.0759  0.0149
  711loPI   C2B10706   0.771   1.579   7.241  0.0226 -0.1311  0.1940
  711loPI   C3B10707   0.913   1.513   7.608 -0.0470 -0.3213 -0.3899
  711loPI   C4B10708   1.144   1.640   7.942 -0.0655 -0.0350 -0.1797
  712loPI    C110709  16.652   5.612   5.729  0.0283 -0.1895 -0.0316
  712loPI    C210710  16.315   5.670   5.522  0.1262  0.3471 -0.0561
  712loPI    C310711  16.664   5.630   5.330  0.1285  0.1672 -0.0163
  712loPI   PO410712  16.654   5.735   5.884  0.2087  0.1073  0.1902
  712loPI   GL110713  16.607   5.642   6.331 -0.1821  0.2724  0.0958
  712loPI   GL210714  16.475   5.904   6.353  0.0579 -0.2210 -0.0368
  712loPI   C1A10715  16.812   5.478   6.719 -0.1177 -0.0751 -0.1804
  712loPI   C2A10716  16.962   5.376   7.147  0.1530  0.0049 -0.1610
  712loPI   C3A10717  16.899   5.385   7.613 -0.0626 -0.3257  0.0015
  712loPI   C4A10718  16.752   5.394   7.980  0.3299 -0.0474 -0.2622
  712loPI   C5A10719  16.760   5.328   8.342 -0.1392 -0.1785 -0.1904
  712loPI   C6A10720  16.875   5.074   8.632 -0.2440 -0.1740 -0.1667
  712loPI   C1B10721  16.388   5.870   6.782  0.1298 -0.0350 -0.0330
  712loPI   C2B10722  16.503   5.709   7.147 -0.0531 -0.2031 -0.3003
  712loPI   C3B10723  16.531   5.718   7.547 -0.1006  0.2633 -0.0109
  712loPI   C4B10724  16.453   5.794   7.906 -0.0621 -0.1803  0.0549
  713loPI    C110725  12.423   0.650   6.010  0.0370  0.1434 -0.0058
  713loPI    C210726  12.208   0.747   5.687 -0.1141 -0.0114  0.0464
  713loPI    C310727  12.585   0.619   5.646 -0.1090  0.0375 -0.0627
  713loPI   PO410728  12.326   0.510   6.137 -0.1198 -0.0758  0.1364
  713loPI   GL110729  12.485   0.222   6.548  0.0837  0.0186 -0.1896
  713loPI   GL210730  12.256  -0.133   6.576  0.1592 -0.0567  0.0318
  713loPI   C1A10731  12.581   0.118   6.907 -0.0765 -0.1982 -0.3062
  713loPI   C2A10732  12.518   0.161   7.289  0.0698  0.2439  0.3975
  713loPI   C3A10733  12.441   0.178   7.718  0.0061  0.4159  0.1058
  713loPI   C4A10734  12.375   0.275   8.220 -0.1779  0.0266  0.1755
  713loPI   C5A10735  12.631   0.563   8.431  0.0084  0.1462  0.0024
  713loPI   C6A10736  12.817   0.461   8.805 -0.1267  0.0264  0.2557
  713loPI   C1B10737  12.324  -0.387   6.934 -0.0193  0.1570 -0.0225
  713loPI   C2B10738  12.277  -0.299   7.281 -0.0464  0.0340  0.0587
  713loPI   C3B10739  12.230  -0.378   7.624 -0.1758  0.0364 -0.1237
  713loPI   C4B10740  12.307  -0.187   8.110  0.2860  0.1281  0.1961
  714loPI    C110741   4.902   1.541   5.819 -0.3810 -0.2805 -0.2554
  714loPI    C210742   4.791   1.631   5.445  0.0577  0.0972 -0.3048
  714loPI    C310743   5.173   1.542   5.524 -0.0499 -0.0768  0.0408
  714loPI   PO410744   4.724   1.312   5.927 -0.3987  0.3021 -0.0682
  714loPI   GL110745   4.712   1.162   6.356 -0.2570 -0.0482  0.0628
  714loPI   GL210746   4.982   1.266   6.352  0.1380 -0.1002 -0.1265
  714loPI   C1A10747   4.498   1.180   6.713  0.2463 -0.1088  0.3698
  714loPI   C2A10748   4.618   1.166   7.131 -0.2020  0.1532  0.0913
  714loPI   C3A10749   4.535   1.093   7.532 -0.3593 -0.1457 -0.3184
  714loPI   C4A10750   4.619   1.094   7.952  0.1382  0.1213 -0.1291
  714loPI   C5A10751   4.703   1.184   8.291 -0.0974  0.0553 -0.0948
  714loPI   C6A10752   4.450   1.284   8.641  0.0696  0.0156 -0.3234
  714loPI   C1B10753   4.969   1.292   6.824 -0.1963  0.0030  0.0993
  714loPI   C2B10754   5.074   1.280   7.300 -0.1408 -0.1269  0.1489
  714loPI   C3B10755   5.016   1.269   7.625  0.1983 -0.0614  0.0181
  714loPI   C4B10756   5.094   1.142   7.996  0.1521  0.2157  0.0666
  715loPI    C110757  14.615   3.973   5.814 -0.2784 -0.2640 -0.2324
  715loPI    C210758  14.884   4.065   5.532  0.0035  0.1111  0.1455
  715loPI    C310759  14.494   4.121   5.462  0.0570  0.0522 -0.2207
  715loPI   PO410760  14.824   4.028   6.062  0.1234  0.3521 -0.1933
  715loPI   GL110761  14.942   4.003   6.478  0.2665 -0.0551 -0.2737
  715loPI   GL210762  14.890   3.740   6.468  0.3240  0.0307  0.0084
  715loPI   C1A10763  14.927   4.052   6.949  0.0571 -0.2663 -0.0862
  715loPI   C2A10764  14.989   4.052   7.429  0.2860  0.0559 -0.1547
  715loPI   C3A10765  14.921   3.988   7.933  0.2501 -0.1655  0.1136
  715loPI   C4A10766  14.923   3.992   8.321  0.1736  0.4545  0.0153
  715loPI   C5A10767  14.824   3.666   8.594 -0.1382  0.0085 -0.2745
  715loPI   C6A10768  15.147   3.395   8.882 -0.0046 -0.1227  0.1316
  715loPI   C1B10769  14.841   3.581   6.801  0.0507 -0.0240 -0.1543
  715loPI   C2B10770  14.842   3.533   7.182 -0.0723 -0.0523  0.0560
  715loPI   C3B10771  14.788   3.636   7.633 -0.1269  0.0661 -0.1289
  715loPI   C4B10772  14.756   3.528   8.126 -0.0045  0.4216  0.0168
  716loPI    C110773  15.860   4.024   5.200 -0.1578 -0.0574  0.2645
  716loPI    C210774  15.752   4.398   5.292  0.1037  0.0220  0.2576
  716loPI    C310775  15.537   4.186   5.029 -0.0085  0.1903  0.2122
  716loPI   PO410776  16.035   3.890   5.447  0.0955 -0.0108 -0.0959
  716loPI   GL110777  16.194   3.768   5.902  0.0170  0.0581  0.5546
  716loPI   GL210778  16.216   4.135   6.014  0.3500 -0.1104 -0.0480
  716loPI   C1A10779  15.820   3.751   6.226 -0.2072 -0.3509 -0.1492
  716loPI   C2A10780  15.718   3.823   6.696  0.6097 -0.0508  0.2021
  716loPI   C3A10781  15.900   3.746   7.156 -0.0539 -0.0370 -0.0547
  716loPI   C4A10782  15.808   3.808   7.571 -0.3446 -0.0317  0.0167
  716loPI   C5A10783  15.842   3.781   8.041 -0.3226 -0.1514 -0.5142
  716loPI   C6A10784  15.620   3.617   8.408  0.3779 -0.0525  0.1572
  716loPI   C1B10785  16.316   3.907   6.403  0.0719  0.1684  0.1412
  716loPI   C2B10786  16.322   3.831   6.862 -0.2221  0.3508  0.0158
  716loPI   C3B10787  16.369   3.855   7.321  0.2620  0.0860 -0.2695
  716loPI   C4B10788  16.287   3.884   7.845 -0.0158  0.0563  0.1161
  717loPI    C110789   4.267   6.475   5.905 -0.1535  0.0329  0.0104
  717loPI    C210790   4.479   6.615   5.596 -0.0857 -0.0134  0.0357
  717loPI    C310791   4.097   6.505   5.544 -0.1414  0.1853  0.0167
  717loPI   PO410792   4.429   6.292   5.981  0.0453  0.2030 -0.2686
  717loPI   GL110793   4.753   6.345   6.264  0.0775  0.5861 -0.0698
  717loPI   GL210794   5.016   6.336   6.253 -0.1384 -0.4019  0.0033
  717loPI   C1A10795   4.738   6.164   6.749 -0.1244  0.0627 -0.0192
  717loPI   C2A10796   4.731   6.161   7.190 -0.0139 -0.0378  0.0098
  717loPI   C3A10797   4.701   6.207   7.592  0.0137 -0.0137  0.1815
  717loPI   C4A10798   4.605   6.187   8.063  0.0462 -0.0060 -0.1849
  717loPI   C5A10799   4.704   6.286   8.554  0.0056 -0.0590 -0.1288
  717loPI   C6A10800   4.776   6.557   8.874 -0.1430 -0.0587 -0.0156
  717loPI   C1B10801   5.071   6.500   6.638  0.1683  0.2190  0.0662
  717loPI   C2B10802   5.266   6.295   7.124  0.0063  0.1552 -0.3071
  717loPI   C3B10803   5.218   6.333   7.668 -0.2897  0.2260  0.1853
  717loPI   C4B10804   5.146   6.285   8.084  0.0567 -0.0029 -0.0095
  718loPI    C110805   4.612   3.395   5.734 -0.0557 -0.1351 -0.0414
  718loPI    C210806   4.821   3.410   5.393 -0.0935  0.3410 -0.0494
  718loPI    C310807   4.425   3.353   5.383 -0.0534  0.0525 -0.0659
  718loPI   PO410808   4.812   3.421   5.949 -0.1314  0.2366 -0.0470
  718loPI   GL110809   4.696   3.446   6.304 -0.1448  0.0793 -0.0511
  718loPI   GL210810   4.906   3.324   6.491 -0.3033  0.2017 -0.1989
  718loPI   C1A10811   4.568   3.006   6.656  0.1557  0.0324 -0.3102
  718loPI   C2A10812   4.583   3.008   7.100  0.0023 -0.0099  0.0958
  718loPI   C3A10813   4.582   3.067   7.544 -0.0803 -0.1267 -0.0139
  718loPI   C4A10814   4.622   3.148   7.907 -0.0606  0.1232 -0.2328
  718loPI   C5A10815   4.681   2.964   8.178 -0.1950 -0.0046  0.2213
  718loPI   C6A10816   5.050   2.853   8.414  0.0389 -0.3423 -0.0992
  718loPI   C1B10817   4.707   3.431   6.869 -0.3271  0.0107 -0.2815
  718loPI   C2B10818   4.697   3.528   7.292  0.2616 -0.2340 -0.0469
  718loPI   C3B10819   4.770   3.573   7.690  0.3414 -0.0609  0.1486
  718loPI   C4B10820   4.767   3.560   8.084 -0.0837  0.0359  0.3697
  719loPI    C110821   6.475   9.582   5.823  0.1189  0.2514  0.0876
  719loPI    C210822   6.114   9.590   5.995  0.1491  0.1338  0.1573
  719loPI    C310823   6.183   9.346   5.685  0.1131  0.2988  0.0184
  719loPI   PO410824   6.623   9.690   6.040  0.0019  0.0805  0.0557
  719loPI   GL110825   6.846   9.552   6.400 -0.1105  0.0854  0.0591
  719loPI   GL210826   7.182   9.602   6.387  0.0939 -0.2013  0.0825
  719loPI   C1A10827   7.017   9.507   6.816 -0.0047  0.1559 -0.0589
  719loPI   C2A10828   7.071   9.704   7.187 -0.0278  0.1751 -0.2174
  719loPI   C3A10829   7.056   9.593   7.666 -0.0257  0.0986 -0.0392
  719loPI   C4A10830   7.128   9.607   8.140  0.1782 -0.1497  0.3012
  719loPI   C5A10831   7.045   9.684   8.566  0.0621 -0.4648 -0.1847
  719loPI   C6A10832   7.015   9.613   8.864 -0.0598  0.3907  0.0031
  719loPI   C1B10833   7.404   9.764   6.725 -0.0490 -0.0819  0.2410
  719loPI   C2B10834   7.572   9.820   7.099 -0.4171  0.2892  0.2176
  719loPI   C3B10835   7.509   9.715   7.470  0.0824 -0.0581 -0.1174
  719loPI   C4B10836   7.610   9.718   7.914  0.0026  0.4152 -0.1117
  720loPI    C110837   9.833  16.279   5.734  0.0311 -0.2477 -0.1196
  720loPI    C210838   9.475  16.385   5.589 -0.0582 -0.0029  0.2665
  720loPI    C310839   9.780  16.319   5.339 -0.3146 -0.0014 -0.0534
  720loPI   PO410840   9.806  16.150   5.976  0.0348  0.2786  0.5632
  720loPI   GL110841   9.818  15.942   6.263 -0.1952  0.0238  0.0303
  720loPI   GL210842   9.649  16.144   6.492  0.1713  0.3888  0.1386
  720loPI   C1A10843   9.930  15.820   6.717 -0.3303 -0.0757 -0.0223
  720loPI   C2A10844   9.962  15.836   7.175  0.1165  0.0116  0.1579
  720loPI   C3A10845   9.858  15.882   7.578  0.3943  0.3020  0.1377
  720loPI   C4A10846   9.756  15.914   7.988  0.0090  0.0240  0.0573
  720loPI   C5A10847   9.815  15.960   8.457  0.0838 -0.0006  0.0472
  720loPI   C6A10848  10.187  15.936   8.783  0.0993  0.3703  0.3579
  720loPI   C1B10849   9.598  16.143   6.965  0.0534  0.2202  0.0358
  720loPI   C2B10850   9.578  16.259   7.368  0.0233 -0.0527  0.2156
  720loPI   C3B10851   9.436  16.250   7.704 -0.0186  0.0951  0.2585
  720loPI   C4B10852   9.352  16.221   8.182  0.3225  0.0903  0.0135
  721loPI    C110853   8.598   5.942   5.590  0.0093  0.0483 -0.0933
  721loPI    C210854   8.358   6.029   5.282  0.1267  0.0637 -0.1812
  721loPI    C310855   8.580   5.697   5.274  0.3501  0.2123 -0.2449
  721loPI   PO410856   8.505   6.102   5.810 -0.0468  0.0469 -0.0506
  721loPI   GL110857   8.463   6.241   6.252  0.1906 -0.0286 -0.0064
  721loPI   GL210858   8.098   6.333   6.266 -0.0726 -0.0594 -0.2464
  721loPI   C1A10859   8.425   6.146   6.710 -0.0250 -0.2380  0.0049
  721loPI   C2A10860   8.467   6.192   7.079  0.1863 -0.0575 -0.3954
  721loPI   C3A10861   8.546   6.144   7.480 -0.1513  0.2551  0.2404
  721loPI   C4A10862   8.491   6.212   7.939 -0.0544  0.2291 -0.0825
  721loPI   C5A10863   8.262   6.269   8.322 -0.0468 -0.1926 -0.1231
  721loPI   C6A10864   8.036   6.682   8.246 -0.0783 -0.2518  0.1456
  721loPI   C1B10865   8.035   6.495   6.635 -0.1830 -0.0923 -0.1855
  721loPI   C2B10866   8.069   6.661   6.969  0.1161 -0.2069 -0.2185
  721loPI   C3B10867   8.055   6.663   7.413 -0.2741 -0.0922  0.1656
  721loPI   C4B10868   8.118   6.462   7.780 -0.0153  0.0501  0.0933
  722loPI    C110869  12.444   6.683   5.929 -0.3075  0.1294  0.0379
  722loPI    C210870  12.717   6.461   5.739 -0.2018 -0.0118  0.3483
  722loPI    C310871  12.503   6.730   5.536  0.1681  0.1036  0.0994
  722loPI   PO410872  12.593   6.668   6.155 -0.1171  0.3324 -0.1416
  722loPI   GL110873  12.975   6.787   6.376  0.1644  0.0693 -0.3820
  722loPI   GL210874  12.775   6.781   6.633 -0.3046  0.0205 -0.0332
  722loPI   C1A10875  13.212   6.499   6.745 -0.3513 -0.1411  0.1662
  722loPI   C2A10876  13.307   6.520   7.178  0.1098  0.1428  0.1038
  722loPI   C3A10877  13.374   6.448   7.593  0.1341 -0.1822  0.0243
  722loPI   C4A10878  13.380   6.380   7.986 -0.2684 -0.4210  0.1198
  722loPI   C5A10879  13.492   6.381   8.328 -0.3977 -0.2302  0.1395
  722loPI   C6A10880  13.446   6.039   8.687 -0.0598  0.1473 -0.1089
  722loPI   C1B10881  12.806   6.823   7.077  0.3043  0.0634  0.1151
  722loPI   C2B10882  12.864   6.785   7.455 -0.1164 -0.0372 -0.0346
  722loPI   C3B10883  13.053   6.723   7.809  0.0933 -0.1360  0.1329
  722loPI   C4B10884  13.067   6.818   8.209 -0.3514 -0.0081  0.1912
  723loPI    C110885   4.265   0.041   5.610 -0.2135 -0.0551 -0.0635
  723loPI    C210886   3.942   0.198   5.432 -0.0607  0.0558 -0.2465
  723loPI    C310887   4.193  -0.034   5.224  0.0193  0.0328 -0.1257
  723loPI   PO410888   4.249  -0.087   5.879 -0.0690  0.2059 -0.1437
  723loPI   GL110889   4.071  -0.375   6.186 -0.1394 -0.2099  0.1729
  723loPI   GL210890   3.810  -0.394   6.212 -0.2721 -0.1346 -0.0237
  723loPI   C1A10891   4.143  -0.379   6.580 -0.1368 -0.0128  0.1228
  723loPI   C2A10892   4.088  -0.402   7.022  0.0988 -0.0116 -0.4107
  723loPI   C3A10893   4.075  -0.355   7.475 -0.2433  0.0412  0.0666
  723loPI   C4A10894   4.200  -0.334   7.903  0.0590  0.1312  0.0164
  723loPI   C5A10895   4.341  -0.374   8.334  0.1596 -0.0364 -0.0074
  723loPI   C6A10896   4.502  -0.133   8.638  0.3826 -0.1936  0.0097
  723loPI   C1B10897   3.642  -0.463   6.639  0.2317  0.1799 -0.0875
  723loPI   C2B10898   3.490  -0.530   7.016  0.0966 -0.0740 -0.2480
  723loPI   C3B10899   3.492  -0.442   7.348  0.1007  0.0430 -0.1479
  723loPI   C4B10900   3.641  -0.501   7.755  0.2308  0.0466  0.1763
  724loPI    C110901   2.815  12.408   5.770 -0.0766  0.1072  0.0370
  724loPI    C210902   2.463  12.473   5.590 -0.0788 -0.2095 -0.0790
  724loPI    C310903   2.663  12.133   5.523  0.2704 -0.0163 -0.0447
  724loPI   PO410904   2.760  12.419   6.049 -0.2143 -0.4448  0.0089
  724loPI   GL110905   2.964  12.244   6.451  0.1510 -0.0510  0.1299
  724loPI   GL210906   3.017  11.938   6.531  0.0694  0.1436  0.2978
  724loPI   C1A10907   2.976  12.300   6.907  0.2196 -0.1964 -0.0657
  724loPI   C2A10908   3.134  12.293   7.365 -0.1735  0.0517 -0.1103
  724loPI   C3A10909   3.080  12.325   7.780  0.1609  0.0091  0.0266
  724loPI   C4A10910   3.076  12.373   8.184 -0.1690 -0.0258  0.1640
  724loPI   C5A10911   2.863  12.306   8.511 -0.1441 -0.0971  0.1373
  724loPI   C6A10912   2.446  12.345   8.769  0.1212  0.2247  0.1387
  724loPI   C1B10913   3.316  11.881   6.804 -0.0050  0.1545  0.1121
  724loPI   C2B10914   3.439  11.921   7.203  0.2915  0.0168 -0.3213
  724loPI   C3B10915   3.442  11.922   7.703 -0.0512 -0.2024  0.1113
  724loPI   C4B10916   3.340  11.944   8.172 -0.0924 -0.0142  0.2445
  725loPI    C110917   9.955   2.615   5.811  0.1049  0.0809  0.1481
  725loPI    C210918   9.642   2.382   5.722  0.0464  0.1557  0.1572
  725loPI    C310919   9.956   2.399   5.474 -0.0588  0.2612  0.0300
  725loPI   PO410920   9.921   2.560   6.086 -0.0043 -0.0866  0.2734
  725loPI   GL110921   9.692   2.770   6.528 -0.0526 -0.0351  0.3482
  725loPI   GL210922  10.061   2.707   6.504 -0.2190 -0.0532  0.1674
  725loPI   C1A10923   9.841   2.788   6.986 -0.0365 -0.3620 -0.0062
  725loPI   C2A10924   9.832   2.874   7.397 -0.0800 -0.3066  0.0851
  725loPI   C3A10925   9.845   2.853   7.733 -0.1468 -0.0433  0.0978
  725loPI   C4A10926   9.837   2.921   8.091  0.4867 -0.0987  0.1339
  725loPI   C5A10927   9.832   2.761   8.490  0.0645 -0.2131  0.2030
  725loPI   C6A10928   9.732   2.685   8.891 -0.2742 -0.0750  0.1431
  725loPI   C1B10929  10.264   2.419   6.732  0.1929  0.0718 -0.1642
  725loPI   C2B10930  10.247   2.416   7.168  0.1875  0.0145  0.0738
  725loPI   C3B10931  10.114   2.434   7.602  0.1110  0.0312 -0.0420
  725loPI   C4B10932  10.155   2.466   8.047  0.0837 -0.2677  0.0246
  726loPI    C110933  14.954  11.905   6.192  0.0904 -0.0676 -0.2643
  726loPI    C210934  14.591  11.876   6.027 -0.0257  0.0496 -0.0327
  726loPI    C310935  14.824  12.190   5.944 -0.0359  0.0482 -0.0670
  726loPI   PO410936  14.860  11.776   6.470  0.0661  0.2594 -0.1841
  726loPI   GL110937  14.659  11.501   6.639 -0.0906 -0.1332  0.1448
  726loPI   GL210938  14.399  11.189   6.467  0.2415 -0.1542  0.0508
  726loPI   C1A10939  14.726  11.517   7.071 -0.2654 -0.0488 -0.3643
  726loPI   C2A10940  14.710  11.647   7.445 -0.1912 -0.0667 -0.0235
  726loPI   C3A10941  14.773  11.865   7.738  0.3169  0.1972  0.2576
  726loPI   C4A10942  14.956  11.762   8.151  0.2123  0.1065 -0.0055
  726loPI   C5A10943  14.907  11.933   8.441 -0.1715 -0.1789 -0.0852
  726loPI   C6A10944  15.163  12.213   8.723 -0.0513  0.2242  0.1651
  726loPI   C1B10945  14.328  11.209   6.861  0.2897  0.1394 -0.0760
  726loPI   C2B10946  14.351  11.260   7.356  0.4039 -0.1116  0.2541
  726loPI   C3B10947  14.440  11.472   7.792 -0.1716  0.1131  0.0822
  726loPI   C4B10948  14.450  11.837   8.095 -0.2163 -0.2344  0.3785
  727loPI    C110949   6.902  15.307   5.547 -0.1736  0.1227 -0.0565
  727loPI    C210950   6.714  14.961   5.476 -0.0431  0.0301  0.0451
  727loPI    C310951   6.755  15.229   5.183 -0.0041 -0.1092 -0.0781
  727loPI   PO410952   7.065  15.230   5.656 -0.1559 -0.0640 -0.2428
  727loPI   GL110953   7.046  15.246   6.108  0.3847 -0.2707 -0.0174
  727loPI   GL210954   7.414  15.248   6.270 -0.1715 -0.1273  0.3017
  727loPI   C1A10955   6.868  15.248   6.490 -0.1835  0.0103  0.1341
  727loPI   C2A10956   6.769  15.116   6.900  0.1751  0.1917  0.0199
  727loPI   C3A10957   6.786  15.087   7.354  0.1839 -0.1602  0.1470
  727loPI   C4A10958   6.790  15.050   7.758 -0.2138 -0.0632 -0.1462
  727loPI   C5A10959   6.769  15.178   8.180 -0.1924 -0.3451 -0.2862
  727loPI   C6A10960   7.036  15.291   8.418 -0.0313  0.0939 -0.3122
  727loPI   C1B10961   7.312  15.204   6.712  0.3313 -0.1288  0.2101
  727loPI   C2B10962   7.370  15.195   7.120 -0.0262 -0.0662 -0.2171
  727loPI   C3B10963   7.362  15.245   7.519 -0.0566 -0.0129 -0.0138
  727loPI   C4B10964   7.263  15.226   7.908 -0.3265  0.2510  0.2622
  728loPI    C110965  10.642  14.626   5.746  0.0179 -0.1653  0.1144
  728loPI    C210966  10.537  14.629   5.360  0.1479  0.2263  0.0777
  728loPI    C310967  10.256  14.653   5.644  0.0701  0.2064  0.0029
  728loPI   PO410968  10.740  14.488   5.823 -0.0629  0.3364  0.2353
  728loPI   GL110969  10.730  14.239   6.225 -0.2165 -0.2433 -0.0618
  728loPI   GL210970  10.417  13.983   6.221 -0.3012 -0.1065 -0.2286
  728loPI   C1A10971  10.774  14.105   6.622  0.2239 -0.0373 -0.3545
  728loPI   C2A10972  10.824  14.150   7.029 -0.0096 -0.0526  0.0844
  728loPI   C3A10973  10.885  14.158   7.470  0.1338 -0.0717 -0.0470
  728loPI   C4A10974  10.856  14.181   7.964 -0.0048  0.3022  0.1499
  728loPI   C5A10975  10.664  14.579   8.219 -0.1219 -0.1130 -0.0379
  728loPI   C6A10976  10.286  14.797   8.158 -0.0426 -0.2379 -0.3260
  728loPI   C1B10977  10.293  13.986   6.668 -0.1593 -0.0026  0.1253
  728loPI   C2B10978  10.216  14.052   7.137 -0.2448 -0.1803 -0.3639
  728loPI   C3B10979  10.332  14.122   7.603 -0.0346  0.2652  0.1971
  728loPI   C4B10980  10.343  14.178   7.991 -0.2122 -0.0438 -0.3327
  729loPI    C110981   1.151  11.604   5.721  0.0482  0.0138  0.1267
  729loPI    C210982   1.163  11.907   5.461  0.1448 -0.0749  0.0271
  729loPI    C310983   1.430  11.610   5.435  0.0843 -0.1414  0.1575
  729loPI   PO410984   1.007  11.715   5.888  0.2657 -0.1670  0.2016
  729loPI   GL110985   0.862  11.659   6.378  0.0177 -0.0720  0.1814
  729loPI   GL210986   1.050  11.449   6.553  0.1841 -0.2578 -0.3816
  729loPI   C1A10987   0.848  11.906   6.801  0.1154  0.1460  0.1808
  729loPI   C2A10988   0.935  11.878   7.202  0.1346  0.2060 -0.1835
  729loPI   C3A10989   0.936  11.742   7.608  0.1646  0.1065 -0.0745
  729loPI   C4A10990   1.006  11.880   8.027 -0.0348 -0.0264  0.3003
  729loPI   C5A10991   1.079  11.681   8.409  0.2269 -0.0315 -0.0217
  729loPI   C6A10992   1.059  12.014   8.826  0.5303  0.1866 -0.1358
  729loPI   C1B10993   1.256  11.509   6.906  0.0587 -0.1170 -0.2365
  729loPI   C2B10994   1.309  11.546   7.323  0.2635  0.3068 -0.1685
  729loPI   C3B10995   1.474  11.570   7.691 -0.1068 -0.0517 -0.2338
  729loPI   C4B10996   1.532  11.587   8.176  0.0303 -0.1647 -0.0971
  730loPI    C110997   3.942  11.750   5.901 -0.2172  0.0989  0.0081
  730loPI    C210998   4.116  11.571   5.589  0.1121  0.2624  0.0931
  730loPI    C310999   3.745  11.717   5.555  0.0593  0.0774 -0.1497
  730loPI   PO411000   4.134  11.820   6.071  0.1745  0.0078 -0.0462
  730loPI   GL111001   4.258  12.044   6.502 -0.2911  0.0025 -0.3282
  730loPI   GL211002   4.105  11.730   6.571 -0.2798 -0.0363 -0.2485
  730loPI   C1A11003   4.353  12.280   6.886 -0.0692 -0.1126  0.0893
  730loPI   C2A11004   4.460  12.309   7.239 -0.0232 -0.2916  0.1232
  730loPI   C3A11005   4.466  12.170   7.709  0.1964 -0.3864  0.1419
  730loPI   C4A11006   4.488  12.320   8.160 -0.0674  0.2562 -0.1545
  730loPI   C5A11007   4.387  12.248   8.586  0.0832 -0.3376  0.0004
  730loPI   C6A11008   4.544  12.145   8.985 -0.0632  0.1077  0.1264
  730loPI   C1B11009   4.211  11.717   6.968 -0.0164 -0.1842  0.2421
  730loPI   C2B11010   4.309  11.799   7.386  0.0027  0.1735  0.0618
  730loPI   C3B11011   4.274  11.762   7.904 -0.0642 -0.2354  0.0857
  730loPI   C4B11012   4.285  11.905   8.289 -0.0846  0.0937 -0.0115
  731loPI    C111013   5.390  11.329   5.846  0.2389 -0.1390 -0.1849
  731loPI    C211014   5.210  11.659   5.709  0.0347 -0.2554 -0.2016
  731loPI    C311015   5.056  11.299   5.627  0.1742 -0.3485 -0.0605
  731loPI   PO411016   5.418  11.396   6.066 -0.0005 -0.2004 -0.1463
  731loPI   GL111017   5.304  11.595   6.420 -0.0227 -0.2256  0.2376
  731loPI   GL211018   5.075  11.423   6.589  0.0228 -0.0579  0.3028
  731loPI   C1A11019   5.266  12.005   6.778  0.2877 -0.1144  0.5331
  731loPI   C2A11020   5.371  12.071   7.154  0.4124  0.0060  0.1794
  731loPI   C3A11021   5.369  12.064   7.621 -0.0943 -0.1842  0.0951
  731loPI   C4A11022   5.302  12.001   8.092  0.1473 -0.1089 -0.0843
  731loPI   C5A11023   5.319  12.367   8.377  0.3655 -0.1338 -0.1494
  731loPI   C6A11024   5.301  12.343   8.825 -0.2197 -0.0390  0.0088
  731loPI   C1B11025   5.111  11.591   7.012  0.3018  0.4020 -0.2507
  731loPI   C2B11026   5.192  11.653   7.456 -0.3620  0.0371  0.0300
  731loPI   C3B11027   5.245  11.599   7.802  0.1631  0.3056  0.1581
  731loPI   C4B11028   5.523  11.522   8.186  0.0382  0.0729 -0.1234
  732loPI    C111029   0.308  15.371   5.516 -0.0943 -0.2294  0.1625
  732loPI    C211030   0.562  15.461   5.221 -0.1555 -0.2567  0.1014
  732loPI    C311031   0.223  15.265   5.140 -0.1231 -0.3561  0.2043
  732loPI   PO411032   0.555  15.417   5.824  0.2202  0.2860  0.0550
  732loPI   GL111033   0.619  15.638   6.243  0.1061  0.0804  0.0482
  732loPI   GL211034   0.344  15.807   6.441  0.0928 -0.2196 -0.4209
  732loPI   C1A11035   0.700  15.550   6.700 -0.0490  0.0556 -0.2367
  732loPI   C2A11036   0.744  15.506   7.251  0.2100 -0.0955  0.2630
  732loPI   C3A11037   0.693  15.535   7.692  0.1736 -0.2264 -0.0835
  732loPI   C4A11038   0.759  15.686   8.083 -0.1138  0.0036  0.1443
  732loPI   C5A11039   0.622  16.139   8.365  0.1085  0.4452 -0.2107
  732loPI   C6A11040   0.720  16.507   8.592  0.1384  0.0106 -0.3528
  732loPI   C1B11041   0.399  15.844   6.890  0.2955 -0.0385  0.1829
  732loPI   C2B11042   0.355  15.788   7.365 -0.1103  0.0033  0.1294
  732loPI   C3B11043   0.363  15.889   7.794  0.0521  0.0121  0.0659
  732loPI   C4B11044   0.217  15.731   8.220 -0.0082  0.0533  0.3564
  733loPI    C111045   0.858   5.324   5.604 -0.3065  0.2411  0.1025
  733loPI    C211046   0.669   5.602   5.387 -0.1331  0.0382 -0.3214
  733loPI    C311047   0.829   5.283   5.207  0.0026 -0.1471  0.1136
  733loPI   PO411048   0.859   5.500   5.895  0.0428  0.0167 -0.1036
  733loPI   GL111049   0.979   5.413   6.262  0.3023 -0.1577 -0.0744
  733loPI   GL211050   1.145   5.529   6.490 -0.1057 -0.1300  0.1152
  733loPI   C1A11051   0.697   5.435   6.605 -0.0941 -0.1040 -0.4761
  733loPI   C2A11052   0.662   5.307   7.042  0.0702  0.0656 -0.2419
  733loPI   C3A11053   0.605   5.267   7.520  0.2334  0.1175 -0.0444
  733loPI   C4A11054   0.500   5.192   7.897 -0.0976  0.0797  0.1032
  733loPI   C5A11055   0.410   5.221   8.354  0.1771 -0.3917 -0.2864
  733loPI   C6A11056   0.164   5.407   8.727  0.3157 -0.0098 -0.1349
  733loPI   C1B11057   1.132   5.368   6.889 -0.3770 -0.4193 -0.3181
  733loPI   C2B11058   1.131   5.361   7.341  0.2789  0.1725  0.2088
  733loPI   C3B11059   1.055   5.342   7.780  0.0936 -0.1628 -0.2902
  733loPI   C4B11060   0.855   5.344   8.228  0.0483 -0.1610  0.1211
  734loPI    C111061  14.300   6.974   5.770 -0.2925 -0.1715 -0.0649
  734loPI    C211062  14.220   6.695   5.494  0.0887 -0.1370 -0.2164
  734loPI    C311063  14.594   6.829   5.541  0.0018 -0.0278  0.2135
  734loPI   PO411064  14.193   7.003   6.022 -0.1066  0.0518  0.1028
  734loPI   GL111065  14.207   6.871   6.412  0.1998  0.0077 -0.0848
  734loPI   GL211066  14.357   6.561   6.431 -0.0555 -0.0060 -0.3145
  734loPI   C1A11067  14.265   6.847   6.854  0.0276  0.1027  0.0700
  734loPI   C2A11068  14.253   6.737   7.273  0.2691  0.0797  0.0028
  734loPI   C3A11069  14.383   6.591   7.638  0.3320 -0.1080 -0.0711
  734loPI   C4A11070  14.496   6.564   8.000 -0.0234  0.1306 -0.0259
  734loPI   C5A11071  14.614   6.473   8.404 -0.1135  0.4156 -0.1353
  734loPI   C6A11072  14.620   6.806   8.776 -0.0175  0.1678  0.1706
  734loPI   C1B11073  14.608   6.418   6.868 -0.1975 -0.0308 -0.1698
  734loPI   C2B11074  14.718   6.355   7.257 -0.0159  0.4482  0.2400
  734loPI   C3B11075  14.769   6.209   7.605  0.2567  0.0499  0.0968
  734loPI   C4B11076  14.879   6.237   8.021 -0.1574  0.3723  0.1352
  735loPI    C111077   9.259   9.437   5.851  0.0972  0.1027 -0.0818
  735loPI    C211078   9.411   9.161   5.604 -0.1248 -0.1463  0.0552
  735loPI    C311079   9.023   9.256   5.583 -0.0359  0.2114 -0.0391
  735loPI   PO411080   9.324   9.398   6.069 -0.3930 -0.3040 -0.3711
  735loPI   GL111081   9.142   9.667   6.319 -0.0696  0.0397 -0.2166
  735loPI   GL211082   8.868   9.801   6.413 -0.2431 -0.0343  0.0496
  735loPI   C1A11083   9.327   9.737   6.660 -0.1435 -0.0418 -0.1174
  735loPI   C2A11084   9.427   9.732   7.109 -0.0599  0.0695  0.0125
  735loPI   C3A11085   9.483   9.665   7.589 -0.1869  0.0581 -0.1347
  735loPI   C4A11086   9.451   9.678   8.112  0.2812  0.1387 -0.0675
  735loPI   C5A11087   9.693   9.703   8.545 -0.1128  0.0761 -0.0627
  735loPI   C6A11088   9.839   9.574   8.859 -0.1216  0.1117  0.1054
  735loPI   C1B11089   8.856   9.698   6.805 -0.0073  0.1813  0.0513
  735loPI   C2B11090   8.885   9.641   7.209 -0.0612 -0.2487  0.3227
  735loPI   C3B11091   8.943   9.636   7.629  0.0505  0.0746  0.0163
  735loPI   C4B11092   8.925   9.568   8.195  0.0382  0.0164 -0.1819
  736loPI    C111093  12.841   4.731   5.982 -0.1974  0.2097  0.1870
  736loPI    C211094  12.674   4.374   5.912  0.0810  0.0644  0.2489
  736loPI    C311095  12.621   4.674   5.653  0.0311 -0.0882  0.0805
  736loPI   PO411096  12.835   4.752   6.268  0.0934  0.2355 -0.3801
  736loPI   GL111097  12.754   4.948   6.535  0.1507 -0.3633 -0.1265
  736loPI   GL211098  12.390   4.983   6.623  0.2395 -0.0084 -0.3425
  736loPI   C1A11099  12.803   5.103   6.868 -0.0927 -0.1192  0.1134
  736loPI   C2A11100  12.882   5.012   7.275 -0.0910 -0.0584 -0.0571
  736loPI   C3A11101  12.857   5.048   7.681  0.0279 -0.2740  0.2504
  736loPI   C4A11102  12.970   4.939   8.053  0.1184  0.2054  0.1680
  736loPI   C5A11103  12.911   4.679   8.492 -0.0258 -0.0355  0.0532
  736loPI   C6A11104  12.869   4.511   8.923 -0.2321 -0.1393  0.1545
  736loPI   C1B11105  12.374   4.878   7.082 -0.1768 -0.3156 -0.1463
  736loPI   C2B11106  12.356   4.929   7.467 -0.4138 -0.0029  0.0737
  736loPI   C3B11107  12.413   4.905   7.909  0.0844 -0.0504 -0.2331
  736loPI   C4B11108  12.435   4.664   8.310 -0.0956 -0.1309 -0.1577
  737loPI    C111109   4.717   4.737   5.719 -0.0538  0.0530 -0.3892
  737loPI    C211110   4.992   4.970   5.545  0.0792 -0.0052 -0.2591
  737loPI    C311111   5.044   4.574   5.556  0.1603  0.0111  0.0647
  737loPI   PO411112   4.656   4.929   6.046 -0.1695  0.0899  0.2473
  737loPI   GL111113   4.895   4.854   6.381  0.0555  0.0102  0.2457
  737loPI   GL211114   5.247   4.839   6.424 -0.1831  0.0476  0.2010
  737loPI   C1A11115   4.786   4.784   6.804  0.0440 -0.1982  0.1927
  737loPI   C2A11116   4.859   4.903   7.307  0.1682 -0.0301  0.3303
  737loPI   C3A11117   4.732   4.877   7.799 -0.0785 -0.4411  0.1708
  737loPI   C4A11118   4.656   5.057   8.238  0.2586  0.1732  0.1022
  737loPI   C5A11119   4.252   5.234   8.457 -0.0839 -0.1410 -0.0242
  737loPI   C6A11120   3.747   5.294   8.486 -0.2961 -0.3291 -0.0981
  737loPI   C1B11121   5.342   4.970   6.692  0.0286 -0.0236  0.1444
  737loPI   C2B11122   5.326   4.942   7.126 -0.0183  0.1648  0.0610
  737loPI   C3B11123   5.267   4.942   7.574  0.0856 -0.0004  0.1931
  737loPI   C4B11124   5.264   5.079   8.085 -0.2389 -0.0844  0.3947
  738loPI    C111125   7.579  17.138   5.743 -0.0462  0.3614  0.1903
  738loPI    C211126   7.844  17.277   5.477 -0.0910  0.1598  0.0371
  738loPI    C311127   7.574  17.004   5.366 -0.1160  0.0794  0.2887
  738loPI   PO411128   7.730  17.160   5.984 -0.0143 -0.3795 -0.2756
  738loPI   GL111129   7.823  17.399   6.295  0.0362 -0.2710  0.1724
  738loPI   GL211130   7.547  17.410   6.558  0.2443  0.1621 -0.0157
  738loPI   C1A11131   7.992  17.539   6.702  0.0279  0.2906 -0.1203
  738loPI   C2A11132   8.036  17.637   7.095  0.1868 -0.1034 -0.0171
  738loPI   C3A11133   8.053  17.673   7.541  0.3312 -0.0425 -0.0021
  738loPI   C4A11134   8.003  17.746   7.926 -0.0513  0.0898 -0.0186
  738loPI   C5A11135   7.949  17.859   8.352 -0.0580  0.4118 -0.0550
  738loPI   C6A11136   8.139  17.709   8.798 -0.0719 -0.1517  0.0111
  738loPI   C1B11137   7.571  17.492   7.009 -0.4182  0.0556 -0.3134
  738loPI   C2B11138   7.568  17.593   7.330  0.0557 -0.0259 -0.0003
  738loPI   C3B11139   7.490  17.618   7.697 -0.0598 -0.0227 -0.1890
  738loPI   C4B11140   7.551  17.617   8.160 -0.1886  0.2040  0.0370
  739loPI    C111141  15.268  11.495   6.038 -0.3733  0.0824 -0.1200
  739loPI    C211142  15.451  11.695   5.744  0.0616  0.0365  0.1103
  739loPI    C311143  15.514  11.303   5.788 -0.0027  0.0429  0.2634
  739loPI   PO411144  15.292  11.531   6.242 -0.0975 -0.1323  0.0930
  739loPI   GL111145  15.518  11.761   6.586  0.0307 -0.1538  0.1972
  739loPI   GL211146  15.322  11.910   6.629 -0.1916  0.4378 -0.0622
  739loPI   C1A11147  15.626  11.818   6.992  0.4037  0.1573  0.0210
  739loPI   C2A11148  15.640  11.894   7.356  0.3399  0.0300 -0.2334
  739loPI   C3A11149  15.683  11.769   7.766 -0.1102 -0.2524 -0.0317
  739loPI   C4A11150  15.437  11.615   8.095 -0.3955 -0.2188 -0.0249
  739loPI   C5A11151  15.602  11.598   8.481 -0.2506 -0.1117 -0.0358
  739loPI   C6A11152  15.761  11.493   8.889 -0.0846  0.0749 -0.1000
  739loPI   C1B11153  15.116  11.965   7.030  0.1380 -0.0389 -0.2978
  739loPI   C2B11154  15.083  11.952   7.375  0.1331 -0.2893  0.0532
  739loPI   C3B11155  15.246  12.033   7.822  0.1412  0.0131 -0.0095
  739loPI   C4B11156  15.343  12.084   8.287 -0.2030  0.3284 -0.0211
  740loPI    C111157   6.558  10.374   6.120 -0.0067 -0.0680 -0.0720
  740loPI    C211158   6.527  10.078   6.387  0.0847 -0.1484 -0.1497
  740loPI    C311159   6.217  10.323   6.324  0.0789 -0.0977  0.0650
  740loPI   PO411160   6.771  10.481   6.176  0.1661 -0.0122 -0.0131
  740loPI   GL111161   6.701  10.599   6.562  0.2259 -0.1066 -0.1288
  740loPI   GL211162   6.632  10.882   6.638  0.1027  0.1590 -0.4123
  740loPI   C1A11163   6.815  10.555   6.972  0.1728  0.0241 -0.1093
  740loPI   C2A11164   6.832  10.574   7.397  0.0159  0.3180 -0.0368
  740loPI   C3A11165   6.928  10.410   7.867  0.1225 -0.0227 -0.0156
  740loPI   C4A11166   6.937  10.553   8.296  0.0612  0.1031  0.1901
  740loPI   C5A11167   7.288  10.472   8.576 -0.2414  0.2880  0.2145
  740loPI   C6A11168   7.373  10.078   8.774 -0.2134 -0.2487  0.1055
  740loPI   C1B11169   6.436  10.912   6.972  0.1827  0.0567 -0.1691
  740loPI   C2B11170   6.410  11.001   7.367 -0.2783 -0.0098  0.2203
  740loPI   C3B11171   6.507  10.894   7.780  0.0587 -0.2360 -0.0161
  740loPI   C4B11172   6.579  10.860   8.141 -0.0466 -0.0335  0.2976
  741loPI    C111173  15.830   9.911   6.316  0.1377  0.0273 -0.0729
  741loPI    C211174  15.749   9.695   5.989  0.0069 -0.1403  0.0672
  741loPI    C311175  15.563  10.044   6.049 -0.1490 -0.2247  0.0800
  741loPI   PO411176  15.900   9.652   6.506  0.4243 -0.0212  0.1298
  741loPI   GL111177  16.004   9.403   6.897 -0.0953  0.0804  0.0736
  741loPI   GL211178  16.008   9.054   6.820  0.1042  0.0551  0.2948
  741loPI   C1A11179  15.878   9.567   7.224 -0.0459  0.1891  0.0146
  741loPI   C2A11180  15.748   9.501   7.543  0.1141  0.0397  0.2568
  741loPI   C3A11181  15.693   9.390   8.049 -0.2971  0.4734 -0.0166
  741loPI   C4A11182  15.360   9.169   8.342 -0.2113  0.1487 -0.3218
  741loPI   C5A11183  15.144   9.232   8.780 -0.2804 -0.1955  0.2430
  741loPI   C6A11184  14.760   9.255   8.956 -0.0568  0.0448 -0.1527
  741loPI   C1B11185  15.895   9.074   7.208 -0.1628  0.0539  0.1905
  741loPI   C2B11186  16.221   9.093   7.611  0.1716  0.0478 -0.1498
  741loPI   C3B11187  16.192   9.471   7.901 -0.1959  0.1701 -0.0753
  741loPI   C4B11188  16.092   9.815   8.020 -0.2637 -0.4017 -0.0830
  742loPI    C111189   0.565   3.047   5.110 -0.0972  0.1543  0.3152
  742loPI    C211190   0.873   3.236   4.938 -0.1269 -0.1829 -0.1272
  742loPI    C311191   0.529   3.430   4.999 -0.0521 -0.0015 -0.2731
  742loPI   PO411192   0.663   2.969   5.348 -0.3138  0.2121  0.1198
  742loPI   GL111193   0.475   2.902   5.768 -0.1899 -0.1326 -0.0865
  742loPI   GL211194   0.733   3.054   5.885  0.1531 -0.1403  0.1678
  742loPI   C1A11195   0.371   3.000   6.230 -0.0643 -0.1923 -0.1940
  742loPI   C2A11196   0.263   2.953   6.688  0.2935  0.0842 -0.1098
  742loPI   C3A11197   0.359   2.862   7.065  0.0826  0.2809  0.0839
  742loPI   C4A11198   0.309   2.847   7.546 -0.1191  0.1760  0.2106
  742loPI   C5A11199   0.469   2.851   7.988 -0.2320  0.1776  0.0261
  742loPI   C6A11200   0.681   2.907   8.310 -0.1476 -0.0185 -0.1491
  742loPI   C1B11201   0.924   3.151   6.260  0.0608 -0.0794 -0.0773
  742loPI   C2B11202   0.823   3.023   6.696 -0.1515 -0.1598  0.0658
  742loPI   C3B11203   0.799   3.014   7.076  0.2122 -0.3449  0.0343
  742loPI   C4B11204   0.808   2.936   7.519  0.0077  0.1914  0.1505
  743loPI    C111205  14.283  11.305   5.919  0.1049  0.0205  0.0408
  743loPI    C211206  14.591  11.416   5.688  0.0166 -0.0141 -0.0952
  743loPI    C311207  14.267  11.250   5.523 -0.0653 -0.0008  0.0499
  743loPI   PO411208  14.238  11.547   6.093 -0.3803 -0.1145  0.1526
  743loPI   GL111209  14.211  11.726   6.540 -0.1945 -0.0609 -0.0741
  743loPI   GL211210  14.012  11.945   6.411  0.1158  0.1539 -0.2958
  743loPI   C1A11211  14.277  11.720   7.017  0.0305 -0.1416 -0.1905
  743loPI   C2A11212  14.234  11.788   7.498 -0.1057 -0.2981  0.0758
  743loPI   C3A11213  13.882  11.750   7.889 -0.3446  0.0594  0.0158
  743loPI   C4A11214  13.553  11.700   8.281  0.0547  0.0680  0.1379
  743loPI   C5A11215  13.340  11.805   8.730  0.2774  0.1840  0.0634
  743loPI   C6A11216  13.078  11.902   9.083 -0.0165  0.0446  0.1528
  743loPI   C1B11217  13.982  12.116   6.779  0.2706  0.0370 -0.0084
  743loPI   C2B11218  13.913  12.068   7.236  0.1639  0.2838  0.0690
  743loPI   C3B11219  13.967  12.195   7.629 -0.2788  0.1780 -0.0870
  743loPI   C4B11220  14.010  12.192   8.115 -0.0918  0.0979  0.3074
  744loPI    C111221   0.677  13.062   5.449  0.1536  0.0377  0.1377
  744loPI    C211222   0.920  13.280   5.218 -0.0733  0.1772  0.0272
  744loPI    C311223   0.744  12.952   5.070  0.0968  0.0386  0.1274
  744loPI   PO411224   0.538  13.238   5.708 -0.1803 -0.1393 -0.0011
  744loPI   GL111225   0.568  13.092   6.146  0.2367  0.0597  0.0525
  744loPI   GL211226   0.596  13.464   6.243 -0.1791 -0.0581  0.0254
  744loPI   C1A11227   0.444  13.029   6.541 -0.3187  0.0417 -0.1543
  744loPI   C2A11228   0.325  13.186   7.013 -0.0377  0.0954  0.2150
  744loPI   C3A11229   0.459  13.163   7.500 -0.0385 -0.1491 -0.2496
  744loPI   C4A11230   0.433  13.216   7.970  0.0558 -0.0089  0.2876
  744loPI   C5A11231   0.513  13.014   8.305  0.1248 -0.1717 -0.1014
  744loPI   C6A11232   0.582  12.558   8.465  0.0873  0.1762 -0.2321
  744loPI   C1B11233   0.580  13.601   6.741 -0.1842 -0.1629  0.0514
  744loPI   C2B11234   0.510  13.653   7.226  0.0851  0.0248  0.2388
  744loPI   C3B11235   0.574  13.605   7.639  0.0194  0.0950  0.0054
  744loPI   C4B11236   0.701  13.655   7.850  0.0220  0.1502 -0.1176
  745loPI    C111237   8.012   0.997   5.694 -0.0009 -0.0768  0.1449
  745loPI    C211238   7.732   0.902   5.425  0.0227  0.4163 -0.0650
  745loPI    C311239   8.081   0.706   5.429 -0.0355  0.3048 -0.2955
  745loPI   PO411240   7.867   1.044   5.934 -0.1301 -0.2906 -0.1390
  745loPI   GL111241   7.794   1.432   6.263 -0.2150 -0.2500  0.0427
  745loPI   GL211242   8.074   1.268   6.427 -0.2277 -0.0575  0.3093
  745loPI   C1A11243   7.600   1.293   6.669  0.1522  0.0593 -0.2358
  745loPI   C2A11244   7.508   1.334   7.084 -0.1666 -0.2914  0.1332
  745loPI   C3A11245   7.559   1.360   7.530 -0.0020  0.1022  0.1925
  745loPI   C4A11246   7.445   1.363   7.992  0.0158 -0.1063 -0.0173
  745loPI   C5A11247   7.427   1.233   8.393 -0.1381 -0.2261  0.4247
  745loPI   C6A11248   7.112   1.145   8.598  0.0353  0.0592 -0.3772
  745loPI   C1B11249   8.101   1.440   6.878 -0.1704  0.1023  0.0119
  745loPI   C2B11250   7.969   1.414   7.236  0.1963 -0.1503 -0.1244
  745loPI   C3B11251   8.042   1.519   7.625 -0.1640 -0.1488 -0.1804
  745loPI   C4B11252   8.040   1.531   8.089 -0.0412 -0.1923  0.1259
  746loPI    C111253  12.943   5.962   5.662 -0.2231  0.1771  0.1267
  746loPI    C211254  13.171   6.288   5.621 -0.1424  0.0922 -0.1180
  746loPI    C311255  12.914   6.186   5.331 -0.1973 -0.0386 -0.0239
  746loPI   PO411256  12.839   5.986   5.952 -0.3568  0.1223 -0.3201
  746loPI   GL111257  12.726   5.895   6.346  0.2377 -0.3270 -0.0635
  746loPI   GL211258  12.677   6.223   6.354 -0.1939  0.1007  0.3372
  746loPI   C1A11259  12.589   5.848   6.758  0.1319 -0.2514  0.1096
  746loPI   C2A11260  12.628   5.818   7.228  0.1136  0.1235  0.2230
  746loPI   C3A11261  12.703   5.828   7.696 -0.0751 -0.0989 -0.1428
  746loPI   C4A11262  12.707   5.860   8.036  0.1146  0.3385  0.3259
  746loPI   C5A11263  12.627   5.625   8.344 -0.1131  0.1016 -0.1603
  746loPI   C6A11264  12.614   5.533   8.653  0.0105 -0.1123 -0.0761
  746loPI   C1B11265  12.695   6.329   6.838  0.0710  0.0459  0.2345
  746loPI   C2B11266  12.644   6.329   7.312 -0.0332 -0.1109  0.3530
  746loPI   C3B11267  12.886   6.290   7.676  0.0776 -0.1183  0.0101
  746loPI   C4B11268  12.843   6.317   8.109 -0.1068  0.0981 -0.1463
  747loPI    C111269  14.564  16.321   5.658  0.1590  0.0526  0.0287
  747loPI    C211270  14.209  16.200   5.796  0.1261  0.1539  0.0334
  747loPI    C311271  14.289  16.179   5.405  0.0309  0.3405  0.0026
  747loPI   PO411272  14.739  16.223   5.807 -0.2269 -0.3075 -0.3282
  747loPI   GL111273  14.672  15.998   6.158  0.1267  0.0193 -0.0856
  747loPI   GL211274  14.277  15.911   6.243 -0.0290 -0.0353  0.2475
  747loPI   C1A11275  14.673  15.992   6.656  0.0834 -0.0904  0.1720
  747loPI   C2A11276  14.748  16.064   7.075 -0.0965 -0.3335  0.1112
  747loPI   C3A11277  14.739  16.058   7.447  0.1011  0.0869 -0.3116
  747loPI   C4A11278  14.674  16.012   7.891  0.0020  0.1490  0.2861
  747loPI   C5A11279  14.517  15.800   8.289  0.1646 -0.1528  0.1122
  747loPI   C6A11280  14.462  15.414   8.311  0.2047  0.1002  0.2569
  747loPI   C1B11281  14.217  15.909   6.661  0.0469 -0.0801  0.1268
  747loPI   C2B11282  14.288  15.893   7.105  0.1015 -0.0967  0.3054
  747loPI   C3B11283  14.269  15.949   7.524 -0.0240 -0.0438 -0.1871
  747loPI   C4B11284  14.160  15.969   7.942 -0.0094  0.2174 -0.3577
  748loPI    C111285  15.914  13.843   5.548  0.1043 -0.3343 -0.0918
  748loPI    C211286  16.277  13.906   5.392 -0.0459  0.1865 -0.2521
  748loPI    C311287  15.953  13.923   5.158 -0.2002  0.0234 -0.0543
  748loPI   PO411288  15.966  13.952   5.862 -0.0542 -0.1977  0.2031
  748loPI   GL111289  16.095  13.785   6.236 -0.1541  0.1726  0.1052
  748loPI   GL211290  15.763  13.761   6.318 -0.1129  0.4850 -0.0483
  748loPI   C1A11291  16.236  13.589   6.539  0.2243  0.3856 -0.2356
  748loPI   C2A11292  16.332  13.669   6.955  0.1154  0.0173  0.1311
  748loPI   C3A11293  16.330  13.681   7.364  0.2930  0.0536 -0.4573
  748loPI   C4A11294  16.325  13.618   7.856  0.1759 -0.0195  0.0459
  748loPI   C5A11295  16.343  13.506   8.263  0.1262 -0.1551 -0.2494
  748loPI   C6A11296  15.926  13.199   8.413  0.0353 -0.0141 -0.3579
  748loPI   C1B11297  15.984  14.052   6.610  0.1011  0.2328  0.0296
  748loPI   C2B11298  15.899  13.957   6.988  0.0084  0.0936  0.0892
  748loPI   C3B11299  15.871  14.001   7.375 -0.0338  0.1176 -0.0323
  748loPI   C4B11300  16.005  14.117   7.791  0.2258  0.0125 -0.1276
  749loPI    C111301   8.602   7.744   5.846 -0.0625 -0.1523  0.0425
  749loPI    C211302   8.599   7.406   5.633  0.1032 -0.0211 -0.1721
  749loPI    C311303   8.681   7.755   5.454  0.0347  0.1200  0.0670
  749loPI   PO411304   8.747   7.622   6.151 -0.2150  0.0278 -0.2291
  749loPI   GL111305   8.547   7.430   6.565 -0.1313 -0.0069  0.0386
  749loPI   GL211306   8.739   7.126   6.549 -0.0415 -0.0109  0.2356
  749loPI   C1A11307   8.314   7.521   6.889 -0.2177  0.1215 -0.0916
  749loPI   C2A11308   8.285   7.601   7.271  0.2670  0.3368  0.0786
  749loPI   C3A11309   8.351   7.574   7.792 -0.4975  0.0623  0.2469
  749loPI   C4A11310   8.386   7.696   8.251 -0.0563 -0.0034 -0.3164
  749loPI   C5A11311   8.631   7.723   8.688  0.1667 -0.0847  0.0875
  749loPI   C6A11312   8.884   7.569   8.991  0.1853 -0.3094 -0.0346
  749loPI   C1B11313   8.659   7.206   7.032  0.2334  0.0685 -0.0959
  749loPI   C2B11314   8.763   7.179   7.459 -0.1897 -0.2327 -0.0356
  749loPI   C3B11315   8.708   7.064   7.840  0.1681  0.2810 -0.1573
  749loPI   C4B11316   8.704   7.302   8.315  0.0881  0.1800  0.0935
  750loPI    C111317  16.169   2.277   5.359 -0.0080 -0.0536 -0.0272
  750loPI    C211318  16.552   2.299   5.247  0.0192  0.0643  0.0876
  750loPI    C311319  16.270   2.220   4.976  0.1174  0.0453 -0.0098
  750loPI   PO411320  16.090   2.441   5.548 -0.0480 -0.0809 -0.3673
  750loPI   GL111321  16.030   2.267   5.959  0.1925  0.1615  0.1425
  750loPI   GL211322  16.231   2.242   6.165 -0.1312 -0.0983 -0.0733
  750loPI   C1A11323  15.846   2.462   6.357 -0.4084 -0.1980 -0.3123
  750loPI   C2A11324  15.928   2.387   6.852  0.0278  0.2601  0.2130
  750loPI   C3A11325  15.926   2.253   7.275 -0.0409 -0.1637 -0.1340
  750loPI   C4A11326  15.781   2.423   7.723  0.0458  0.0567 -0.2036
  750loPI   C5A11327  15.963   2.511   8.241 -0.1132  0.1593 -0.0894
  750loPI   C6A11328  15.660   2.789   8.487 -0.3996 -0.1116  0.0757
  750loPI   C1B11329  16.315   2.138   6.575 -0.2027 -0.0728  0.0370
  750loPI   C2B11330  16.204   1.998   7.009  0.1320  0.0074  0.3941
  750loPI   C3B11331  16.240   2.023   7.542 -0.1344  0.1517 -0.1777
  750loPI   C4B11332  16.124   2.116   7.940  0.1746  0.0389 -0.3614
  751loPI    C111333   2.850  15.822   5.418  0.3826 -0.1153 -0.2179
  751loPI    C211334   2.818  16.218   5.369  0.4208 -0.0505  0.2365
  751loPI    C311335   2.970  15.991   5.076  0.1809  0.2371 -0.1191
  751loPI   PO411336   2.779  15.837   5.738 -0.1538  0.0243 -0.1698
  751loPI   GL111337   2.675  16.014   6.047  0.0965 -0.1100 -0.0782
  751loPI   GL211338   2.429  16.205   6.279  0.0835  0.0610 -0.1332
  751loPI   C1A11339   2.806  15.951   6.417 -0.0284  0.1563  0.0984
  751loPI   C2A11340   2.857  15.905   6.822  0.3317 -0.0019  0.0216
  751loPI   C3A11341   2.717  15.938   7.233  0.1469 -0.0578 -0.3567
  751loPI   C4A11342   2.695  16.005   7.687 -0.2649  0.1405  0.1243
  751loPI   C5A11343   2.805  16.010   8.064  0.2536 -0.1331  0.0951
  751loPI   C6A11344   2.979  16.103   8.406 -0.4877 -0.2831 -0.0238
  751loPI   C1B11345   2.419  16.305   6.791 -0.0975 -0.0365  0.1892
  751loPI   C2B11346   2.381  16.386   7.170 -0.0607 -0.5735 -0.0989
  751loPI   C3B11347   2.339  16.345   7.632 -0.1231  0.2996  0.5754
  751loPI   C4B11348   2.415  16.423   8.100 -0.4157 -0.2682  0.4783
  752loPI    C111349   9.390   3.066   5.589  0.0952  0.1347 -0.1732
  752loPI    C211350   9.308   2.676   5.560  0.0074  0.1033  0.3790
  752loPI    C311351   9.664   2.815   5.442  0.0718 -0.1563  0.2594
  752loPI   PO411352   9.209   3.129   5.779 -0.0320  0.1027  0.1078
  752loPI   GL111353   9.326   3.174   6.280  0.0897  0.1034  0.1083
  752loPI   GL211354   9.056   3.198   6.456 -0.3725  0.0608 -0.2747
  752loPI   C1A11355   9.492   3.209   6.721 -0.1545 -0.1580 -0.0976
  752loPI   C2A11356   9.540   3.152   7.107 -0.0387 -0.1155  0.3510
  752loPI   C3A11357   9.431   3.265   7.530 -0.0026  0.0080 -0.3012
  752loPI   C4A11358   9.446   3.216   7.933  0.2021 -0.1569 -0.1029
  752loPI   C5A11359   9.430   3.098   8.347 -0.3977 -0.0903 -0.1134
  752loPI   C6A11360   9.371   2.899   8.674  0.1288  0.1551 -0.1633
  752loPI   C1B11361   9.032   2.944   6.917 -0.0737  0.1018 -0.0845
  752loPI   C2B11362   9.015   3.087   7.368  0.1274 -0.1602  0.2713
  752loPI   C3B11363   8.897   3.136   7.813  0.3950  0.0292  0.2425
  752loPI   C4B11364   8.945   3.169   8.209  0.1337  0.2592  0.2016
  753loPI    C111365   1.404  12.025   5.885  0.0976 -0.0274  0.1697
  753loPI    C211366   1.707  11.765   5.877  0.0132 -0.1233  0.0379
  753loPI    C311367   1.685  12.053   5.601 -0.0687 -0.1779 -0.0130
  753loPI   PO411368   1.424  12.040   6.191 -0.4217 -0.1076  0.0483
  753loPI   GL111369   1.275  11.905   6.532 -0.3766 -0.0314  0.0835
  753loPI   GL211370   1.101  12.272   6.580 -0.0161  0.1093  0.2723
  753loPI   C1A11371   1.368  11.959   7.012  0.2775  0.0183 -0.0410
  753loPI   C2A11372   1.339  12.053   7.459 -0.2329 -0.0018 -0.1229
  753loPI   C3A11373   1.493  12.066   7.896  0.2747 -0.0973 -0.0715
  753loPI   C4A11374   1.414  12.079   8.281 -0.0957  0.1639 -0.0955
  753loPI   C5A11375   1.562  11.811   8.591  0.0558  0.2962 -0.1320
  753loPI   C6A11376   1.539  11.779   8.992 -0.0204 -0.2393  0.0084
  753loPI   C1B11377   1.021  12.360   7.016  0.0644  0.1863 -0.1945
  753loPI   C2B11378   1.160  12.469   7.416 -0.0787 -0.0435  0.0831
  753loPI   C3B11379   1.180  12.446   7.902 -0.3798  0.2018  0.0037
  753loPI   C4B11380   0.944  12.306   8.275 -0.2246 -0.2217  0.1512
  754loPI    C111381  12.519   2.735   5.976 -0.0839  0.2030  0.0566
  754loPI    C211382  12.831   2.875   5.769  0.0574 -0.0233  0.1131
  754loPI    C311383  12.489   2.789   5.581  0.1291 -0.0649  0.0006
  754loPI   PO411384  12.574   2.900   6.289  0.0010  0.0664  0.1176
  754loPI   GL111385  12.823   2.744   6.552 -0.2643  0.1106 -0.1096
  754loPI   GL211386  12.629   2.418   6.589 -0.3277 -0.0247  0.2849
  754loPI   C1A11387  12.851   3.020   6.935 -0.0979 -0.3151 -0.0505
  754loPI   C2A11388  12.792   3.102   7.373  0.2637  0.0374  0.0572
  754loPI   C3A11389  12.804   3.024   7.787  0.1729 -0.3517  0.2024
  754loPI   C4A11390  12.695   2.982   8.210  0.4249  0.0244 -0.0155
  754loPI   C5A11391  12.698   2.813   8.678 -0.0142  0.2485  0.4771
  754loPI   C6A11392  12.380   2.606   8.890  0.0315  0.1148  0.1254
  754loPI   C1B11393  12.556   2.464   6.962 -0.0388 -0.0750 -0.1694
  754loPI   C2B11394  12.598   2.526   7.406 -0.1723 -0.0370 -0.1676
  754loPI   C3B11395  12.578   2.549   7.816 -0.1331 -0.1155  0.1801
  754loPI   C4B11396  12.543   2.451   8.269 -0.3774  0.1251  0.0461
  755loPI    C111397   3.686   9.803   5.706  0.1238  0.0710 -0.0474
  755loPI    C211398   3.499   9.929   5.376 -0.1616 -0.1631  0.0210
  755loPI    C311399   3.750   9.618   5.357 -0.0228 -0.0497 -0.0117
  755loPI   PO411400   3.477   9.785   5.986  0.0091  0.2008 -0.1792
  755loPI   GL111401   3.274   9.810   6.400  0.0533  0.3158  0.0279
  755loPI   GL211402   3.566  10.030   6.393 -0.3557 -0.0986  0.0157
  755loPI   C1A11403   3.189   9.951   6.879 -0.2874  0.0962  0.3012
  755loPI   C2A11404   3.318  10.135   7.244 -0.1496  0.2821  0.1958
  755loPI   C3A11405   3.381  10.118   7.695 -0.1858 -0.0591  0.0616
  755loPI   C4A11406   3.442  10.172   8.147  0.0979  0.2137  0.2631
  755loPI   C5A11407   3.446   9.966   8.508  0.0170 -0.1908  0.0913
  755loPI   C6A11408   3.281   9.685   8.762 -0.0631  0.0205 -0.1878
  755loPI   C1B11409   3.666   9.715   6.658  0.0960 -0.1568 -0.1021
  755loPI   C2B11410   3.674   9.774   7.078 -0.0133 -0.1373 -0.0444
  755loPI   C3B11411   3.700   9.802   7.480 -0.1167 -0.0096  0.0357
  755loPI   C4B11412   3.786   9.808   7.903  0.2608 -0.1437  0.0345
  756loPI    C111413   1.446   4.634   5.673  0.1058  0.2109 -0.0812
  756loPI    C211414   1.655   4.310   5.567 -0.1194 -0.0127  0.1435
  756loPI    C311415   1.564   4.587   5.294  0.0986 -0.1233 -0.0451
  756loPI   PO411416   1.484   4.674   5.965  0.2773 -0.1335  0.2292
  756loPI   GL111417   1.292   5.003   6.314 -0.1393  0.1039 -0.2156
  756loPI   GL211418   1.404   4.645   6.401  0.0473  0.1383 -0.0655
  756loPI   C1A11419   1.553   5.043   6.623  0.0316 -0.0387  0.1773
  756loPI   C2A11420   1.468   5.020   7.084 -0.0391 -0.0078  0.0497
  756loPI   C3A11421   1.440   4.936   7.514  0.1017  0.1690 -0.1317
  756loPI   C4A11422   1.373   4.920   7.939 -0.0580 -0.1508 -0.1408
  756loPI   C5A11423   1.212   4.821   8.305  0.0898 -0.0681  0.1171
  756loPI   C6A11424   1.122   5.092   8.555 -0.2097 -0.1143 -0.3933
  756loPI   C1B11425   1.415   4.540   6.862 -0.3093 -0.2916  0.4446
  756loPI   C2B11426   1.332   4.501   7.240 -0.2740 -0.2467 -0.0701
  756loPI   C3B11427   1.274   4.486   7.742 -0.0042 -0.0349 -0.0644
  756loPI   C4B11428   1.044   4.378   8.194 -0.1832 -0.2155 -0.1809
  757loPI    C111429   5.856  16.235   5.491  0.0001  0.0288 -0.1311
  757loPI    C211430   6.041  16.045   5.192 -0.0914 -0.1561 -0.0713
  757loPI    C311431   5.796  16.352   5.113  0.2474  0.0996 -0.1501
  757loPI   PO411432   6.009  16.110   5.743  0.0057  0.1276 -0.0150
  757loPI   GL111433   6.062  16.149   6.138 -0.2020  0.1600 -0.3629
  757loPI   GL211434   5.874  16.190   6.370 -0.2889  0.1266 -0.1991
  757loPI   C1A11435   6.114  15.872   6.614  0.0095 -0.1401 -0.2431
  757loPI   C2A11436   6.040  15.947   7.002  0.0986  0.2294 -0.0755
  757loPI   C3A11437   5.958  15.843   7.384 -0.2800  0.0319 -0.2648
  757loPI   C4A11438   6.062  15.919   7.762 -0.0544 -0.0174  0.3174
  757loPI   C5A11439   6.067  15.771   8.178 -0.4999 -0.0317  0.1339
  757loPI   C6A11440   6.037  15.816   8.617 -0.2414  0.1243  0.1452
  757loPI   C1B11441   5.689  16.290   6.744  0.0900  0.2827  0.1691
  757loPI   C2B11442   5.713  16.252   7.166  0.0065 -0.2788 -0.1193
  757loPI   C3B11443   5.709  16.201   7.539  0.1652  0.1597  0.3015
  757loPI   C4B11444   5.706  16.151   8.033  0.1869  0.1295  0.1377
  758loPI    C111445  17.445  16.058   5.479  0.2837 -0.2545  0.2130
  758loPI    C211446  17.229  15.895   5.184 -0.0329 -0.0326  0.3176
  758loPI    C311447  17.627  15.852   5.187  0.0135  0.2439 -0.3273
  758loPI   PO411448  17.323  16.053   5.736  0.1153  0.2535  0.1519
  758loPI   GL111449  17.110  15.944   6.078  0.0770 -0.3764  0.3375
  758loPI   GL211450  17.239  15.615   6.009  0.1989 -0.0779  0.3737
  758loPI   C1A11451  17.008  16.041   6.440  0.0818 -0.2396  0.0056
  758loPI   C2A11452  17.086  16.127   6.796  0.2492  0.2090 -0.2912
  758loPI   C3A11453  16.978  16.150   7.213 -0.0343  0.5484  0.1656
  758loPI   C4A11454  17.038  16.142   7.628 -0.1460 -0.4278 -0.0359
  758loPI   C5A11455  17.061  16.105   8.126 -0.0248 -0.0484  0.1435
  758loPI   C6A11456  17.159  16.344   8.531  0.0008 -0.1854 -0.1378
  758loPI   C1B11457  17.372  15.681   6.559  0.0288  0.2305  0.4705
  758loPI   C2B11458  17.364  15.746   6.974  0.0031  0.4609 -0.0093
  758loPI   C3B11459  17.355  15.797   7.433 -0.0149 -0.2027  0.1758
  758loPI   C4B11460  17.446  15.874   7.885  0.2109  0.2135  0.2902
  759loPI    C111461   7.128  15.678   5.958  0.0778 -0.0154 -0.0851
  759loPI    C211462   6.937  15.995   5.805 -0.0378  0.0836  0.2558
  759loPI    C311463   6.733  15.663   5.895  0.0535 -0.0254  0.0672
  759loPI   PO411464   7.269  15.732   6.178  0.3296  0.1988 -0.0487
  759loPI   GL111465   7.559  15.677   6.477  0.0447 -0.1632 -0.1625
  759loPI   GL211466   7.520  16.057   6.476 -0.1445 -0.5502 -0.3080
  759loPI   C1A11467   7.472  15.743   6.913  0.2205 -0.0789 -0.0518
  759loPI   C2A11468   7.497  15.748   7.419  0.1922 -0.0801  0.0646
  759loPI   C3A11469   7.375  15.734   7.813 -0.3003  0.1357 -0.3778
  759loPI   C4A11470   7.462  15.762   8.165 -0.0356 -0.1241 -0.0268
  759loPI   C5A11471   7.637  15.902   8.466 -0.2010  0.0840  0.1666
  759loPI   C6A11472   7.916  15.994   8.855 -0.1106 -0.0021 -0.3333
  759loPI   C1B11473   7.662  16.174   6.911 -0.1388 -0.0158 -0.0327
  759loPI   C2B11474   7.632  16.256   7.338  0.1508  0.1314 -0.1733
  759loPI   C3B11475   7.536  16.254   7.697  0.1129 -0.0111 -0.3812
  759loPI   C4B11476   7.484  16.256   8.094 -0.2229  0.0887  0.1432
  760loPI    C111477   8.152   8.031   5.799 -0.0689  0.3040 -0.1720
  760loPI    C211478   8.466   8.209   5.628  0.1175 -0.0976 -0.2615
  760loPI    C311479   8.218   7.986   5.407 -0.0654 -0.0203 -0.1373
  760loPI   PO411480   8.183   8.004   6.052 -0.0694  0.1600 -0.0666
  760loPI   GL111481   8.111   7.829   6.532  0.1102  0.0095  0.0377
  760loPI   GL211482   8.504   7.918   6.449  0.1923 -0.3552 -0.5815
  760loPI   C1A11483   7.924   7.937   6.943 -0.2201 -0.0276 -0.0143
  760loPI   C2A11484   7.876   7.930   7.441  0.0547 -0.0375  0.3040
  760loPI   C3A11485   7.981   8.027   7.911  0.0319 -0.3390 -0.3708
  760loPI   C4A11486   8.026   8.104   8.354 -0.1678 -0.0755 -0.1372
  760loPI   C5A11487   8.482   8.212   8.496  0.0757  0.1244  0.0405
  760loPI   C6A11488   8.700   8.357   8.853  0.0674  0.5434  0.1767
  760loPI   C1B11489   8.409   8.041   6.850 -0.1983 -0.0859  0.0334
  760loPI   C2B11490   8.301   8.180   7.272 -0.1830  0.1646 -0.0051
  760loPI   C3B11491   8.472   8.093   7.612  0.0427  0.1314 -0.2855
  760loPI   C4B11492   8.491   8.122   8.026  0.2343 -0.1212 -0.0667
  761loPI    C111493  11.365  12.548   5.458  0.0868 -0.1790  0.1490
  761loPI    C211494  10.973  12.624   5.489  0.0819 -0.1236 -0.0408
  761loPI    C311495  11.156  12.653   5.134  0.2563 -0.1596  0.0448
  761loPI   PO411496  11.408  12.525   5.695 -0.0325 -0.1583  0.1644
  761loPI   GL111497  11.747  12.403   6.174 -0.2347  0.3048 -0.0822
  761loPI   GL211498  11.452  12.508   6.207  0.0533 -0.5447  0.0517
  761loPI   C1A11499  11.771  12.595   6.622  0.0137  0.0043 -0.0031
  761loPI   C2A11500  11.705  12.532   7.016 -0.2148 -0.1302 -0.0948
  761loPI   C3A11501  11.781  12.585   7.390 -0.1530 -0.0662  0.5325
  761loPI   C4A11502  11.728  12.589   7.810 -0.1840 -0.1179  0.1401
  761loPI   C5A11503  11.822  12.446   8.127 -0.2398  0.0142 -0.0743
  761loPI   C6A11504  11.909  12.238   8.361  0.2120  0.0938  0.0787
  761loPI   C1B11505  11.194  12.473   6.522  0.1089 -0.2339 -0.1442
  761loPI   C2B11506  11.196  12.403   6.912 -0.0253 -0.0700 -0.1866
  761loPI   C3B11507  11.253  12.503   7.301 -0.1742 -0.1660 -0.2468
  761loPI   C4B11508  11.222  12.500   7.743  0.2638  0.0593  0.2302
  762loPI    C111509   5.445  14.871   5.905 -0.1715  0.3861  0.1227
  762loPI    C211510   5.528  14.871   5.513 -0.0798 -0.2201  0.1313
  762loPI    C311511   5.148  14.892   5.637 -0.0968  0.2065  0.0235
  762loPI   PO411512   5.555  14.663   6.118  0.0801  0.0964 -0.2091
  762loPI   GL111513   5.697  14.607   6.489  0.3541  0.3302  0.1517
  762loPI   GL211514   5.768  14.868   6.483  0.0722  0.3214 -0.2992
  762loPI   C1A11515   5.560  14.473   6.988  0.2525  0.1888 -0.1566
  762loPI   C2A11516   5.602  14.402   7.451  0.1258  0.3180 -0.1327
  762loPI   C3A11517   5.643  14.309   7.828 -0.2015  0.0810 -0.1110
  762loPI   C4A11518   5.674  14.082   8.136 -0.3371 -0.1869  0.0925
  762loPI   C5A11519   5.541  13.681   8.428 -0.0154 -0.0132  0.0435
  762loPI   C6A11520   5.563  13.564   8.835  0.1583  0.3821  0.0697
  762loPI   C1B11521   5.827  14.969   6.910  0.1298 -0.1156 -0.1573
  762loPI   C2B11522   5.733  14.825   7.283  0.2647 -0.2886 -0.3271
  762loPI   C3B11523   5.776  14.851   7.753 -0.1151  0.1388 -0.0609
  762loPI   C4B11524   5.841  14.699   8.162  0.0435 -0.1269  0.0399
  763loPI    C111525   7.938  10.160   6.009 -0.1026  0.3118 -0.1350
  763loPI    C211526   8.161  10.291   5.704 -0.1519  0.1050 -0.2626
  763loPI    C311527   7.898   9.995   5.646 -0.2027  0.1028 -0.0312
  763loPI   PO411528   7.856  10.375   6.142  0.2430  0.2536  0.0183
  763loPI   GL111529   7.738  10.456   6.471 -0.4564 -0.1265 -0.0896
  763loPI   GL211530   7.891  10.064   6.542 -0.3904 -0.0996  0.2676
  763loPI   C1A11531   7.639  10.399   6.950 -0.1047  0.2310  0.1521
  763loPI   C2A11532   7.685  10.335   7.365 -0.0879 -0.2464  0.1310
  763loPI   C3A11533   7.635  10.259   7.873 -0.1633 -0.2111 -0.0309
  763loPI   C4A11534   7.733  10.375   8.241  0.0367  0.1839 -0.2314
  763loPI   C5A11535   7.945  10.523   8.585 -0.2462  0.0909 -0.0673
  763loPI   C6A11536   8.226  10.666   8.950 -0.0024  0.1475  0.0103
  763loPI   C1B11537   8.037   9.927   6.925 -0.0416  0.0664 -0.2435
  763loPI   C2B11538   8.057   9.889   7.375  0.3543  0.3431  0.3051
  763loPI   C3B11539   7.995   9.937   7.724  0.3298  0.0451  0.1074
  763loPI   C4B11540   8.001   9.982   8.142  0.3202  0.1368 -0.2719
  764loPI    C111541  10.623   9.824   5.508  0.0107  0.1192 -0.1580
  764loPI    C211542  10.497   9.551   5.245  0.1789  0.0454 -0.1634
  764loPI    C311543  10.596   9.917   5.120  0.2280  0.0203 -0.1987
  764loPI   PO411544  10.513   9.705   5.708 -0.0682  0.4688 -0.2029
  764loPI   GL111545  10.550   9.623   6.133 -0.2310  0.0766  0.0046
  764loPI   GL211546  10.304   9.431   6.125 -0.0342  0.0925 -0.0604
  764loPI   C1A11547  10.436   9.849   6.602  0.0727 -0.0431  0.0558
  764loPI   C2A11548  10.388   9.883   7.018  0.4730  0.1616 -0.0949
  764loPI   C3A11549  10.494   9.934   7.514 -0.1580 -0.1094 -0.1988
  764loPI   C4A11550  10.459   9.926   7.958 -0.0864 -0.2643 -0.0291
  764loPI   C5A11551  10.374   9.614   8.265  0.1816 -0.3987  0.2071
  764loPI   C6A11552  10.095   9.308   8.493 -0.0129 -0.3151 -0.0214
  764loPI   C1B11553  10.218   9.380   6.545  0.2775 -0.4483  0.3486
  764loPI   C2B11554  10.287   9.364   7.014  0.5138 -0.1663  0.0727
  764loPI   C3B11555  10.321   9.486   7.421 -0.3092  0.0705 -0.1032
  764loPI   C4B11556  10.343   9.416   7.849 -0.2005  0.1089  0.0802
  765loPI    C111557  10.995   5.031   5.845 -0.1563 -0.4117 -0.0017
  765loPI    C211558  10.674   5.265   5.887 -0.0866 -0.3275  0.0654
  765loPI    C311559  10.858   5.241   5.533  0.1907  0.0936  0.1737
  765loPI   PO411560  11.100   5.070   6.076  0.1727 -0.0174  0.2070
  765loPI   GL111561  10.892   5.065   6.392  0.2105 -0.0071 -0.2695
  765loPI   GL211562  10.566   5.264   6.430  0.1783  0.1612 -0.0632
  765loPI   C1A11563  10.979   4.915   6.833  0.0847 -0.2690  0.0344
  765loPI   C2A11564  10.971   4.877   7.305 -0.2319 -0.2787  0.0644
  765loPI   C3A11565  10.957   5.034   7.721  0.0940  0.1101  0.0233
  765loPI   C4A11566  10.942   4.969   8.158  0.0280  0.0276  0.1097
  765loPI   C5A11567  10.655   4.961   8.459 -0.1992 -0.0321 -0.0568
  765loPI   C6A11568  10.298   5.008   8.803  0.0721  0.0738  0.0448
  765loPI   C1B11569  10.586   5.337   6.887  0.3892  0.2132 -0.1159
  765loPI   C2B11570  10.665   5.340   7.401  0.1230  0.1802 -0.2336
  765loPI   C3B11571  10.635   5.401   7.811  0.1149  0.2121  0.1735
  765loPI   C4B11572  10.717   5.436   8.268  0.1656  0.1286  0.1427
  766loPI    C111573  13.469  13.640   5.727  0.1241 -0.0383  0.0989
  766loPI    C211574  13.197  13.827   5.501  0.0590 -0.2497 -0.0001
  766loPI    C311575  13.581  13.822   5.389  0.0548 -0.2086 -0.0167
  766loPI   PO411576  13.399  13.761   5.971  0.2878  0.0403 -0.3063
  766loPI   GL111577  13.481  13.798   6.416  0.2246 -0.0051 -0.0099
  766loPI   GL211578  13.162  13.803   6.456 -0.3054  0.1454  0.5712
  766loPI   C1A11579  13.584  13.964   6.720  0.3522 -0.1766  0.0960
  766loPI   C2A11580  13.647  13.837   7.154  0.2098  0.0086  0.0269
  766loPI   C3A11581  13.565  13.934   7.606 -0.0935  0.2360 -0.1398
  766loPI   C4A11582  13.615  13.864   8.137  0.0741  0.1837  0.0878
  766loPI   C5A11583  13.570  13.949   8.505  0.1469  0.3536  0.0686
  766loPI   C6A11584  13.775  13.855   8.889  0.0788 -0.2896  0.4292
  766loPI   C1B11585  13.130  13.778   6.885 -0.1419 -0.0687 -0.1148
  766loPI   C2B11586  13.112  13.848   7.353 -0.1154  0.1299  0.2943
  766loPI   C3B11587  12.989  13.762   7.717 -0.2767 -0.1476  0.0163
  766loPI   C4B11588  13.131  13.738   8.107  0.1877 -0.1288 -0.5425
  767loPI    C111589  12.622   5.534   5.882 -0.2266 -0.1140  0.0680
  767loPI    C211590  12.613   5.202   5.659  0.1833  0.0293 -0.1755
  767loPI    C311591  12.723   5.549   5.495 -0.1352  0.2693  0.1027
  767loPI   PO411592  12.374   5.630   6.056 -0.0863  0.0662  0.0732
  767loPI   GL111593  12.105   5.943   6.368 -0.2417  0.0853 -0.2371
  767loPI   GL211594  12.171   6.200   6.499 -0.2589  0.1066 -0.0520
  767loPI   C1A11595  12.071   5.793   6.751 -0.0785  0.1909 -0.0279
  767loPI   C2A11596  12.054   5.757   7.188  0.0097  0.0351  0.0028
  767loPI   C3A11597  12.199   5.675   7.576 -0.3887  0.2233 -0.0116
  767loPI   C4A11598  12.158   5.719   8.008  0.0530  0.2857 -0.0034
  767loPI   C5A11599  12.147   5.732   8.436  0.0647  0.2460 -0.0749
  767loPI   C6A11600  11.973   5.849   8.822 -0.0346  0.4895 -0.0167
  767loPI   C1B11601  12.157   6.233   6.861 -0.2917 -0.1768  0.0593
  767loPI   C2B11602  12.157   6.218   7.279  0.0590  0.1045 -0.0187
  767loPI   C3B11603  12.414   6.188   7.777  0.4198 -0.2607  0.2148
  767loPI   C4B11604  12.281   6.193   8.139 -0.1389  0.2268  0.0342
  768loPI    C111605  11.593  15.550   5.769 -0.1906 -0.1177  0.2302
  768loPI    C211606  11.846  15.777   5.557 -0.1519 -0.0405  0.3581
  768loPI    C311607  11.724  15.424   5.412 -0.1480  0.0244  0.1950
  768loPI   PO411608  11.627  15.592   5.973 -0.1965 -0.2109  0.1497
  768loPI   GL111609  11.643  15.772   6.306 -0.1286  0.0339  0.1177
  768loPI   GL211610  11.373  15.649   6.458  0.0660 -0.0976 -0.2861
  768loPI   C1A11611  11.789  15.799   6.680 -0.0940  0.0547  0.2466
  768loPI   C2A11612  11.761  15.789   7.172  0.0907  0.0231 -0.0862
  768loPI   C3A11613  11.735  15.852   7.591  0.0212 -0.0991 -0.0673
  768loPI   C4A11614  11.703  15.773   8.083 -0.1472 -0.0689  0.0612
  768loPI   C5A11615  11.493  15.381   8.287 -0.0096 -0.0951 -0.1953
  768loPI   C6A11616  11.391  15.077   8.650  0.0631  0.1521 -0.0782
  768loPI   C1B11617  11.320  15.554   6.828 -0.2949  0.1073 -0.5333
  768loPI   C2B11618  11.252  15.659   7.270 -0.1560 -0.0807  0.2758
  768loPI   C3B11619  11.299  15.676   7.785  0.1484 -0.0921 -0.1813
  768loPI   C4B11620  11.135  15.716   8.094 -0.0553  0.1359 -0.1157
  769loPI    C111621   5.973   2.551   5.987 -0.0737  0.1387  0.0973
  769loPI    C211622   5.811   2.422   5.645  0.1829 -0.2473  0.1155
  769loPI    C311623   6.135   2.656   5.637  0.0177 -0.0156  0.0927
  769loPI   PO411624   5.982   2.331   6.123  0.2239 -0.1850 -0.2212
  769loPI   GL111625   6.052   2.363   6.517  0.0005  0.0727  0.0320
  769loPI   GL211626   5.715   2.488   6.534  0.1536  0.1639 -0.0405
  769loPI   C1A11627   6.058   2.387   6.992 -0.4181 -0.2410  0.0825
  769loPI   C2A11628   5.986   2.433   7.405  0.0732  0.2089 -0.1262
  769loPI   C3A11629   5.958   2.330   7.783  0.2596 -0.1183 -0.0405
  769loPI   C4A11630   5.863   2.230   8.202 -0.0339  0.4057  0.0961
  769loPI   C5A11631   5.632   2.275   8.630 -0.0771  0.1981  0.3075
  769loPI   C6A11632   5.402   2.637   8.650  0.2363 -0.1468 -0.1891
  769loPI   C1B11633   5.641   2.585   6.975  0.1849  0.0720 -0.1153
  769loPI   C2B11634   5.553   2.714   7.373  0.0343  0.0484 -0.0100
  769loPI   C3B11635   5.512   2.667   7.772 -0.0368 -0.3779 -0.0815
  769loPI   C4B11636   5.427   2.610   8.194 -0.1288  0.1203  0.2705
  770loPI    C111637   6.403   6.700   5.897 -0.0275  0.0105 -0.1848
  770loPI    C211638   6.109   6.732   5.629 -0.0394 -0.3748 -0.2227
  770loPI    C311639   6.489   6.781   5.515 -0.0638 -0.2396 -0.2476
  770loPI   PO411640   6.420   6.387   5.969  0.0544 -0.0911 -0.0107
  770loPI   GL111641   6.359   6.373   6.363 -0.1541  0.0160 -0.2233
  770loPI   GL211642   6.191   6.535   6.636 -0.1302  0.0408 -0.0438
  770loPI   C1A11643   6.563   6.189   6.770 -0.0589  0.3581  0.2349
  770loPI   C2A11644   6.634   6.277   7.239  0.0360 -0.0373 -0.1093
  770loPI   C3A11645   6.620   6.252   7.654 -0.3943 -0.0979 -0.0403
  770loPI   C4A11646   6.554   6.182   8.145  0.2621  0.0284 -0.0696
  770loPI   C5A11647   6.236   6.266   8.560 -0.2518  0.0993 -0.2217
  770loPI   C6A11648   6.048   6.587   8.918 -0.1076  0.1713 -0.3806
  770loPI   C1B11649   6.225   6.497   7.159  0.1430  0.0372 -0.1391
  770loPI   C2B11650   6.204   6.683   7.532 -0.1208  0.1852  0.2396
  770loPI   C3B11651   6.187   6.505   7.988 -0.0193 -0.2686  0.1842
  770loPI   C4B11652   5.975   6.737   8.354 -0.0979 -0.0929  0.1001
  771loPI    C111653   4.181  13.682   5.845 -0.2183  0.0627  0.1433
  771loPI    C211654   4.073  13.495   5.509  0.1218  0.0721  0.0244
  771loPI    C311655   4.398  13.727   5.512  0.0380  0.1900  0.3242
  771loPI   PO411656   4.179  13.593   6.004  0.0156  0.2115 -0.0021
  771loPI   GL111657   4.291  13.511   6.428  0.1270  0.0068 -0.1470
  771loPI   GL211658   4.158  13.922   6.472 -0.0008 -0.0630 -0.1875
  771loPI   C1A11659   4.398  13.636   6.831 -0.2816  0.0787  0.0067
  771loPI   C2A11660   4.377  13.681   7.217 -0.1743  0.0928 -0.4215
  771loPI   C3A11661   4.500  13.541   7.655  0.2024 -0.1347  0.1207
  771loPI   C4A11662   4.445  13.516   8.153  0.0002  0.2546  0.3314
  771loPI   C5A11663   4.260  13.406   8.482  0.3027  0.0339  0.1070
  771loPI   C6A11664   4.358  13.334   8.799 -0.1813  0.1904  0.0555
  771loPI   C1B11665   4.116  14.024   6.994 -0.3053  0.0411 -0.0662
  771loPI   C2B11666   3.993  13.955   7.425  0.0985  0.1414  0.1112
  771loPI   C3B11667   4.136  13.808   7.807  0.2620 -0.2037  0.0771
  771loPI   C4B11668   4.072  13.818   8.278  0.0325  0.0706  0.0462
  772loPI    C111669  11.220   1.847   5.984  0.0700  0.1283  0.2123
  772loPI    C211670  10.900   1.891   5.747  0.1424 -0.2319  0.0413
  772loPI    C311671  11.221   2.124   5.695  0.0176 -0.0610  0.0281
  772loPI   PO411672  11.094   1.817   6.237 -0.0205  0.0814  0.1130
  772loPI   GL111673  11.056   1.609   6.608  0.0594 -0.0021  0.0818
  772loPI   GL211674  11.410   1.605   6.708  0.0294 -0.0418 -0.3750
  772loPI   C1A11675  11.040   1.746   6.999 -0.2230  0.3365  0.0783
  772loPI   C2A11676  10.979   1.664   7.498 -0.0382 -0.0887  0.3029
  772loPI   C3A11677  10.807   1.737   7.853  0.2481  0.0285 -0.1348
  772loPI   C4A11678  10.815   1.689   8.322 -0.2447  0.2882  0.0205
  772loPI   C5A11679  10.741   1.637   8.750 -0.0291  0.0119  0.0812
  772loPI   C6A11680  10.631   1.459   9.045 -0.0392 -0.0303  0.0954
  772loPI   C1B11681  11.556   1.829   7.039  0.2033  0.1054  0.2284
  772loPI   C2B11682  11.414   1.916   7.376 -0.1195 -0.2401 -0.3665
  772loPI   C3B11683  11.326   1.884   7.818 -0.0423  0.2454  0.0840
  772loPI   C4B11684  11.276   1.777   8.241  0.0625 -0.3705  0.0539
  773loPI    C111685  10.418   2.154   5.702 -0.0922 -0.0085  0.0059
  773loPI    C211686  10.315   2.088   5.322 -0.1333  0.1959 -0.0197
  773loPI    C311687  10.681   2.223   5.409 -0.1112  0.1131  0.0169
  773loPI   PO411688  10.210   2.130   5.869 -0.0932 -0.0409 -0.1976
  773loPI   GL111689  10.243   2.019   6.379  0.0977  0.2172  0.0123
  773loPI   GL211690   9.954   2.151   6.415  0.0540  0.1361 -0.5162
  773loPI   C1A11691  10.176   1.902   6.864 -0.0646 -0.0279  0.0927
  773loPI   C2A11692  10.126   1.936   7.304 -0.3670  0.0570  0.1807
  773loPI   C3A11693  10.093   1.913   7.685 -0.1331  0.0863  0.0628
  773loPI   C4A11694   9.857   2.066   8.005  0.2911  0.0396  0.4402
  773loPI   C5A11695   9.799   1.813   8.411  0.3686  0.1313 -0.0920
  773loPI   C6A11696   9.858   1.595   8.811  0.2166 -0.1932 -0.2350
  773loPI   C1B11697   9.781   2.250   6.750 -0.0095  0.2573  0.1532
  773loPI   C2B11698   9.762   2.356   7.191 -0.1803  0.2076  0.2175
  773loPI   C3B11699   9.614   2.396   7.575  0.0109  0.0656 -0.0215
  773loPI   C4B11700   9.618   2.504   8.083 -0.0484 -0.0698 -0.1509
  774loPI    C111701  15.503   7.656   5.699  0.0038  0.0864  0.1767
  774loPI    C211702  15.592   7.966   5.462  0.0149  0.1081  0.2092
  774loPI    C311703  15.383   7.658   5.317  0.1958  0.0280  0.1149
  774loPI   PO411704  15.653   7.605   5.946 -0.0327 -0.0712  0.1193
  774loPI   GL111705  15.462   7.546   6.338 -0.0374 -0.5010  0.1142
  774loPI   GL211706  15.542   7.913   6.416 -0.0326  0.3045 -0.1282
  774loPI   C1A11707  15.417   7.424   6.766  0.0730 -0.2069  0.0814
  774loPI   C2A11708  15.500   7.380   7.200  0.1284 -0.1336  0.1387
  774loPI   C3A11709  15.536   7.433   7.738 -0.2543 -0.0679  0.1056
  774loPI   C4A11710  15.561   7.450   8.187 -0.0500 -0.0510  0.4006
  774loPI   C5A11711  15.648   7.470   8.612 -0.3993 -0.1452  0.0426
  774loPI   C6A11712  15.745   7.771   8.992 -0.0829  0.0899  0.2152
  774loPI   C1B11713  15.660   7.879   6.797  0.1210  0.2360 -0.0588
  774loPI   C2B11714  15.684   7.953   7.228  0.1959 -0.2045  0.0562
  774loPI   C3B11715  15.685   7.896   7.616  0.0748  0.0630 -0.4129
  774loPI   C4B11716  15.583   7.973   8.066 -0.2059 -0.0315 -0.1709
  775loPI    C111717  15.750   0.194   5.297 -0.1882  0.1140  0.1408
  775loPI    C211718  15.601  -0.097   5.066  0.1423  0.0099  0.0529
  775loPI    C311719  15.510   0.285   4.990 -0.2607 -0.0627  0.1433
  775loPI   PO411720  15.660   0.167   5.506  0.1831  0.1024  0.3251
  775loPI   GL111721  15.707   0.199   5.920  0.0942 -0.1005 -0.2555
  775loPI   GL211722  15.732  -0.092   6.032  0.0848  0.2832 -0.0472
  775loPI   C1A11723  15.472   0.248   6.286 -0.1665 -0.0141 -0.0044
  775loPI   C2A11724  15.335   0.385   6.736 -0.0331 -0.1087  0.1298
  775loPI   C3A11725  15.325   0.418   7.191  0.1861 -0.0489 -0.1441
  775loPI   C4A11726  15.322   0.432   7.568 -0.1663  0.2412 -0.2251
  775loPI   C5A11727  15.231   0.485   8.006  0.0925 -0.0843  0.3484
  775loPI   C6A11728  15.311   0.140   8.361 -0.1619  0.1460 -0.1859
  775loPI   C1B11729  15.563  -0.343   6.399 -0.3992 -0.1523 -0.0848
  775loPI   C2B11730  15.467  -0.484   6.824 -0.0195  0.0560 -0.0825
  775loPI   C3B11731  15.502  -0.419   7.305  0.0239  0.3102 -0.2345
  775loPI   C4B11732  15.517  -0.364   7.718 -0.1917  0.2223 -0.1533
  776loPI    C111733   0.820  12.732   5.783  0.1627 -0.1790  0.0544
  776loPI    C211734   1.088  12.802   5.495  0.0176 -0.2897 -0.1092
  776loPI    C311735   0.927  12.438   5.535 -0.1493 -0.2103 -0.0472
  776loPI   PO411736   0.986  12.833   6.021  0.2391 -0.1351 -0.2085
  776loPI   GL111737   1.033  13.085   6.384 -0.1589  0.0208  0.0208
  776loPI   GL211738   1.240  13.337   6.503  0.0941 -0.0638 -0.2565
  776loPI   C1A11739   0.878  13.212   6.874 -0.1576 -0.1857  0.1080
  776loPI   C2A11740   1.033  13.270   7.299  0.2793  0.4131  0.3137
  776loPI   C3A11741   1.009  13.250   7.750  0.0129 -0.1914 -0.0987
  776loPI   C4A11742   0.973  13.362   8.114 -0.3176  0.5135  0.0517
  776loPI   C5A11743   0.799  13.397   8.479  0.0697  0.1248 -0.2686
  776loPI   C6A11744   0.360  13.294   8.649  0.2521  0.1415 -0.0181
  776loPI   C1B11745   1.379  13.411   6.922 -0.3578 -0.0678 -0.0517
  776loPI   C2B11746   1.488  13.474   7.354  0.0576 -0.0348  0.1770
  776loPI   C3B11747   1.493  13.381   7.841 -0.0332  0.0935 -0.2934
  776loPI   C4B11748   1.496  13.381   8.208  0.2344 -0.1040  0.0915
  777loPI    C111749   4.439  14.726   5.734  0.1294 -0.0957  0.0049
  777loPI    C211750   4.660  14.829   5.417  0.0115 -0.0120 -0.0507
  777loPI    C311751   4.361  14.567   5.375 -0.0663  0.0727 -0.0284
  777loPI   PO411752   4.555  14.645   5.923  0.0526  0.1562 -0.0422
  777loPI   GL111753   4.586  14.818   6.290  0.2610 -0.0020  0.4501
  777loPI   GL211754   4.429  15.138   6.344  0.0031  0.0418  0.1323
  777loPI   C1A11755   4.709  14.643   6.682  0.0023  0.2684  0.0344
  777loPI   C2A11756   4.772  14.707   7.047 -0.0450  0.0962  0.0147
  777loPI   C3A11757   4.708  14.657   7.459  0.1034 -0.0129  0.1610
  777loPI   C4A11758   4.661  14.558   7.883  0.0978 -0.0753  0.1138
  777loPI   C5A11759   4.801  14.430   8.220 -0.0588  0.1418  0.3531
  777loPI   C6A11760   4.793  14.236   8.584 -0.0747  0.2880 -0.3667
  777loPI   C1B11761   4.408  15.037   6.731  0.0514  0.3950 -0.0287
  777loPI   C2B11762   4.392  15.026   7.224  0.4408 -0.2071  0.0903
  777loPI   C3B11763   4.383  14.967   7.695  0.2125 -0.1182 -0.2650
  777loPI   C4B11764   4.297  14.934   8.110 -0.0873  0.0422  0.3675
  778loPI    C111765  15.310   6.331   5.791 -0.0783  0.2636  0.1986
  778loPI    C211766  14.936   6.429   5.691 -0.1692 -0.1894  0.0703
  778loPI    C311767  15.171   6.244   5.426  0.1174  0.0087  0.1817
  778loPI   PO411768  15.344   6.166   6.044 -0.0017 -0.0025 -0.0274
  778loPI   GL111769  15.453   6.253   6.436  0.0591  0.0898 -0.0737
  778loPI   GL211770  15.460   6.573   6.392  0.1183 -0.2530  0.0244
  778loPI   C1A11771  15.533   6.152   6.860 -0.0763 -0.0632 -0.1858
  778loPI   C2A11772  15.572   6.023   7.272 -0.0482  0.2973 -0.2395
  778loPI   C3A11773  15.608   5.976   7.698  0.0702  0.0659 -0.1072
  778loPI   C4A11774  15.618   6.091   8.073  0.0911 -0.0995 -0.0658
  778loPI   C5A11775  15.518   5.915   8.482 -0.0866  0.2014  0.2707
  778loPI   C6A11776  15.421   5.512   8.607  0.2107  0.0536  0.1458
  778loPI   C1B11777  15.581   6.636   6.794  0.2152 -0.0274  0.0484
  778loPI   C2B11778  15.788   6.509   7.219 -0.1078 -0.1176  0.0443
  778loPI   C3B11779  15.760   6.575   7.641 -0.2116  0.1643  0.1370
  778loPI   C4B11780  15.650   6.620   8.016  0.0087 -0.0479  0.0291
  779loPI    C111781   5.079  13.830   5.779 -0.1672 -0.0909  0.0471
  779loPI    C211782   4.897  13.910   5.431  0.1117 -0.1518 -0.1162
  779loPI    C311783   4.907  13.535   5.571 -0.0377 -0.1205 -0.0191
  779loPI   PO411784   5.033  14.000   5.947 -0.0471  0.1100  0.1810
  779loPI   GL111785   4.922  14.128   6.355  0.0427  0.0833  0.2636
  779loPI   GL211786   4.691  14.266   6.345  0.1049  0.0824  0.0172
  779loPI   C1A11787   4.958  13.864   6.697  0.0843  0.0093 -0.0053
  779loPI   C2A11788   4.861  13.824   7.075 -0.0829 -0.0311  0.0761
  779loPI   C3A11789   4.997  13.668   7.480 -0.2231 -0.1006 -0.1810
  779loPI   C4A11790   4.966  13.726   7.882 -0.3280  0.1189 -0.2610
  779loPI   C5A11791   4.858  13.646   8.304 -0.0163  0.0212 -0.0371
  779loPI   C6A11792   4.505  13.806   8.638  0.1360  0.5199  0.0896
  779loPI   C1B11793   4.608  14.167   6.801 -0.0009 -0.0427 -0.2221
  779loPI   C2B11794   4.599  14.229   7.255 -0.4044  0.1740 -0.2721
  779loPI   C3B11795   4.742  14.100   7.671  0.0245  0.1494 -0.1334
  779loPI   C4B11796   4.551  14.008   8.073  0.2985 -0.1256 -0.2765
  780loPI    C111797   9.666   0.448   5.827 -0.1571  0.0986 -0.0314
  780loPI    C211798   9.753   0.136   5.592 -0.1020  0.1095 -0.0255
  780loPI    C311799   9.441   0.117   5.841 -0.1498  0.0912 -0.0865
  780loPI   PO411800   9.808   0.556   5.991 -0.2002 -0.3737 -0.1351
  780loPI   GL111801   9.997   0.573   6.440  0.0502  0.2720  0.2004
  780loPI   GL211802  10.263   0.557   6.561  0.0249 -0.1077 -0.1660
  780loPI   C1A11803   9.733   0.430   6.747  0.3559  0.2125 -0.1410
  780loPI   C2A11804   9.728   0.459   7.198  0.0198  0.0493  0.3571
  780loPI   C3A11805   9.598   0.364   7.598 -0.3487 -0.1132  0.1820
  780loPI   C4A11806   9.398   0.417   8.104  0.1128 -0.0676  0.0386
  780loPI   C5A11807   9.557   0.238   8.540 -0.6110  0.4859 -0.2716
  780loPI   C6A11808   9.503   0.157   9.026 -0.2437  0.0357 -0.0096
  780loPI   C1B11809  10.222   0.570   6.951 -0.1131 -0.1534 -0.3896
  780loPI   C2B11810  10.232   0.514   7.380 -0.0228 -0.0167  0.1193
  780loPI   C3B11811  10.022   0.501   7.834 -0.0572 -0.0498 -0.0546
  780loPI   C4B11812   9.846   0.446   8.221 -0.1089  0.0377  0.0648
  781loPI    C111813  12.141   4.501   5.841 -0.1337 -0.0574  0.0469
  781loPI    C211814  11.957   4.409   5.498  0.1925 -0.1308 -0.1126
  781loPI    C311815  12.301   4.229   5.595  0.2689  0.1230  0.1005
  781loPI   PO411816  11.909   4.498   5.989  0.0721 -0.2217 -0.1982
  781loPI   GL111817  11.877   4.575   6.414  0.1326  0.0272  0.3594
  781loPI   GL211818  11.905   4.989   6.425 -0.0462  0.0729 -0.1125
  781loPI   C1A11819  11.888   4.680   6.863  0.1322 -0.0499  0.1460
  781loPI   C2A11820  11.918   4.749   7.312 -0.0149 -0.0563 -0.1774
  781loPI   C3A11821  11.804   4.651   7.725  0.0043  0.3302 -0.0149
  781loPI   C4A11822  11.931   4.699   8.130 -0.0833 -0.0275  0.2461
  781loPI   C5A11823  12.051   4.592   8.569 -0.0195 -0.0679 -0.0642
  781loPI   C6A11824  12.409   4.501   8.736 -0.0096  0.0249  0.3313
  781loPI   C1B11825  11.961   5.193   6.823  0.0585 -0.0878 -0.0755
  781loPI   C2B11826  11.893   5.289   7.302  0.0441 -0.1352 -0.1617
  781loPI   C3B11827  12.005   5.194   7.779 -0.0032 -0.1057  0.1141
  781loPI   C4B11828  12.056   5.272   8.190  0.0304  0.1119 -0.2617
  782loPI    C111829   2.609  14.878   5.551  0.1460  0.2560 -0.1899
  782loPI    C211830   2.225  14.957   5.630  0.1656  0.0717  0.1078
  782loPI    C311831   2.321  14.724   5.320  0.0509  0.2892 -0.0947
  782loPI   PO411832   2.730  14.985   5.827 -0.0619 -0.0472  0.2227
  782loPI   GL111833   2.570  15.158   6.191  0.0231  0.1009  0.1457
  782loPI   GL211834   2.450  14.983   6.398 -0.0439  0.2326 -0.1721
  782loPI   C1A11835   2.664  15.406   6.556 -0.1462  0.0535  0.1995
  782loPI   C2A11836   2.551  15.505   6.891 -0.3602  0.0499  0.3297
  782loPI   C3A11837   2.590  15.440   7.258 -0.0302  0.1520 -0.2937
  782loPI   C4A11838   2.680  15.472   7.545 -0.2053  0.3111 -0.0517
  782loPI   C5A11839   2.704  15.448   7.932  0.1684  0.2342  0.1215
  782loPI   C6A11840   2.845  15.592   8.365 -0.0126  0.1646 -0.0584
  782loPI   C1B11841   2.433  14.958   6.877 -0.0350 -0.0439  0.1374
  782loPI   C2B11842   2.481  14.985   7.313 -0.0271 -0.1226 -0.5473
  782loPI   C3B11843   2.466  15.001   7.761  0.1339  0.1454 -0.0484
  782loPI   C4B11844   2.528  15.036   8.258 -0.3032 -0.1599  0.2096
  783loPI    C111845  17.258  17.015   5.510 -0.0728  0.0021 -0.1302
  783loPI    C211846  17.248  17.405   5.423  0.2624  0.0340 -0.0399
  783loPI    C311847  17.304  17.137   5.132  0.2199  0.0657 -0.0772
  783loPI   PO411848  17.417  17.087   5.760 -0.1536  0.0939 -0.0053
  783loPI   GL111849  17.509  17.058   6.175 -0.0510 -0.1022 -0.0247
  783loPI   GL211850  17.514  16.716   6.158  0.1067  0.1751  0.0762
  783loPI   C1A11851  17.539  17.056   6.628 -0.0828  0.2126 -0.1105
  783loPI   C2A11852  17.464  17.094   7.058  0.2291 -0.1135  0.0909
  783loPI   C3A11853  17.407  17.185   7.492  0.0538 -0.0903 -0.1890
  783loPI   C4A11854  17.368  17.125   7.861  0.1970 -0.1631  0.2132
  783loPI   C5A11855  17.218  17.339   8.193  0.1686  0.2586 -0.1768
  783loPI   C6A11856  16.877  17.639   8.343 -0.0384  0.1660 -0.2549
  783loPI   C1B11857  17.252  16.558   6.506 -0.3207  0.1744  0.2265
  783loPI   C2B11858  17.239  16.622   7.025 -0.1865 -0.1312  0.1649
  783loPI   C3B11859  17.217  16.681   7.418  0.0108 -0.0757  0.2153
  783loPI   C4B11860  17.148  16.677   7.704 -0.1091  0.1601  0.0919
  784loPI    C111861  12.317  14.861   5.537  0.2537  0.1774 -0.0845
  784loPI    C211862  11.946  14.953   5.419  0.1879  0.0074 -0.0129
  784loPI    C311863  12.080  14.577   5.385  0.2596  0.0114  0.2083
  784loPI   PO411864  12.361  14.926   5.777  0.1300  0.0824 -0.2627
  784loPI   GL111865  12.283  14.685   6.183  0.0059  0.1632  0.1231
  784loPI   GL211866  12.004  14.949   6.353  0.1480 -0.0473 -0.0927
  784loPI   C1A11867  12.375  14.509   6.533 -0.2086 -0.2780 -0.0692
  784loPI   C2A11868  12.414  14.559   6.939  0.1887 -0.0898 -0.2517
  784loPI   C3A11869  12.382  14.571   7.356 -0.0789 -0.0413 -0.1671
  784loPI   C4A11870  12.322  14.502   7.838 -0.0938 -0.0432  0.1705
  784loPI   C5A11871  12.061  14.608   8.232 -0.0268  0.0434 -0.1046
  784loPI   C6A11872  11.836  14.947   8.360  0.2578 -0.1804  0.0437
  784loPI   C1B11873  11.979  14.985   6.773 -0.1546  0.1006 -0.0234
  784loPI   C2B11874  12.090  14.972   7.203 -0.0764  0.0082  0.1280
  784loPI   C3B11875  12.024  15.005   7.552  0.0458  0.3602  0.1924
  784loPI   C4B11876  11.928  14.901   7.870 -0.0166 -0.1056  0.2266
  785loPI    C111877  12.349   8.798   5.799 -0.0032  0.0814 -0.1074
  785loPI    C211878  12.053   8.634   5.585 -0.0283  0.0755 -0.0680
  785loPI    C311879  12.007   8.998   5.746 -0.0108  0.0783 -0.0694
  785loPI   PO411880  12.446   8.659   5.964  0.4821  0.0573 -0.0591
  785loPI   GL111881  12.560   8.605   6.415 -0.0331  0.0300 -0.2699
  785loPI   GL211882  12.493   8.948   6.479 -0.0791 -0.0956  0.1294
  785loPI   C1A11883  12.443   8.515   6.838 -0.1307 -0.1038  0.0603
  785loPI   C2A11884  12.436   8.600   7.206  0.2586 -0.3200 -0.0503
  785loPI   C3A11885  12.533   8.573   7.641  0.2381 -0.0459  0.5970
  785loPI   C4A11886  12.484   8.482   8.026 -0.0641  0.1866 -0.0974
  785loPI   C5A11887  12.528   8.539   8.328 -0.0418 -0.2822 -0.1330
  785loPI   C6A11888  12.225   8.517   8.715  0.3355 -0.0525  0.0671
  785loPI   C1B11889  12.433   9.043   6.836 -0.1207  0.1783  0.2614
  785loPI   C2B11890  12.518   9.059   7.322 -0.1314 -0.0773 -0.0267
  785loPI   C3B11891  12.571   9.018   7.893  0.0232  0.0596  0.1758
  785loPI   C4B11892  12.911   8.684   8.035 -0.2467  0.0957 -0.1590
  786loPI    C111893  10.557  13.774   5.358 -0.0245 -0.1018  0.0531
  786loPI    C211894  10.264  13.612   5.139 -0.0223  0.0873 -0.0921
  786loPI    C311895  10.643  13.590   5.014  0.0021  0.0244 -0.0083
  786loPI   PO411896  10.415  13.689   5.674 -0.4322 -0.0877 -0.1160
  786loPI   GL111897  10.468  13.456   6.114  0.1969  0.3645 -0.2632
  786loPI   GL211898  10.254  13.099   6.225 -0.0202  0.2650  0.0348
  786loPI   C1A11899  10.524  13.561   6.455  0.1338 -0.0120 -0.1636
  786loPI   C2A11900  10.581  13.672   6.896  0.1690  0.2387  0.2716
  786loPI   C3A11901  10.716  13.614   7.253 -0.3142  0.0165 -0.0575
  786loPI   C4A11902  10.715  13.765   7.685 -0.0384  0.5033 -0.0499
  786loPI   C5A11903  10.653  13.732   8.150  0.0112 -0.2933  0.2302
  786loPI   C6A11904  10.674  14.069   8.383  0.2303 -0.1674 -0.1652
  786loPI   C1B11905  10.178  13.156   6.694  0.2429  0.0566  0.0135
  786loPI   C2B11906  10.427  13.182   7.036 -0.2443  0.1019  0.2078
  786loPI   C3B11907  10.455  13.150   7.445 -0.3700 -0.3099 -0.0563
  786loPI   C4B11908  10.391  13.204   7.875 -0.1187  0.1075  0.3239
  787loPI    C111909   6.665  14.225   5.938  0.0619 -0.0824 -0.2500
  787loPI    C211910   6.786  14.451   5.631  0.1137 -0.0894 -0.2350
  787loPI    C311911   6.624  14.091   5.564  0.0226 -0.0443 -0.2595
  787loPI   PO411912   6.640  14.440   6.157  0.2655  0.1765 -0.0516
  787loPI   GL111913   6.371  14.353   6.498  0.0834  0.2150  0.4476
  787loPI   GL211914   6.103  14.530   6.682 -0.3136 -0.0889 -0.1946
  787loPI   C1A11915   6.350  14.157   6.867  0.0379  0.0145 -0.0694
  787loPI   C2A11916   6.415  14.106   7.337  0.2300  0.0518  0.1160
  787loPI   C3A11917   6.554  14.094   7.821 -0.0503  0.0805  0.0722
  787loPI   C4A11918   6.683  14.133   8.199 -0.0953  0.0466  0.0637
  787loPI   C5A11919   6.829  14.049   8.622 -0.0020  0.0894  0.0966
  787loPI   C6A11920   7.100  13.941   8.915 -0.1301 -0.1500 -0.2799
  787loPI   C1B11921   6.002  14.407   7.188 -0.1046 -0.1177 -0.0994
  787loPI   C2B11922   6.109  14.495   7.653  0.1637  0.2169  0.0330
  787loPI   C3B11923   6.145  14.342   8.051  0.1310 -0.0929  0.1230
  787loPI   C4B11924   6.246  13.919   8.230  0.4037 -0.1843 -0.1545
  788loPI    C111925   5.976  11.956   5.922 -0.0109 -0.0455  0.0980
  788loPI    C211926   5.926  11.561   5.883 -0.0530 -0.0367  0.0624
  788loPI    C311927   5.794  11.809   5.598  0.1827 -0.0126 -0.0276
  788loPI   PO411928   5.923  12.046   6.087  0.1180 -0.1383 -0.1112
  788loPI   GL111929   5.831  12.208   6.481  0.1104 -0.4100 -0.1141
  788loPI   GL211930   5.511  12.398   6.339  0.0653  0.1313  0.1420
  788loPI   C1A11931   5.754  12.208   6.884  0.0593 -0.0119 -0.3067
  788loPI   C2A11932   5.980  12.207   7.377  0.0142 -0.2899  0.1775
  788loPI   C3A11933   5.981  12.118   7.816 -0.0707  0.2608 -0.0426
  788loPI   C4A11934   5.835  11.948   8.211  0.2006  0.0763  0.2348
  788loPI   C5A11935   5.769  12.218   8.560  0.0950  0.0002 -0.3710
  788loPI   C6A11936   5.650  12.676   8.586  0.0587 -0.0952 -0.1694
  788loPI   C1B11937   5.329  12.498   6.726  0.2383  0.0904 -0.1250
  788loPI   C2B11938   5.411  12.596   7.068  0.0616  0.1452  0.2266
  788loPI   C3B11939   5.592  12.520   7.478 -0.3012 -0.0200  0.0927
  788loPI   C4B11940   5.588  12.430   7.922 -0.2587 -0.0855 -0.1851
  789loPI    C111941   5.907  17.506   5.752 -0.2794 -0.0147  0.1021
  789loPI    C211942   6.207  17.585   5.499 -0.1174  0.2720  0.3767
  789loPI    C311943   5.828  17.618   5.376 -0.0403  0.1741  0.1060
  789loPI   PO411944   6.057  17.479   6.040  0.0585 -0.1979 -0.0762
  789loPI   GL111945   6.207  17.324   6.477  0.0664  0.0321 -0.0865
  789loPI   GL211946   6.396  17.011   6.513  0.0552 -0.2056  0.1202
  789loPI   C1A11947   6.118  17.227   6.922 -0.3242  0.0708 -0.0583
  789loPI   C2A11948   6.045  17.214   7.424 -0.1111  0.3449 -0.1412
  789loPI   C3A11949   6.044  17.293   7.883 -0.2556  0.2968 -0.1097
  789loPI   C4A11950   6.009  17.334   8.327  0.0079 -0.1810  0.2941
  789loPI   C5A11951   5.795  16.994   8.572  0.1693  0.2740 -0.0422
  789loPI   C6A11952   5.479  16.727   8.822  0.0761 -0.2028  0.2779
  789loPI   C1B11953   6.386  16.841   6.904  0.0242  0.2090  0.0516
  789loPI   C2B11954   6.316  16.840   7.323  0.2781 -0.2399  0.2144
  789loPI   C3B11955   6.387  16.898   7.713 -0.0254  0.0366 -0.4348
  789loPI   C4B11956   6.344  16.958   8.118  0.0988 -0.0901 -0.1943
  790loPI    C111957   8.494  13.510   5.416  0.0263  0.1103  0.0581
  790loPI    C211958   8.761  13.331   5.178 -0.0443  0.1336 -0.0391
  790loPI    C311959   8.381  13.204   5.184  0.0690 -0.2085  0.4458
  790loPI   PO411960   8.641  13.661   5.617 -0.5009  0.2097 -0.0028
  790loPI   GL111961   8.588  13.403   6.069 -0.1522 -0.0021  0.1285
  790loPI   GL211962   8.665  13.693   6.257 -0.2694 -0.4952 -0.2402
  790loPI   C1A11963   8.649  13.210   6.511 -0.1982  0.1624 -0.0391
  790loPI   C2A11964   8.601  13.251   6.986 -0.2241 -0.0637 -0.2787
  790loPI   C3A11965   8.570  13.302   7.430 -0.0071 -0.4439  0.0092
  790loPI   C4A11966   8.734  13.302   7.761 -0.0449  0.1525 -0.0813
  790loPI   C5A11967   8.704  13.310   8.192 -0.0115 -0.0225  0.1688
  790loPI   C6A11968   9.063  13.478   8.536  0.4989  0.3980  0.0561
  790loPI   C1B11969   8.754  13.739   6.816 -0.0785 -0.0963  0.3814
  790loPI   C2B11970   8.765  13.744   7.243  0.1322  0.3480 -0.2573
  790loPI   C3B11971   8.780  13.773   7.667 -0.1520 -0.3847  0.3120
  790loPI   C4B11972   8.851  13.746   8.004 -0.0504  0.0505 -0.0940
  791loPI    C111973   6.989  13.747   5.742  0.0186 -0.0542 -0.2498
  791loPI    C211974   7.010  13.353   5.808  0.1384 -0.0321 -0.1534
  791loPI    C311975   7.213  13.517   5.505  0.1082 -0.0410 -0.1785
  791loPI   PO411976   6.974  13.850   5.971  0.1600 -0.1190  0.1022
  791loPI   GL111977   6.917  13.893   6.339 -0.2245 -0.1764 -0.1302
  791loPI   GL211978   6.878  14.269   6.557  0.0678 -0.3290 -0.0058
  791loPI   C1A11979   6.752  13.820   6.789 -0.1998 -0.1995 -0.1118
  791loPI   C2A11980   6.732  13.746   7.210 -0.2087 -0.0206 -0.2574
  791loPI   C3A11981   6.800  13.611   7.657 -0.1196 -0.0907 -0.0294
  791loPI   C4A11982   6.842  13.678   8.002 -0.2535 -0.1377  0.1370
  791loPI   C5A11983   7.132  13.783   8.203 -0.0281  0.4589  0.1700
  791loPI   C6A11984   7.325  13.750   8.513  0.1915 -0.1852  0.0257
  791loPI   C1B11985   6.807  14.242   7.003  0.2184 -0.2520 -0.0272
  791loPI   C2B11986   6.900  14.164   7.471 -0.1013 -0.0790  0.1049
  791loPI   C3B11987   7.097  14.278   7.908 -0.3232  0.1606  0.1841
  791loPI   C4B11988   7.206  14.258   8.374  0.0690 -0.3007  0.0876
  792loPI    C111989  14.120   5.603   5.709  0.0315 -0.1091  0.1390
  792loPI    C211990  13.944   5.351   5.452 -0.3170  0.2554  0.0092
  792loPI    C311991  14.096   5.697   5.320 -0.0398  0.2172  0.2192
  792loPI   PO411992  13.896   5.713   5.942  0.0369  0.3340 -0.1534
  792loPI   GL111993  13.720   5.753   6.387 -0.1493  0.2510  0.2271
  792loPI   GL211994  13.841   5.440   6.515  0.1788  0.1382  0.0034
  792loPI   C1A11995  13.482   5.740   6.819  0.3281 -0.1846  0.3374
  792loPI   C2A11996  13.513   5.667   7.319 -0.0989 -0.0691 -0.1621
  792loPI   C3A11997  13.578   5.555   7.694 -0.0183 -0.1042  0.0313
  792loPI   C4A11998  13.659   5.505   8.111  0.0783 -0.1548  0.1461
  792loPI   C5A11999  13.461   5.613   8.459 -0.0780  0.3354 -0.0757
  792loPI   C6A12000  13.061   5.790   8.550 -0.1118  0.1120  0.0585
  792loPI   C1B12001  13.730   5.347   6.901  0.0539  0.2162 -0.1010
  792loPI   C2B12002  13.828   5.250   7.310 -0.3345 -0.0426 -0.0000
  792loPI   C3B12003  13.909   5.097   7.648  0.1290 -0.2016 -0.0062
  792loPI   C4B12004  13.970   5.044   8.092 -0.2308  0.1393  0.1229
  793loPI    C112005  15.918   1.892   5.591 -0.0803 -0.3802 -0.1025
  793loPI    C212006  16.132   1.790   5.269 -0.0068  0.1309 -0.2252
  793loPI    C312007  15.759   1.927   5.225 -0.0613  0.0330 -0.0765
  793loPI   PO412008  16.044   1.754   5.761  0.0698 -0.3946  0.0083
  793loPI   GL112009  15.971   1.815   6.252 -0.1716  0.0910  0.0189
  793loPI   GL212010  16.104   1.598   6.449  0.0803  0.0019 -0.0570
  793loPI   C1A12011  15.783   1.906   6.628 -0.1395 -0.0051  0.1946
  793loPI   C2A12012  15.674   1.896   7.044 -0.3790  0.1300  0.2423
  793loPI   C3A12013  15.680   1.865   7.493 -0.3511 -0.1096 -0.3906
  793loPI   C4A12014  15.689   1.827   7.910 -0.0419 -0.1210 -0.2390
  793loPI   C5A12015  15.476   1.982   8.309  0.1209 -0.1894  0.0556
  793loPI   C6A12016  15.368   2.364   8.614 -0.3644 -0.2365  0.0995
  793loPI   C1B12017  16.059   1.560   6.921 -0.1869 -0.0277 -0.1501
  793loPI   C2B12018  16.037   1.577   7.321  0.1695  0.1455  0.0912
  793loPI   C3B12019  16.097   1.576   7.793 -0.1140  0.3103 -0.0322
  793loPI   C4B12020  16.031   1.609   8.255  0.0666 -0.2371 -0.1126
  794loPI    C112021   8.075  16.890   5.608 -0.0775 -0.1517  0.1646
  794loPI    C212022   8.279  16.615   5.401  0.1292  0.0871  0.0455
  794loPI    C312023   7.990  16.827   5.223 -0.0098 -0.0303  0.1291
  794loPI   PO412024   8.029  16.748   5.857 -0.0485  0.0991 -0.2495
  794loPI   GL112025   8.239  16.703   6.341 -0.1485 -0.0121  0.2740
  794loPI   GL212026   8.023  16.939   6.358 -0.0467  0.1096  0.0046
  794loPI   C1A12027   8.321  16.814   6.718  0.2525  0.0071  0.0226
  794loPI   C2A12028   8.242  16.764   7.230  0.2883 -0.0848 -0.0425
  794loPI   C3A12029   8.204  16.850   7.628  0.0677 -0.1572  0.3157
  794loPI   C4A12030   8.219  16.872   8.145  0.1927 -0.1343 -0.2643
  794loPI   C5A12031   8.423  16.978   8.511 -0.3026 -0.0062 -0.3230
  794loPI   C6A12032   8.571  17.078   8.877 -0.3223  0.1614  0.0510
  794loPI   C1B12033   7.843  17.072   6.738 -0.2088  0.1011  0.0669
  794loPI   C2B12034   7.884  17.153   7.202  0.1072 -0.1423  0.0337
  794loPI   C3B12035   7.781  17.183   7.619  0.2225 -0.0854  0.1059
  794loPI   C4B12036   7.900  17.239   7.952  0.1633  0.0353  0.1493
  795loPI    C112037   0.494  12.396   5.614  0.0973  0.0830 -0.0515
  795loPI    C212038   0.329  12.257   5.277 -0.0475  0.3359 -0.0873
  795loPI    C312039   0.361  12.651   5.336  0.0164  0.2930  0.1767
  795loPI   PO412040   0.459  12.364   5.879  0.0845 -0.0589 -0.1495
  795loPI   GL112041   0.452  12.589   6.237  0.1698 -0.1887  0.1654
  795loPI   GL212042   0.722  12.543   6.352 -0.1366  0.0593 -0.1029
  795loPI   C1A12043   0.153  12.572   6.540  0.1376 -0.1681  0.1282
  795loPI   C2A12044   0.296  12.693   6.932 -0.1440 -0.4310 -0.0807
  795loPI   C3A12045   0.295  12.638   7.317  0.0651  0.1825  0.1959
  795loPI   C4A12046   0.290  12.681   7.759 -0.1816  0.0291  0.2756
  795loPI   C5A12047   0.137  12.668   8.113 -0.1965 -0.1217 -0.0218
  795loPI   C6A12048  -0.096  12.996   8.401 -0.2229 -0.1080  0.0457
  795loPI   C1B12049   0.832  12.692   6.691 -0.3224 -0.0260  0.0843
  795loPI   C2B12050   0.745  12.758   7.145 -0.1063 -0.0814 -0.0404
  795loPI   C3B12051   0.878  12.875   7.512  0.2325 -0.1917 -0.1796
  795loPI   C4B12052   0.802  12.773   7.877 -0.2819  0.1812 -0.0723
  796loPI    C112053  12.083   1.544   6.166 -0.0871 -0.1534  0.0487
  796loPI    C212054  12.055   1.515   5.768 -0.0210 -0.0012  0.0324
  796loPI    C312055  12.410   1.582   5.940 -0.0872  0.1832  0.0998
  796loPI   PO412056  11.926   1.569   6.268  0.1615 -0.1203  0.0039
  796loPI   GL112057  11.909   1.708   6.617  0.1177 -0.3301  0.0043
  796loPI   GL212058  11.905   1.460   6.755  0.1996 -0.1123  0.0281
  796loPI   C1A12059  12.062   1.951   7.011  0.0425  0.2545 -0.0953
  796loPI   C2A12060  11.963   2.001   7.432  0.1242  0.1321 -0.2937
  796loPI   C3A12061  11.788   1.905   7.807  0.0930  0.3818  0.0775
  796loPI   C4A12062  11.814   1.961   8.276 -0.2334  0.0083  0.0413
  796loPI   C5A12063  11.696   1.908   8.698  0.1873  0.1496  0.2662
  796loPI   C6A12064  11.767   1.892   9.050 -0.0620  0.1181 -0.1572
  796loPI   C1B12065  11.921   1.475   7.077  0.1857  0.1308 -0.0765
  796loPI   C2B12066  11.794   1.490   7.471 -0.0554  0.0274 -0.1645
  796loPI   C3B12067  11.671   1.493   7.948 -0.0597  0.1983 -0.2926
  796loPI   C4B12068  11.720   1.508   8.424 -0.1155 -0.1002 -0.0870
  797loPI    C112069  17.051   2.103   5.405 -0.2988 -0.0019 -0.0444
  797loPI    C212070  17.018   2.332   5.078  0.0049 -0.0165 -0.0882
  797loPI    C312071  17.007   1.934   5.045 -0.2156 -0.0149 -0.0487
  797loPI   PO412072  16.941   2.209   5.567 -0.1985  0.1933  0.0750
  797loPI   GL112073  16.927   2.144   6.003  0.0069  0.0912 -0.0112
  797loPI   GL212074  16.952   2.466   6.138  0.2833  0.2466 -0.1229
  797loPI   C1A12075  16.779   2.105   6.508 -0.0716 -0.1530  0.0433
  797loPI   C2A12076  16.717   2.149   6.905  0.0780  0.0454 -0.0158
  797loPI   C3A12077  16.664   2.185   7.293 -0.2224 -0.1131 -0.3290
  797loPI   C4A12078  16.708   2.236   7.769  0.0868  0.2574  0.3135
  797loPI   C5A12079  16.703   2.264   8.156  0.0393  0.0983 -0.0224
  797loPI   C6A12080  16.897   2.179   8.511 -0.0776  0.2342 -0.2116
  797loPI   C1B12081  16.923   2.673   6.457 -0.3693  0.3916 -0.0423
  797loPI   C2B12082  16.935   2.604   6.914  0.0404 -0.1362  0.4753
  797loPI   C3B12083  16.888   2.607   7.302 -0.1335 -0.2600  0.1754
  797loPI   C4B12084  16.874   2.687   7.770  0.0186 -0.1296  0.3778
  798loPI    C112085  12.822  11.944   5.560  0.2256 -0.0051 -0.1555
  798loPI    C212086  12.665  12.102   5.228 -0.0327  0.1573  0.0400
  798loPI    C312087  12.681  11.705   5.272 -0.1867  0.1365 -0.0786
  798loPI   PO412088  12.707  12.039   5.758  0.3736  0.0053 -0.1285
  798loPI   GL112089  12.594  12.385   6.074  0.2174 -0.1614  0.2894
  798loPI   GL212090  12.270  12.457   5.991  0.0560 -0.3650  0.3839
  798loPI   C1A12091  12.579  12.270   6.413  0.0567  0.0519 -0.0632
  798loPI   C2A12092  12.637  12.276   6.891  0.0666 -0.0030  0.0016
  798loPI   C3A12093  12.632  12.297   7.403 -0.0928  0.1470 -0.2033
  798loPI   C4A12094  12.557  12.364   7.828 -0.2342 -0.1033 -0.2120
  798loPI   C5A12095  12.331  12.665   8.026 -0.0116  0.0209 -0.2463
  798loPI   C6A12096  12.127  12.996   8.286  0.0272 -0.1735  0.0782
  798loPI   C1B12097  12.173  12.602   6.347 -0.1359 -0.0480  0.1136
  798loPI   C2B12098  12.402  12.702   6.713  0.1878  0.0014  0.1014
  798loPI   C3B12099  12.321  12.760   7.156 -0.1616  0.0391 -0.1490
  798loPI   C4B12100  12.246  12.693   7.572 -0.1582 -0.1335 -0.0159
  799loPI    C112101   0.285   9.472   6.174 -0.1812 -0.1356  0.0105
  799loPI    C212102   0.119   9.834   6.209  0.0858 -0.0246  0.1553
  799loPI    C312103   0.034   9.606   5.892 -0.0496  0.1820  0.0404
  799loPI   PO412104   0.282   9.425   6.464 -0.3516  0.1771 -0.2581
  799loPI   GL112105   0.299   9.604   6.826  0.3183  0.1114 -0.1994
  799loPI   GL212106   0.089   9.878   6.702 -0.2829 -0.0438  0.0582
  799loPI   C1A12107   0.441   9.446   7.276  0.0467  0.2690  0.0363
  799loPI   C2A12108   0.460   9.323   7.691 -0.1458  0.1724  0.3359
  799loPI   C3A12109   0.196   9.234   7.954 -0.2565  0.3175  0.0387
  799loPI   C4A12110   0.089   9.176   8.443  0.0123 -0.1179 -0.1258
  799loPI   C5A12111  -0.032   9.123   8.947  0.3059  0.0656 -0.1395
  799loPI   C6A12112  -0.042   8.896   9.367 -0.1467  0.1318 -0.1414
  799loPI   C1B12113   0.086   9.883   7.179 -0.2351 -0.0173 -0.0976
  799loPI   C2B12114   0.164   9.707   7.588  0.4069  0.2841 -0.0082
  799loPI   C3B12115   0.361   9.674   8.063 -0.1061 -0.3285  0.1698
  799loPI   C4B12116   0.386   9.550   8.485 -0.3266 -0.1594 -0.1527
  800loPI    C112117   7.289  12.262   5.772 -0.1518  0.3235 -0.1467
  800loPI    C212118   7.627  12.071   5.676 -0.1122  0.1523  0.3083
  800loPI    C312119   7.340  12.120   5.401  0.1133 -0.0573  0.0289
  800loPI   PO412120   7.421  12.533   5.901 -0.3368  0.2112 -0.1010
  800loPI   GL112121   7.710  12.722   6.235 -0.1362 -0.1735  0.2270
  800loPI   GL212122   7.588  12.933   6.177 -0.2805  0.1526  0.0988
  800loPI   C1A12123   7.980  12.682   6.488  0.0560  0.0766 -0.3429
  800loPI   C2A12124   7.828  12.622   6.901  0.1715  0.0735  0.1851
  800loPI   C3A12125   7.985  12.691   7.336 -0.0218  0.3492  0.1146
  800loPI   C4A12126   8.085  12.618   7.715 -0.1153 -0.0572  0.1098
  800loPI   C5A12127   8.266  12.465   8.177 -0.0694  0.0921 -0.0308
  800loPI   C6A12128   8.619  12.282   8.245 -0.0220  0.2429  0.2296
  800loPI   C1B12129   7.562  13.053   6.588  0.1265 -0.1161 -0.1552
  800loPI   C2B12130   7.615  13.043   7.056 -0.1933 -0.0755 -0.1872
  800loPI   C3B12131   7.649  13.047   7.526 -0.1576 -0.1701  0.1933
  800loPI   C4B12132   7.746  12.990   7.813  0.0959  0.1448  0.1397
  801loPI    C112133   6.888   0.852   5.906 -0.2598  0.1666  0.0912
  801loPI    C212134   6.677   0.512   5.930  0.2190 -0.1600 -0.1665
  801loPI    C312135   6.809   0.642   5.575  0.2314  0.1795 -0.0416
  801loPI   PO412136   6.935   0.716   6.275  0.1893 -0.2717  0.3551
  801loPI   GL112137   6.860   0.704   6.651 -0.4067  0.0768 -0.3191
  801loPI   GL212138   6.797   0.438   6.754 -0.1295 -0.1042 -0.1191
  801loPI   C1A12139   6.897   0.750   7.074  0.1740  0.1086  0.0468
  801loPI   C2A12140   6.844   0.753   7.527  0.2897 -0.1445 -0.3358
  801loPI   C3A12141   6.792   0.776   7.932  0.1409  0.3237 -0.0873
  801loPI   C4A12142   6.687   1.026   8.370  0.2072  0.0796 -0.0495
  801loPI   C5A12143   6.457   1.184   8.804 -0.0689 -0.0409 -0.0214
  801loPI   C6A12144   6.312   1.552   8.929  0.1065  0.2013  0.3915
  801loPI   C1B12145   6.733   0.236   7.130 -0.0612 -0.0334 -0.0304
  801loPI   C2B12146   6.622   0.211   7.581  0.0054 -0.1034  0.0857
  801loPI   C3B12147   6.673   0.249   7.993 -0.0213 -0.4828 -0.1592
  801loPI   C4B12148   6.720   0.544   8.360 -0.1751 -0.2296 -0.3316
  802loPI    C112149   6.595  17.585   5.926 -0.0491 -0.0209  0.0528
  802loPI    C212150   6.689  17.400   5.584  0.0465  0.1393 -0.0086
  802loPI    C312151   6.910  17.708   5.713  0.1738 -0.0900  0.3364
  802loPI   PO412152   6.558  17.418   6.164  0.1596  0.2300  0.0334
  802loPI   GL112153   6.719  17.389   6.526 -0.0633  0.0509 -0.1706
  802loPI   GL212154   7.035  17.461   6.605 -0.1657 -0.2841  0.1149
  802loPI   C1A12155   6.627  17.379   6.905  0.0476  0.2402  0.0265
  802loPI   C2A12156   6.587  17.301   7.354  0.6684  0.0646 -0.1369
  802loPI   C3A12157   6.488  17.397   7.853 -0.2438  0.0756  0.1295
  802loPI   C4A12158   6.498  17.449   8.260 -0.0178  0.0097 -0.0406
  802loPI   C5A12159   6.721  17.672   8.648  0.0605  0.1292  0.0459
  802loPI   C6A12160   6.675  17.702   9.107 -0.1446  0.1889 -0.0982
  802loPI   C1B12161   7.071  17.476   7.077 -0.0432  0.0539 -0.0539
  802loPI   C2B12162   7.112  17.451   7.489 -0.2167  0.0766  0.1754
  802loPI   C3B12163   7.053  17.455   7.948  0.0538 -0.1288  0.3331
  802loPI   C4B12164   7.104  17.388   8.414 -0.1522  0.0911  0.0108
  803loPI    C112165   3.820   0.759   5.701  0.1679 -0.1060 -0.3710
  803loPI    C212166   4.182   0.628   5.592  0.2949  0.1119 -0.2170
  803loPI    C312167   4.051   0.985   5.466  0.1389  0.0400 -0.2607
  803loPI   PO412168   3.864   0.755   5.984 -0.1224  0.0869  0.3187
  803loPI   GL112169   4.044   0.996   6.331 -0.1529  0.0748  0.1569
  803loPI   GL212170   4.348   0.800   6.447 -0.0533 -0.1083  0.1838
  803loPI   C1A12171   4.013   1.028   6.778  0.1748  0.1255 -0.2290
  803loPI   C2A12172   4.092   1.060   7.276  0.1936  0.0372 -0.2075
  803loPI   C3A12173   4.114   0.967   7.696  0.1119  0.3502  0.3527
  803loPI   C4A12174   4.135   0.856   8.187 -0.1911 -0.0763 -0.5683
  803loPI   C5A12175   3.912   1.126   8.472  0.1370 -0.0248  0.2527
  803loPI   C6A12176   3.472   1.245   8.403  0.0239  0.0961  0.1553
  803loPI   C1B12177   4.436   0.670   6.842 -0.1418 -0.0525 -0.1202
  803loPI   C2B12178   4.381   0.644   7.334  0.0576  0.0863  0.0529
  803loPI   C3B12179   4.411   0.592   7.732 -0.1001 -0.0581 -0.0337
  803loPI   C4B12180   4.603   0.542   8.097 -0.0323 -0.1243 -0.0573
  804loPI    C112181   1.343   8.556   5.843 -0.0306 -0.0915 -0.0533
  804loPI    C212182   1.703   8.482   5.685 -0.1109 -0.1620 -0.2057
  804loPI    C312183   1.498   8.808   5.574 -0.1203 -0.1535 -0.1639
  804loPI   PO412184   1.297   8.379   6.106  0.0291  0.2024 -0.4364
  804loPI   GL112185   1.431   8.148   6.515 -0.1740  0.0172  0.0648
  804loPI   GL212186   1.811   8.050   6.629  0.0017  0.0185 -0.2439
  804loPI   C1A12187   1.369   8.062   6.871 -0.0501  0.2623  0.0344
  804loPI   C2A12188   1.038   8.148   7.161 -0.4045 -0.1011  0.0958
  804loPI   C3A12189   0.883   8.063   7.452  0.0962 -0.1162 -0.2183
  804loPI   C4A12190   0.774   8.015   7.914  0.1329 -0.1654 -0.0387
  804loPI   C5A12191   0.738   7.791   8.214  0.2024  0.2770  0.0983
  804loPI   C6A12192   0.759   7.410   8.316  0.0494 -0.0104  0.2856
  804loPI   C1B12193   2.012   7.923   6.975  0.0174  0.2760 -0.0346
  804loPI   C2B12194   2.331   7.992   7.166 -0.2398 -0.0524 -0.3815
  804loPI   C3B12195   2.480   7.852   7.585  0.1884 -0.0295  0.2277
  804loPI   C4B12196   2.495   7.934   8.035  0.1405 -0.1303 -0.0769
  805loPI    C112197   1.603   3.620   5.221  0.1135  0.0375 -0.0540
  805loPI    C212198   1.926   3.386   5.201 -0.0102 -0.1519  0.1195
  805loPI    C312199   1.561   3.222   5.209 -0.1039  0.0534  0.1006
  805loPI   PO412200   1.608   3.774   5.449  0.0478  0.0774 -0.3108
  805loPI   GL112201   1.372   3.701   5.963  0.1003 -0.0306 -0.2634
  805loPI   GL212202   1.176   3.510   6.043  0.1178 -0.0361  0.3023
  805loPI   C1A12203   1.549   3.695   6.382  0.3875 -0.0166 -0.1110
  805loPI   C2A12204   1.547   3.676   6.880  0.0494  0.1269  0.3799
  805loPI   C3A12205   1.420   3.585   7.296 -0.2000 -0.0996  0.0853
  805loPI   C4A12206   1.472   3.601   7.719  0.0824 -0.1449  0.1899
  805loPI   C5A12207   1.249   3.541   8.087 -0.1743 -0.1205 -0.0755
  805loPI   C6A12208   1.091   3.843   8.423  0.1858  0.0131 -0.0080
  805loPI   C1B12209   1.040   3.599   6.439 -0.2172 -0.2115  0.1066
  805loPI   C2B12210   1.043   3.510   6.781  0.2901 -0.1136  0.0342
  805loPI   C3B12211   0.966   3.560   7.152 -0.1753 -0.0093 -0.0537
  805loPI   C4B12212   0.968   3.374   7.529 -0.1722 -0.0993  0.0242
  806loPI    C112213   4.905  13.095   5.816  0.1779 -0.1240 -0.0536
  806loPI    C212214   4.755  12.737   5.911 -0.1515 -0.0201 -0.1672
  806loPI    C312215   4.918  12.796   5.551  0.0357 -0.0934 -0.0959
  806loPI   PO412216   5.056  13.181   6.125 -0.2082 -0.0133  0.3499
  806loPI   GL112217   5.439  13.255   6.274  0.2003  0.0759  0.1561
  806loPI   GL212218   5.457  12.957   6.459 -0.3033  0.0238 -0.0719
  806loPI   C1A12219   5.269  13.421   6.728  0.1537 -0.0091  0.1042
  806loPI   C2A12220   5.320  13.383   7.156  0.0038  0.0188 -0.4113
  806loPI   C3A12221   5.350  13.351   7.680  0.1825  0.0570 -0.1157
  806loPI   C4A12222   5.248  13.396   8.156  0.3099 -0.3999 -0.1841
  806loPI   C5A12223   5.263  13.215   8.631  0.2092  0.0888 -0.0954
  806loPI   C6A12224   5.258  12.904   8.825 -0.1684 -0.3247 -0.1016
  806loPI   C1B12225   5.605  13.072   6.853 -0.0925 -0.0828 -0.0919
  806loPI   C2B12226   5.657  12.968   7.307  0.0114 -0.0598 -0.2607
  806loPI   C3B12227   5.786  12.978   7.765  0.1072 -0.1483  0.2172
  806loPI   C4B12228   5.635  13.062   8.150 -0.0874  0.0040  0.1740
  807loPI    C112229   0.578   8.011   5.786 -0.1369  0.2412  0.1322
  807loPI    C212230   0.969   8.095   5.780 -0.0733 -0.0518 -0.0223
  807loPI    C312231   0.750   8.141   5.449 -0.1834  0.1642  0.0784
  807loPI   PO412232   0.520   7.981   5.993  0.1043  0.0674  0.0240
  807loPI   GL112233   0.492   7.670   6.328 -0.2101  0.0987  0.2613
  807loPI   GL212234   0.692   7.631   6.662  0.1151 -0.1856 -0.0144
  807loPI   C1A12235   0.177   7.793   6.565  0.0888 -0.1253  0.1884
  807loPI   C2A12236   0.011   8.128   6.808  0.1128  0.1580 -0.1535
  807loPI   C3A12237  -0.172   8.231   7.157  0.0440  0.0785 -0.1921
  807loPI   C4A12238  -0.295   8.412   7.573 -0.1119 -0.1068 -0.0748
  807loPI   C5A12239  -0.194   8.286   7.956 -0.1899  0.0378  0.1053
  807loPI   C6A12240  -0.266   8.323   8.391 -0.2236 -0.3737  0.1278
  807loPI   C1B12241   0.599   7.812   7.068 -0.0133  0.1448 -0.3796
  807loPI   C2B12242   0.540   7.688   7.540 -0.1629  0.0163 -0.0351
  807loPI   C3B12243   0.568   7.378   7.765 -0.0439 -0.1514 -0.1059
  807loPI   C4B12244   0.583   7.010   7.844 -0.1365 -0.2472 -0.1779
  808loPI    C112245  14.105   9.056   6.136  0.0934  0.1323  0.1517
  808loPI    C212246  13.958   8.685   6.160 -0.0007  0.1718  0.1911
  808loPI    C312247  13.989   8.865   5.804 -0.1645  0.2099  0.1950
  808loPI   PO412248  14.315   8.895   6.470 -0.0943 -0.2894  0.0899
  808loPI   GL112249  14.712   8.912   6.736  0.2351 -0.0095 -0.0214
  808loPI   GL212250  15.082   8.788   6.780  0.5825  0.1675  0.0565
  808loPI   C1A12251  14.510   8.966   7.120 -0.0798  0.2036  0.0523
  808loPI   C2A12252  14.496   8.847   7.526  0.0622 -0.1272  0.1547
  808loPI   C3A12253  14.271   8.553   7.743 -0.1959  0.0851 -0.1227
  808loPI   C4A12254  14.095   8.441   8.183 -0.1521 -0.0876 -0.3341
  808loPI   C5A12255  13.731   8.256   8.486  0.3197  0.0387  0.0631
  808loPI   C6A12256  13.320   8.246   8.599  0.1598 -0.0358  0.1228
  808loPI   C1B12257  15.044   8.727   7.218  0.0333  0.1715 -0.0295
  808loPI   C2B12258  14.951   8.776   7.654  0.4979  0.0995  0.2149
  808loPI   C3B12259  14.839   8.780   8.081 -0.3687  0.1055  0.0869
  808loPI   C4B12260  15.035   8.827   8.448  0.1386 -0.2007  0.0168
  809loPI    C112261   4.008  10.357   5.998 -0.2698  0.0878  0.1555
  809loPI    C212262   3.678  10.269   5.789 -0.0376  0.1912 -0.2658
  809loPI    C312263   4.035  10.139   5.663  0.0805  0.0249  0.2211
  809loPI   PO412264   3.968  10.324   6.228 -0.1291 -0.0411 -0.0155
  809loPI   GL112265   3.837  10.412   6.639 -0.2082 -0.0141 -0.1394
  809loPI   GL212266   3.604  10.231   6.858  0.1330  0.1593  0.0367
  809loPI   C1A12267   3.939  10.727   6.987 -0.1317  0.2843  0.0306
  809loPI   C2A12268   3.977  10.825   7.443 -0.0820 -0.0034 -0.0443
  809loPI   C3A12269   3.986  10.685   7.879 -0.0116 -0.1680 -0.4081
  809loPI   C4A12270   4.099  10.763   8.239  0.0981  0.1964 -0.0406
  809loPI   C5A12271   4.223  10.524   8.595  0.1242 -0.0811  0.1091
  809loPI   C6A12272   4.183  10.158   8.708 -0.0822  0.4012  0.0847
  809loPI   C1B12273   3.786  10.257   7.209 -0.2067  0.0899 -0.1006
  809loPI   C2B12274   3.897  10.268   7.686  0.1562 -0.1040  0.4075
  809loPI   C3B12275   3.949  10.216   8.145  0.1961 -0.2121  0.1200
  809loPI   C4B12276   3.922   9.901   8.402  0.0365  0.0473  0.2182
  810loPI    C112277   8.100  15.473   5.459 -0.0633 -0.0905 -0.0197
  810loPI    C212278   7.881  15.807   5.438  0.0694 -0.0129 -0.1862
  810loPI    C312279   7.754  15.472   5.259 -0.0336 -0.0353 -0.0718
  810loPI   PO412280   8.049  15.426   5.731  0.0352  0.2557  0.0769
  810loPI   GL112281   8.192  15.464   6.148  0.0130 -0.2246  0.1293
  810loPI   GL212282   7.885  15.353   6.250  0.0137  0.0495  0.1225
  810loPI   C1A12283   8.337  15.493   6.583 -0.1012  0.1367 -0.1212
  810loPI   C2A12284   8.404  15.438   7.052 -0.0923  0.0477  0.1715
  810loPI   C3A12285   8.348  15.404   7.491  0.3079 -0.0244  0.4314
  810loPI   C4A12286   8.410  15.536   7.917  0.0143  0.2318 -0.2496
  810loPI   C5A12287   8.248  15.489   8.353  0.1025 -0.0010  0.0171
  810loPI   C6A12288   8.155  15.506   8.787  0.0076 -0.0319 -0.0743
  810loPI   C1B12289   7.850  15.366   6.662 -0.2832 -0.0294  0.3624
  810loPI   C2B12290   7.857  15.338   7.078  0.3466  0.0636  0.2410
  810loPI   C3B12291   7.842  15.346   7.524  0.0095  0.1057 -0.1070
  810loPI   C4B12292   7.827  15.371   7.941  0.2490  0.1248 -0.0253
  811loPI    C112293  10.309   8.671   5.585  0.1048 -0.0403 -0.1863
  811loPI    C212294  10.042   8.702   5.288 -0.2771  0.0482  0.1566
  811loPI    C312295  10.322   8.416   5.277 -0.3337  0.0028 -0.2469
  811loPI   PO412296  10.111   8.652   5.896  0.0658  0.1393 -0.2104
  811loPI   GL112297  10.087   8.670   6.364 -0.0024  0.2007  0.1026
  811loPI   GL212298   9.971   8.969   6.325  0.0171  0.0080 -0.0013
  811loPI   C1A12299  10.361   8.617   6.732  0.1528  0.1330 -0.0090
  811loPI   C2A12300  10.481   8.524   7.104 -0.1394  0.0461 -0.3977
  811loPI   C3A12301  10.477   8.587   7.535  0.2095  0.0836 -0.0588
  811loPI   C4A12302  10.573   8.609   7.895 -0.1964 -0.1410  0.2572
  811loPI   C5A12303  10.421   8.589   8.299 -0.2499 -0.0636 -0.0950
  811loPI   C6A12304  10.107   8.772   8.548 -0.0120  0.0955  0.1915
  811loPI   C1B12305  10.021   8.996   6.812 -0.3585 -0.1677  0.2887
  811loPI   C2B12306  10.116   8.867   7.163 -0.3210  0.1827  0.1863
  811loPI   C3B12307  10.138   8.949   7.653 -0.1415  0.0601 -0.1015
  811loPI   C4B12308  10.223   8.945   8.051 -0.2030 -0.4656 -0.0465
  812loPI    C112309  17.036   9.625   6.412  0.0027  0.2764 -0.0701
  812loPI    C212310  17.047   9.504   6.031 -0.1047 -0.1317  0.0509
  812loPI    C312311  16.697   9.594   6.202 -0.0714 -0.0843  0.0942
  812loPI   PO412312  17.359   9.550   6.444 -0.3577  0.1909  0.2471
  812loPI   GL112313  17.381   9.408   6.846  0.1138  0.0114 -0.3240
  812loPI   GL212314  17.143   9.737   6.886 -0.0856  0.1031  0.1178
  812loPI   C1A12315  17.590   9.298   7.169  0.0898  0.1017  0.1302
  812loPI   C2A12316  17.464   9.313   7.582 -0.0508 -0.0731  0.2131
  812loPI   C3A12317  17.275   9.216   7.977  0.0440  0.3526  0.0277
  812loPI   C4A12318  17.053   9.218   8.342  0.1011  0.3074 -0.1228
  812loPI   C5A12319  16.629   9.224   8.529 -0.0977  0.0219  0.3522
  812loPI   C6A12320  16.495   9.415   8.878 -0.0594 -0.1600 -0.0517
  812loPI   C1B12321  17.245   9.670   7.261 -0.1361  0.0858  0.3079
  812loPI   C2B12322  17.178   9.709   7.722  0.0306 -0.0104  0.1607
  812loPI   C3B12323  17.456   9.670   8.129  0.2222 -0.2033  0.2342
  812loPI   C4B12324  17.624   9.898   8.520 -0.2065 -0.0799  0.1030
  813loPI    C112325  11.224   1.096   5.785  0.0185  0.1056 -0.0380
  813loPI    C212326  11.011   1.398   5.631 -0.2918  0.0263  0.2226
  813loPI    C312327  11.025   1.045   5.442 -0.0172  0.1656 -0.0264
  813loPI   PO412328  11.180   1.049   5.944 -0.3023  0.1105 -0.1524
  813loPI   GL112329  11.117   1.041   6.441 -0.0873 -0.4079 -0.0205
  813loPI   GL212330  11.182   0.759   6.573 -0.0407 -0.0474 -0.1864
  813loPI   C1A12331  10.930   1.203   6.820  0.0172 -0.2698 -0.3030
  813loPI   C2A12332  10.836   1.204   7.301  0.0966  0.0137 -0.1826
  813loPI   C3A12333  10.781   1.213   7.772  0.3376 -0.0086 -0.1111
  813loPI   C4A12334  10.679   1.219   8.153  0.1229 -0.0050 -0.4577
  813loPI   C5A12335  10.673   1.138   8.609  0.3095 -0.0130  0.1777
  813loPI   C6A12336  11.080   1.206   8.939  0.0048  0.3995  0.1433
  813loPI   C1B12337  11.170   0.807   7.028 -0.3375 -0.0148 -0.0187
  813loPI   C2B12338  11.129   0.841   7.526  0.1525 -0.1894  0.0038
  813loPI   C3B12339  11.043   0.819   7.981 -0.0673  0.0599 -0.1072
  813loPI   C4B12340  11.003   0.821   8.368 -0.2158 -0.0235  0.2345
  814loPI    C112341  13.804   9.540   6.112 -0.0784  0.0278  0.0542
  814loPI    C212342  13.647   9.536   5.744 -0.0034 -0.0457  0.0225
  814loPI    C312343  13.938   9.796   5.834  0.1595 -0.2019 -0.0472
  814loPI   PO412344  13.614   9.552   6.332  0.0401  0.3173 -0.3930
  814loPI   GL112345  13.577   9.490   6.749  0.0585 -0.0994  0.0894
  814loPI   GL212346  13.243   9.566   6.910 -0.1696  0.3027 -0.1040
  814loPI   C1A12347  13.695   9.570   7.169 -0.0685  0.1413 -0.0469
  814loPI   C2A12348  13.672   9.799   7.463 -0.0192 -0.1127 -0.0459
  814loPI   C3A12349  13.866   9.963   7.771 -0.2254 -0.0370 -0.0673
  814loPI   C4A12350  13.860   9.911   8.211  0.3683  0.1545 -0.4622
  814loPI   C5A12351  13.563   9.674   8.520  0.1983  0.1104  0.2980
  814loPI   C6A12352  13.374   9.231   8.335  0.0522  0.2020 -0.0421
  814loPI   C1B12353  13.197   9.754   7.247 -0.3014  0.1704  0.1813
  814loPI   C2B12354  13.233   9.677   7.717 -0.0819  0.0291  0.2242
  814loPI   C3B12355  13.210   9.727   8.239  0.0378  0.3210  0.0512
  814loPI   C4B12356  13.008   9.553   8.572  0.3148 -0.1720 -0.0135
  815loPI    C112357   4.844  10.857   5.635  0.0482  0.0362 -0.0513
  815loPI    C212358   4.833  10.495   5.466 -0.0029  0.0074  0.0136
  815loPI    C312359   4.541  10.758   5.393  0.0185  0.0249 -0.0093
  815loPI   PO412360   4.977  10.827   5.963  0.3537 -0.0502 -0.0225
  815loPI   GL112361   4.603  10.768   6.183 -0.1079  0.1186 -0.1583
  815loPI   GL212362   4.388  10.509   6.345  0.0103 -0.2568  0.0951
  815loPI   C1A12363   4.600  10.847   6.613 -0.1377  0.0923 -0.1271
  815loPI   C2A12364   4.504  10.887   7.055  0.2912 -0.2497  0.2658
  815loPI   C3A12365   4.642  10.912   7.461  0.0014 -0.1186  0.0559
  815loPI   C4A12366   4.568  10.900   7.863  0.1678  0.3088 -0.1055
  815loPI   C5A12367   4.679  10.824   8.345  0.0314  0.1245  0.3818
  815loPI   C6A12368   4.420  10.970   8.598 -0.1855 -0.0379  0.0111
  815loPI   C1B12369   4.302  10.436   6.793 -0.0505 -0.0484  0.0613
  815loPI   C2B12370   4.263  10.456   7.252 -0.1183  0.0603  0.0463
  815loPI   C3B12371   4.397  10.353   7.708  0.0596 -0.0995  0.0929
  815loPI   C4B12372   4.428  10.321   8.114 -0.1859  0.0437 -0.0623
  816loPI    C112373   5.742  13.324   5.846 -0.0801 -0.0447 -0.0700
  816loPI    C212374   5.364  13.440   5.786 -0.0229  0.1931  0.0159
  816loPI    C312375   5.638  13.498   5.501 -0.0387  0.0693 -0.0254
  816loPI   PO412376   5.726  13.057   5.968  0.0024  0.2170 -0.1928
  816loPI   GL112377   5.978  12.975   6.299  0.2592  0.0766  0.2557
  816loPI   GL212378   5.933  12.717   6.555 -0.0296 -0.1958 -0.1690
  816loPI   C1A12379   6.111  13.192   6.704 -0.2079  0.2757  0.0370
  816loPI   C2A12380   6.123  13.141   7.122  0.0496 -0.0155  0.1934
  816loPI   C3A12381   6.266  13.152   7.498 -0.1660 -0.0243 -0.1502
  816loPI   C4A12382   6.257  13.073   7.853  0.0396 -0.0080  0.1073
  816loPI   C5A12383   6.229  13.091   8.321 -0.3392 -0.2191 -0.2195
  816loPI   C6A12384   6.249  12.832   8.706  0.1553  0.0025 -0.4349
  816loPI   C1B12385   5.898  12.666   7.044 -0.1671 -0.1953 -0.1020
  816loPI   C2B12386   6.109  12.678   7.448 -0.0813 -0.2139 -0.1936
  816loPI   C3B12387   6.159  12.570   7.852  0.0061 -0.3236  0.0441
  816loPI   C4B12388   6.058  12.592   8.329 -0.2741  0.1295  0.0172
  817loPI    C112389   8.723   0.596   5.566  0.0450  0.2992  0.1308
  817loPI    C212390   8.592   0.710   5.206 -0.2277 -0.0358  0.1186
  817loPI    C312391   8.980   0.743   5.298 -0.1418 -0.0238 -0.2358
  817loPI   PO412392   8.384   0.694   5.821 -0.2801 -0.0038 -0.0381
  817loPI   GL112393   8.174   0.776   6.254 -0.1458  0.1729  0.3152
  817loPI   GL212394   7.847   0.817   6.426  0.0636  0.0751 -0.1999
  817loPI   C1A12395   8.362   0.887   6.640 -0.1946  0.1319  0.2820
  817loPI   C2A12396   8.276   1.024   7.008 -0.2537  0.0953 -0.1783
  817loPI   C3A12397   8.280   1.107   7.466 -0.0297 -0.2965  0.1231
  817loPI   C4A12398   8.330   1.154   7.850 -0.1315  0.3094 -0.3258
  817loPI   C5A12399   8.430   1.232   8.255 -0.3968  0.2619 -0.1927
  817loPI   C6A12400   8.425   1.336   8.712  0.0578 -0.2367  0.2853
  817loPI   C1B12401   7.821   0.873   6.849 -0.0480 -0.1710  0.0701
  817loPI   C2B12402   7.852   0.905   7.294 -0.3093 -0.2159  0.0713
  817loPI   C3B12403   7.864   1.027   7.751 -0.0210 -0.0520  0.3066
  817loPI   C4B12404   7.804   1.048   8.093 -0.0291 -0.0102  0.0057
  818loPI    C112405  16.429  17.544   5.764 -0.2371 -0.0787 -0.0390
  818loPI    C212406  16.327  17.604   5.382  0.1040 -0.1557 -0.1452
  818loPI    C312407  16.709  17.640   5.495 -0.0092 -0.0310  0.2108
  818loPI   PO412408  16.239  17.717   5.865 -0.0869  0.0558  0.1750
  818loPI   GL112409  16.312  17.755   6.255  0.0766 -0.1995 -0.1091
  818loPI   GL212410  16.050  17.765   6.313  0.1625 -0.1703 -0.0052
  818loPI   C1A12411  16.280  17.746   6.799  0.2796  0.3568  0.2309
  818loPI   C2A12412  16.206  17.746   7.235  0.1943  0.1698 -0.0547
  818loPI   C3A12413  16.154  17.848   7.646 -0.2264 -0.0838  0.0475
  818loPI   C4A12414  16.130  17.809   8.066 -0.0085  0.0743  0.2067
  818loPI   C5A12415  16.357  17.851   8.413 -0.2663 -0.0425 -0.1223
  818loPI   C6A12416  16.528  17.513   8.644  0.1245 -0.2412 -0.2281
  818loPI   C1B12417  15.761  17.612   6.638 -0.1310 -0.2374 -0.2236
  818loPI   C2B12418  15.620  17.695   7.017 -0.3337  0.3618  0.0060
  818loPI   C3B12419  15.637  17.646   7.484 -0.3116  0.1432 -0.0244
  818loPI   C4B12420  15.644  17.734   7.936 -0.1584  0.0856  0.1745
  819loPI    C112421  14.083  10.743   5.912  0.1619 -0.0103 -0.0524
  819loPI    C212422  14.250  10.436   6.106  0.0734 -0.0026  0.0371
  819loPI    C312423  13.999  10.368   5.801  0.0628 -0.0188  0.0494
  819loPI   PO412424  14.015  10.926   6.174 -0.1709 -0.0805 -0.4654
  819loPI   GL112425  13.966  10.763   6.434 -0.3810 -0.2208  0.2171
  819loPI   GL212426  13.965  10.482   6.547 -0.0224  0.0484  0.0478
  819loPI   C1A12427  13.861  10.950   6.837  0.0166 -0.0216 -0.0042
  819loPI   C2A12428  13.925  10.968   7.285  0.0415  0.1717 -0.1685
  819loPI   C3A12429  14.150  10.999   7.692 -0.1070  0.1095  0.1648
  819loPI   C4A12430  14.052  11.312   8.075 -0.0512 -0.1285 -0.0147
  819loPI   C5A12431  14.042  11.700   8.382  0.1711 -0.0540  0.0074
  819loPI   C6A12432  14.278  12.028   8.598 -0.0902 -0.1199 -0.3041
  819loPI   C1B12433  14.011  10.486   6.943  0.0829 -0.0406  0.1531
  819loPI   C2B12434  14.008  10.401   7.431 -0.1986 -0.0366  0.0807
  819loPI   C3B12435  14.031  10.506   7.890  0.1660 -0.0163 -0.1928
  819loPI   C4B12436  14.023  10.780   8.175  0.1056 -0.1290 -0.2095
  820loPI    C112437   2.043  13.285   5.640  0.0484  0.0691  0.1128
  820loPI    C212438   2.164  12.904   5.629 -0.1663 -0.0040  0.2189
  820loPI    C312439   2.432  13.200   5.603  0.0078 -0.1615  0.1991
  820loPI   PO412440   1.848  13.266   5.789 -0.2629 -0.4042 -0.2626
  820loPI   GL112441   1.872  13.371   6.262 -0.0129  0.1951 -0.3204
  820loPI   GL212442   2.151  13.604   6.436 -0.3569  0.4804  0.0236
  820loPI   C1A12443   1.834  13.336   6.683  0.2845  0.1484  0.0790
  820loPI   C2A12444   1.893  13.526   7.011 -0.1964  0.0024 -0.1311
  820loPI   C3A12445   2.001  13.491   7.460 -0.0881 -0.4184 -0.3361
  820loPI   C4A12446   2.028  13.518   7.887 -0.0658  0.0774  0.0053
  820loPI   C5A12447   2.059  13.455   8.357 -0.2238  0.1163  0.3234
  820loPI   C6A12448   1.876  13.406   8.719 -0.0390  0.1278  0.1117
  820loPI   C1B12449   2.363  13.558   6.804  0.1681 -0.1439 -0.0308
  820loPI   C2B12450   2.418  13.533   7.245 -0.0753 -0.0168  0.2523
  820loPI   C3B12451   2.503  13.607   7.732  0.0188  0.2997 -0.1477
  820loPI   C4B12452   2.572  13.658   8.138  0.0818  0.3671 -0.0978
  821loPI    C112453  17.040   6.680   5.786 -0.1433  0.1269  0.0967
  821loPI    C212454  17.004   6.537   5.414  0.2704  0.1271  0.0512
  821loPI    C312455  16.871   6.904   5.502  0.1325  0.1107 -0.0843
  821loPI   PO412456  17.000   6.473   5.925  0.0344 -0.0709 -0.0790
  821loPI   GL112457  16.942   6.349   6.392  0.1327  0.1354 -0.0417
  821loPI   GL212458  17.229   6.566   6.543 -0.3077  0.1397 -0.3371
  821loPI   C1A12459  16.886   5.994   6.662 -0.1166 -0.0032  0.1272
  821loPI   C2A12460  16.971   5.893   7.003  0.0239  0.1277  0.0572
  821loPI   C3A12461  17.073   5.868   7.463 -0.1900  0.3993  0.0484
  821loPI   C4A12462  16.927   5.893   7.805 -0.2289  0.2491  0.0188
  821loPI   C5A12463  16.977   5.820   8.160  0.3623 -0.2821  0.2163
  821loPI   C6A12464  16.895   5.732   8.595  0.2162 -0.0138  0.1140
  821loPI   C1B12465  17.022   6.399   6.905  0.1867 -0.2438 -0.0332
  821loPI   C2B12466  17.088   6.452   7.344  0.3117 -0.0103  0.2614
  821loPI   C3B12467  17.429   6.420   7.659  0.4079 -0.1096  0.0224
  821loPI   C4B12468  17.552   6.325   8.049 -0.0755  0.1560 -0.1116
  822loPI    C112469   2.352   4.688   5.633 -0.0922  0.0369 -0.0374
  822loPI    C212470   1.960   4.705   5.714 -0.0871  0.0096 -0.0064
  822loPI    C312471   2.085   4.641   5.339 -0.1125 -0.0051 -0.0125
  822loPI   PO412472   2.419   4.587   5.881 -0.2682  0.0680 -0.1040
  822loPI   GL112473   2.538   4.378   6.176  0.1733 -0.0722 -0.1419
  822loPI   GL212474   2.859   4.484   6.441  0.1839 -0.2524 -0.1175
  822loPI   C1A12475   2.317   4.231   6.527  0.1386  0.0369  0.0126
  822loPI   C2A12476   2.236   4.255   7.024 -0.2486  0.5577 -0.1428
  822loPI   C3A12477   2.196   4.242   7.515 -0.0911 -0.3622  0.0457
  822loPI   C4A12478   2.146   4.105   7.917  0.2765 -0.0228 -0.0126
  822loPI   C5A12479   2.093   4.061   8.373 -0.2712 -0.1623 -0.1640
  822loPI   C6A12480   1.845   4.144   8.750  0.1517  0.0782  0.0129
  822loPI   C1B12481   2.726   4.322   6.883  0.2591  0.0701 -0.3823
  822loPI   C2B12482   2.611   4.405   7.402  0.2223  0.2197  0.1465
  822loPI   C3B12483   2.652   4.345   7.759 -0.1689 -0.0145 -0.1651
  822loPI   C4B12484   2.518   4.369   8.163 -0.1007 -0.0521 -0.0491
  823loPI    C112485  11.810  10.058   5.687  0.0341  0.1643 -0.3324
  823loPI    C212486  12.189   9.941   5.631  0.0409  0.0510 -0.0661
  823loPI    C312487  11.909   9.851   5.359  0.1494 -0.1207 -0.1229
  823loPI   PO412488  11.789   9.902   5.916 -0.1262 -0.2743  0.0183
  823loPI   GL112489  11.833   9.962   6.372  0.0657 -0.2447  0.2292
  823loPI   GL212490  11.807   9.719   6.544  0.0104  0.0367  0.0309
  823loPI   C1A12491  11.880  10.224   6.758  0.0020 -0.2590 -0.0979
  823loPI   C2A12492  11.882  10.304   7.262  0.2402  0.1623 -0.1145
  823loPI   C3A12493  12.037  10.362   7.577  0.0812  0.0803 -0.0667
  823loPI   C4A12494  12.069  10.399   8.024 -0.1549 -0.4292  0.3874
  823loPI   C5A12495  11.889  10.480   8.359  0.0042  0.2354 -0.4209
  823loPI   C6A12496  12.038  10.567   8.803  0.2535  0.3291  0.0708
  823loPI   C1B12497  11.794   9.719   6.962  0.0149 -0.2455  0.0257
  823loPI   C2B12498  11.716   9.845   7.342 -0.1144 -0.0139  0.2119
  823loPI   C3B12499  11.837   9.737   7.697  0.1841  0.0088  0.1432
  823loPI   C4B12500  11.809   9.852   8.083 -0.3016 -0.2519 -0.0565
  824loPI    C112501  16.574  10.025   5.984 -0.2287  0.0106 -0.0988
  824loPI    C212502  16.863   9.958   5.715  0.0542 -0.1076  0.2280
  824loPI    C312503  16.498   9.803   5.660  0.0387  0.0714 -0.2056
  824loPI   PO412504  16.738  10.106   6.243 -0.3405  0.0548 -0.1372
  824loPI   GL112505  16.905  10.310   6.659  0.1381  0.1948 -0.0715
  824loPI   GL212506  16.734  10.021   6.843  0.0422  0.0821 -0.2326
  824loPI   C1A12507  17.064  10.665   6.963  0.2340 -0.0998 -0.0838
  824loPI   C2A12508  17.070  10.820   7.346 -0.0255 -0.1936 -0.3745
  824loPI   C3A12509  16.907  11.064   7.651  0.0506 -0.0728 -0.1211
  824loPI   C4A12510  17.094  11.149   8.017 -0.2189 -0.0414 -0.3550
  824loPI   C5A12511  17.113  11.074   8.441 -0.1171 -0.2472 -0.0852
  824loPI   C6A12512  16.750  11.177   8.711  0.1109 -0.2519  0.1189
  824loPI   C1B12513  16.746   9.877   7.315 -0.0272 -0.3418 -0.0706
  824loPI   C2B12514  16.775   9.951   7.793 -0.1132 -0.1544 -0.4663
  824loPI   C3B12515  16.673  10.046   8.197  0.0646  0.1372 -0.2207
  824loPI   C4B12516  16.655  10.110   8.615  0.1133 -0.3224 -0.0072
  825loPI    C112517   4.781  16.792   5.791  0.0485 -0.0883 -0.0092
  825loPI    C212518   4.596  16.700   5.448 -0.1143  0.1566  0.0102
  825loPI    C312519   4.984  16.615   5.496 -0.1658 -0.1609 -0.1153
  825loPI   PO412520   4.570  16.574   6.070 -0.1605 -0.0360  0.0072
  825loPI   GL112521   4.518  16.672   6.392 -0.1299  0.0350 -0.0307
  825loPI   GL212522   4.790  16.399   6.532 -0.1352  0.4506  0.1736
  825loPI   C1A12523   4.419  16.891   6.844  0.0487 -0.0898 -0.0549
  825loPI   C2A12524   4.376  16.903   7.293 -0.1660 -0.0265  0.1175
  825loPI   C3A12525   4.561  16.831   7.697 -0.1956 -0.0841 -0.0609
  825loPI   C4A12526   4.627  16.896   8.124 -0.0419 -0.3048 -0.1959
  825loPI   C5A12527   4.743  16.889   8.489 -0.2591 -0.2809  0.0654
  825loPI   C6A12528   4.975  16.638   8.760 -0.0826  0.1363  0.0858
  825loPI   C1B12529   4.768  16.517   6.906  0.0454  0.0285  0.0658
  825loPI   C2B12530   4.842  16.510   7.409  0.0108  0.2876  0.5793
  825loPI   C3B12531   4.822  16.399   7.857  0.2384  0.0627 -0.3004
  825loPI   C4B12532   4.864  16.420   8.338  0.0374  0.1479  0.1906
  826loPI    C112533   6.660  12.550   5.769  0.1279  0.0443 -0.0074
  826loPI    C212534   6.986  12.559   5.537  0.0391  0.0988 -0.1308
  826loPI    C312535   6.623  12.518   5.372  0.0003 -0.2068  0.0226
  826loPI   PO412536   6.804  12.378   6.034  0.0413 -0.2179 -0.3141
  826loPI   GL112537   6.871  12.475   6.455  0.2900  0.3094 -0.1521
  826loPI   GL212538   7.320  12.567   6.530  0.2110  0.1449 -0.1091
  826loPI   C1A12539   6.816  12.490   6.993  0.0740 -0.0560  0.0782
  826loPI   C2A12540   6.907  12.454   7.323  0.2003  0.0338 -0.0651
  826loPI   C3A12541   7.098  12.308   7.606 -0.1602 -0.4279  0.0263
  826loPI   C4A12542   6.947  12.239   8.013  0.0270 -0.0810  0.2885
  826loPI   C5A12543   6.875  12.346   8.530  0.0887 -0.0155  0.0855
  826loPI   C6A12544   6.723  12.402   8.938 -0.3078  0.0294 -0.0345
  826loPI   C1B12545   7.320  12.483   6.876  0.2071  0.0261  0.3891
  826loPI   C2B12546   7.492  12.452   7.320 -0.0674 -0.1162  0.0718
  826loPI   C3B12547   7.598  12.504   7.748 -0.0845 -0.0102  0.0702
  826loPI   C4B12548   7.628  12.713   8.242 -0.0447 -0.0038 -0.1324
  827loPI    C112549  11.659   8.704   5.903  0.2300 -0.2111  0.0893
  827loPI    C212550  11.337   8.645   5.673  0.0830  0.1552  0.1930
  827loPI    C312551  11.570   8.336   5.775 -0.1571 -0.0928  0.0050
  827loPI   PO412552  11.556   8.852   6.093  0.2055 -0.2695 -0.1082
  827loPI   GL112553  11.357   8.810   6.536  0.3908  0.0058 -0.3296
  827loPI   GL212554  11.093   8.964   6.592 -0.1569  0.3505 -0.0139
  827loPI   C1A12555  11.496   8.691   6.895 -0.1289 -0.1514 -0.0030
  827loPI   C2A12556  11.455   8.760   7.331  0.1402  0.1508 -0.2811
  827loPI   C3A12557  11.484   8.897   7.604  0.1411 -0.1770  0.3129
  827loPI   C4A12558  11.649   8.797   7.987 -0.2315  0.0202 -0.1012
  827loPI   C5A12559  11.773   8.880   8.427  0.0681 -0.1239  0.0318
  827loPI   C6A12560  11.682   8.850   8.878  0.0446  0.2132 -0.1145
  827loPI   C1B12561  11.047   9.088   7.000 -0.1122  0.1401 -0.1469
  827loPI   C2B12562  11.099   9.198   7.429 -0.2682  0.0932  0.1048
  827loPI   C3B12563  11.166   9.229   7.875 -0.4783 -0.0265 -0.1449
  827loPI   C4B12564  11.157   9.162   8.256  0.1390  0.1819  0.0487
  828loPI    C112565   2.686   1.146   5.704  0.0782  0.0816  0.1010
  828loPI    C212566   2.820   1.330   6.033  0.1963 -0.0585  0.1327
  828loPI    C312567   3.076   1.222   5.746  0.0695  0.2453 -0.1011
  828loPI   PO412568   2.408   1.258   5.725  0.0017 -0.1587  0.0598
  828loPI   GL112569   2.328   1.431   6.197 -0.0073  0.0678 -0.2414
  828loPI   GL212570   2.186   1.627   6.154  0.0465  0.3383 -0.0084
  828loPI   C1A12571   2.318   1.612   6.605  0.0012 -0.2338 -0.0908
  828loPI   C2A12572   2.251   1.613   7.016 -0.0535 -0.1344  0.1136
  828loPI   C3A12573   2.274   1.613   7.430 -0.0601  0.0062 -0.1944
  828loPI   C4A12574   2.273   1.473   7.840 -0.1762  0.0346 -0.0872
  828loPI   C5A12575   2.155   1.473   8.280  0.2015 -0.0173  0.0572
  828loPI   C6A12576   2.078   1.708   8.704  0.1975  0.2706  0.0897
  828loPI   C1B12577   1.968   1.947   6.431  0.0731 -0.0277 -0.1435
  828loPI   C2B12578   1.874   1.931   6.817  0.0101  0.0790 -0.1245
  828loPI   C3B12579   1.912   1.916   7.331 -0.1221  0.0735  0.1666
  828loPI   C4B12580   2.010   1.951   7.725  0.2746 -0.1047 -0.0986
  829loPI    C112581  17.265   7.870   6.335  0.3005  0.3258  0.0365
  829loPI    C212582  17.240   8.244   6.196 -0.1050  0.1730 -0.3254
  829loPI    C312583  17.456   7.971   5.999  0.3560  0.2551  0.0465
  829loPI   PO412584  16.998   7.814   6.392 -0.0496  0.1435 -0.0459
  829loPI   GL112585  16.849   8.006   6.834 -0.0422  0.1497 -0.3010
  829loPI   GL212586  17.117   8.057   6.791  0.1552  0.1792  0.1258
  829loPI   C1A12587  16.975   7.931   7.242 -0.1739 -0.0944 -0.0737
  829loPI   C2A12588  17.076   7.850   7.672 -0.1183  0.2102 -0.0107
  829loPI   C3A12589  17.293   7.821   8.049  0.2116  0.0090 -0.6446
  829loPI   C4A12590  17.570   7.664   8.444 -0.3812  0.2871  0.1907
  829loPI   C5A12591  17.984   7.624   8.508  0.1319  0.0819 -0.0768
  829loPI   C6A12592  18.114   7.394   8.841  0.1210 -0.2403  0.0528
  829loPI   C1B12593  17.336   7.738   6.952 -0.0545 -0.1953  0.2614
  829loPI   C2B12594  17.553   7.782   7.313 -0.0970 -0.2469 -0.0828
  829loPI   C3B12595  17.569   7.924   7.671  0.0712 -0.0154 -0.0669
  829loPI   C4B12596  17.777   7.737   7.990  0.2969 -0.0109  0.1503
  830loPI    C112597   4.514  13.204   5.515 -0.1053 -0.0720 -0.0444
  830loPI    C212598   4.481  12.845   5.342  0.2291 -0.1447  0.0375
  830loPI    C312599   4.321  13.166   5.167 -0.1467 -0.3444  0.0056
  830loPI   PO412600   4.446  13.246   5.746  0.0421 -0.4121 -0.0024
  830loPI   GL112601   4.405  13.144   6.139 -0.3073 -0.2630  0.2124
  830loPI   GL212602   4.619  13.057   6.355 -0.4698 -0.1571  0.1082
  830loPI   C1A12603   4.160  13.014   6.517  0.0850 -0.1083  0.1540
  830loPI   C2A12604   4.230  13.112   6.879 -0.1839  0.0872  0.3220
  830loPI   C3A12605   4.253  13.097   7.336  0.2199 -0.2055  0.2253
  830loPI   C4A12606   4.315  13.134   7.791 -0.1578  0.1765  0.0243
  830loPI   C5A12607   4.331  13.030   8.186  0.0054 -0.1190 -0.2436
  830loPI   C6A12608   4.351  12.856   8.567 -0.1136 -0.1962 -0.1471
  830loPI   C1B12609   4.725  13.277   6.701  0.2913  0.1507  0.1704
  830loPI   C2B12610   4.693  13.290   7.070  0.1384  0.0876 -0.2483
  830loPI   C3B12611   4.767  13.169   7.535 -0.2282 -0.0618  0.0412
  830loPI   C4B12612   4.822  13.224   7.916  0.1546  0.1260  0.0004
  831loPI    C112613   8.968   7.268   5.844 -0.1490 -0.0127  0.0293
  831loPI    C212614   8.999   7.226   5.448 -0.1411 -0.0857  0.0376
  831loPI    C312615   9.114   7.567   5.622 -0.0822 -0.0781 -0.0154
  831loPI   PO412616   9.010   6.974   6.042 -0.2425  0.1080  0.1718
  831loPI   GL112617   9.029   6.783   6.392 -0.1052  0.0742  0.1831
  831loPI   GL212618   9.013   6.375   6.421 -0.1780 -0.0544  0.2187
  831loPI   C1A12619   9.007   6.835   6.865 -0.0517 -0.0056 -0.2832
  831loPI   C2A12620   9.045   6.796   7.278 -0.0872  0.0502  0.2220
  831loPI   C3A12621   9.135   6.747   7.804 -0.0177 -0.1211 -0.1005
  831loPI   C4A12622   9.021   6.846   8.221 -0.1317 -0.0794 -0.0756
  831loPI   C5A12623   8.827   6.653   8.517 -0.0334 -0.0845 -0.1874
  831loPI   C6A12624   8.412   6.605   8.767 -0.1339  0.0937  0.0113
  831loPI   C1B12625   8.953   6.370   6.894 -0.1303  0.0605  0.0112
  831loPI   C2B12626   8.952   6.320   7.310 -0.0917  0.3408 -0.1246
  831loPI   C3B12627   9.060   6.293   7.637  0.0407  0.0223  0.0401
  831loPI   C4B12628   8.933   6.390   8.085 -0.0408  0.0296  0.2955
  832loPI    C112629   7.936  12.377   5.912 -0.2550  0.0560 -0.0039
  832loPI    C212630   8.173  12.670   6.046  0.0074 -0.0900 -0.1421
  832loPI    C312631   7.935  12.735   5.732 -0.0802  0.0335 -0.0513
  832loPI   PO412632   7.714  12.217   6.169  0.2645  0.0305 -0.0796
  832loPI   GL112633   7.687  12.230   6.568  0.0674 -0.0494  0.0423
  832loPI   GL212634   7.444  12.017   6.768  0.1102  0.1067 -0.0892
  832loPI   C1A12635   7.841  12.087   7.104 -0.3996  0.3291  0.0291
  832loPI   C2A12636   7.914  12.131   7.445  0.0175 -0.1901 -0.2298
  832loPI   C3A12637   7.918  12.074   7.863 -0.0063  0.0360  0.2405
  832loPI   C4A12638   7.772  12.295   8.180 -0.3278 -0.1037 -0.0903
  832loPI   C5A12639   7.366  12.308   8.475 -0.1678 -0.0639 -0.1039
  832loPI   C6A12640   7.092  11.880   8.691  0.0880 -0.1437  0.0895
  832loPI   C1B12641   7.300  12.015   7.204 -0.3214  0.1219 -0.0625
  832loPI   C2B12642   7.472  11.997   7.623  0.1090  0.0782  0.0309
  832loPI   C3B12643   7.415  12.043   7.988  0.1490 -0.0724  0.0367
  832loPI   C4B12644   7.516  11.881   8.352  0.2944 -0.2139  0.1125
  833loPI    C112645   4.119   6.962   5.980  0.2219 -0.1120  0.1205
  833loPI    C212646   4.328   7.293   5.899  0.1875 -0.1097  0.0402
  833loPI    C312647   4.206   7.056   5.601  0.0554 -0.0987  0.0850
  833loPI   PO412648   4.109   6.937   6.254  0.2039  0.2207  0.0397
  833loPI   GL112649   4.007   6.586   6.596  0.1683 -0.1142 -0.2248
  833loPI   GL212650   4.247   6.414   6.426  0.0231 -0.0106  0.1882
  833loPI   C1A12651   4.274   6.524   6.969  0.0100 -0.2054 -0.0940
  833loPI   C2A12652   4.328   6.537   7.354  0.3624  0.0839 -0.0674
  833loPI   C3A12653   4.299   6.560   7.752 -0.2049 -0.1988 -0.0209
  833loPI   C4A12654   4.270   6.677   8.158  0.0040 -0.0507 -0.0973
  833loPI   C5A12655   4.191   6.721   8.568 -0.0239 -0.3090 -0.1540
  833loPI   C6A12656   4.254   6.453   8.951  0.3067 -0.2094  0.3735
  833loPI   C1B12657   4.089   6.020   6.699  0.0758 -0.0637  0.1851
  833loPI   C2B12658   4.179   6.101   7.192  0.2908 -0.0024  0.0629
  833loPI   C3B12659   4.114   6.126   7.615  0.1331 -0.0984 -0.0296
  833loPI   C4B12660   4.095   6.203   8.038  0.2426 -0.1496  0.0443
  834loPI    C112661   5.749   8.210   5.901  0.0646  0.0746 -0.0694
  834loPI    C212662   5.424   8.440   5.938 -0.0101 -0.0185 -0.1420
  834loPI    C312663   5.445   8.169   5.644  0.1459  0.0077 -0.1559
  834loPI   PO412664   5.807   8.081   6.186  0.0774  0.0869  0.1766
  834loPI   GL112665   5.774   8.237   6.588  0.1857 -0.0010 -0.1498
  834loPI   GL212666   5.613   7.928   6.637  0.2585 -0.1052  0.1617
  834loPI   C1A12667   5.825   8.326   7.046 -0.1097  0.3853 -0.2756
  834loPI   C2A12668   5.750   8.344   7.456  0.0987 -0.0770 -0.1198
  834loPI   C3A12669   5.834   8.404   7.915  0.2449  0.1928  0.3778
  834loPI   C4A12670   5.777   8.270   8.295  0.2157 -0.1476  0.2438
  834loPI   C5A12671   5.897   8.093   8.684  0.1301 -0.2728 -0.0887
  834loPI   C6A12672   6.091   7.930   9.102 -0.1574  0.0854  0.0391
  834loPI   C1B12673   5.612   7.779   7.075  0.2085  0.0076  0.2150
  834loPI   C2B12674   5.617   7.674   7.480  0.0742  0.2094 -0.0028
  834loPI   C3B12675   5.676   7.774   7.943  0.4495 -0.0645 -0.2487
  834loPI   C4B12676   5.587   7.798   8.374 -0.0448  0.1069  0.1013
  835loPI    C112677   8.919   4.536   5.967 -0.1175  0.0176  0.0809
  835loPI    C212678   9.036   4.269   5.692 -0.0132  0.0238  0.1187
  835loPI    C312679   8.972   4.650   5.587  0.2192  0.0703  0.1407
  835loPI   PO412680   9.108   4.491   6.147  0.0556  0.0344  0.0234
  835loPI   GL112681   9.241   4.353   6.439  0.1918  0.1998  0.2192
  835loPI   GL212682   9.432   4.606   6.477 -0.1179 -0.0235  0.1752
  835loPI   C1A12683   9.316   4.003   6.776 -0.1129 -0.3952  0.0924
  835loPI   C2A12684   9.265   4.082   7.250 -0.1073 -0.2515  0.0187
  835loPI   C3A12685   9.261   4.122   7.717  0.0217 -0.2338  0.1918
  835loPI   C4A12686   9.260   4.176   8.081 -0.0974 -0.2930 -0.3189
  835loPI   C5A12687   9.329   4.085   8.482  0.1382  0.3412 -0.3047
  835loPI   C6A12688   9.325   3.897   8.829 -0.0231  0.3075 -0.1011
  835loPI   C1B12689   9.374   4.496   6.915 -0.0060 -0.0734  0.0651
  835loPI   C2B12690   9.346   4.600   7.343 -0.1292  0.1340  0.3040
  835loPI   C3B12691   9.393   4.634   7.765 -0.3300  0.0502  0.1687
  835loPI   C4B12692   9.546   4.567   8.225  0.1767  0.0141 -0.0067
  836loPI    C112693  13.224   2.024   5.771 -0.1594 -0.0474  0.0998
  836loPI    C212694  13.197   1.682   5.564  0.0205 -0.0507  0.0805
  836loPI    C312695  13.188   2.033   5.373  0.0350 -0.0499  0.0813
  836loPI   PO412696  13.115   2.096   6.005 -0.0274 -0.0355  0.0596
  836loPI   GL112697  13.152   2.179   6.414  0.0563  0.0029  0.0362
  836loPI   GL212698  12.946   1.957   6.516  0.2047 -0.1650 -0.5771
  836loPI   C1A12699  13.098   2.368   6.799 -0.0537  0.0026  0.1964
  836loPI   C2A12700  13.077   2.317   7.194 -0.3402  0.3681 -0.1219
  836loPI   C3A12701  12.900   2.194   7.665  0.2409 -0.1685 -0.1235
  836loPI   C4A12702  13.017   2.113   8.054  0.0732  0.0042  0.2098
  836loPI   C5A12703  13.330   2.284   8.233  0.1332 -0.1303  0.0060
  836loPI   C6A12704  13.720   2.210   8.500  0.0700 -0.2425 -0.0288
  836loPI   C1B12705  12.699   1.991   6.881  0.2483 -0.0616  0.0374
  836loPI   C2B12706  12.476   2.057   7.293 -0.2616  0.1479 -0.2928
  836loPI   C3B12707  12.400   2.005   7.776  0.1693  0.0149 -0.0358
  836loPI   C4B12708  12.315   1.999   8.160  0.0521 -0.0735  0.0253
  837loPI    C112709  12.714  15.352   5.504  0.0239 -0.0698 -0.0913
  837loPI    C212710  13.104  15.401   5.427  0.0353 -0.0996 -0.0526
  837loPI    C312711  12.834  15.637   5.250  0.0951  0.1557  0.1899
  837loPI   PO412712  12.598  15.426   5.766 -0.1288 -0.0251  0.1760
  837loPI   GL112713  12.521  15.316   6.160  0.1059  0.1086 -0.1107
  837loPI   GL212714  12.612  15.577   6.410 -0.0610 -0.1817 -0.0427
  837loPI   C1A12715  12.525  15.005   6.508 -0.1167  0.0519 -0.0163
  837loPI   C2A12716  12.508  15.031   6.899 -0.0792 -0.2895 -0.1067
  837loPI   C3A12717  12.549  15.048   7.343  0.0509  0.2854  0.1881
  837loPI   C4A12718  12.515  15.041   7.808 -0.1537  0.2955 -0.0461
  837loPI   C5A12719  12.352  15.046   8.220 -0.1007 -0.2230  0.2306
  837loPI   C6A12720  12.488  15.004   8.687 -0.2387 -0.1280  0.2079
  837loPI   C1B12721  12.675  15.550   6.784  0.0670  0.0305  0.1377
  837loPI   C2B12722  12.736  15.566   7.159 -0.1547 -0.3024 -0.0530
  837loPI   C3B12723  12.632  15.533   7.633  0.2107  0.2047  0.0516
  837loPI   C4B12724  12.584  15.520   8.033  0.0795  0.0959 -0.3022
  838loPI    C112725   9.072   2.248   5.584 -0.2060  0.0695 -0.2353
  838loPI    C212726   9.361   2.068   5.373 -0.0912 -0.0281  0.0014
  838loPI    C312727   9.126   2.341   5.198 -0.0614 -0.1771 -0.2767
  838loPI   PO412728   9.212   2.306   5.908 -0.1074  0.0514  0.2347
  838loPI   GL112729   9.307   2.080   6.218 -0.4614  0.0350  0.0443
  838loPI   GL212730   9.377   2.359   6.375 -0.2710 -0.2278 -0.5397
  838loPI   C1A12731   9.269   2.022   6.683  0.3036  0.0381  0.0652
  838loPI   C2A12732   9.293   2.084   7.137  0.0702 -0.0208 -0.2629
  838loPI   C3A12733   9.155   2.195   7.473  0.0183 -0.1020  0.2280
  838loPI   C4A12734   9.180   2.310   7.839  0.0437 -0.1387 -0.2038
  838loPI   C5A12735   9.025   2.229   8.299  0.2105  0.1851  0.0111
  838loPI   C6A12736   8.654   2.204   8.639  0.0121 -0.3507 -0.0345
  838loPI   C1B12737   9.425   2.555   6.838  0.1259 -0.1524 -0.0677
  838loPI   C2B12738   9.314   2.658   7.298  0.0066 -0.0477  0.2962
  838loPI   C3B12739   9.351   2.793   7.769  0.1086  0.2323 -0.1347
  838loPI   C4B12740   9.183   2.702   8.185 -0.0113  0.0315  0.4831
  839loPI    C112741  10.466   3.862   5.816  0.1950 -0.0358 -0.0581
  839loPI    C212742  10.254   3.912   5.480  0.0854 -0.2617 -0.0249
  839loPI    C312743  10.651   3.870   5.462  0.0780 -0.2895 -0.1280
  839loPI   PO412744  10.323   4.004   5.997  0.5827  0.3134 -0.1241
  839loPI   GL112745  10.273   3.931   6.370 -0.1459 -0.0862  0.0122
  839loPI   GL212746  10.095   3.842   6.566  0.1508 -0.1862 -0.0238
  839loPI   C1A12747  10.571   3.993   6.749  0.1532  0.3225  0.2347
  839loPI   C2A12748  10.615   3.878   7.212 -0.3043  0.2200 -0.0207
  839loPI   C3A12749  10.662   3.986   7.628  0.0263  0.1680 -0.0199
  839loPI   C4A12750  10.704   4.022   8.116 -0.1069 -0.0734 -0.2418
  839loPI   C5A12751  10.846   3.892   8.490  0.0240 -0.2958 -0.0680
  839loPI   C6A12752  11.028   3.664   8.746 -0.0884 -0.1312  0.0050
  839loPI   C1B12753  10.106   3.805   7.008  0.2308  0.1529 -0.2230
  839loPI   C2B12754   9.981   3.910   7.427 -0.0620  0.0159 -0.0263
  839loPI   C3B12755  10.132   3.842   7.870  0.0660 -0.4448 -0.1454
  839loPI   C4B12756  10.209   3.834   8.323 -0.4562 -0.1280 -0.0868
  840loPI    C112757  12.066   8.301   5.937 -0.0699 -0.0868  0.1451
  840loPI    C212758  12.265   7.968   5.840 -0.1093 -0.0452 -0.0841
  840loPI    C312759  12.041   8.155   5.566 -0.1621  0.1187  0.0685
  840loPI   PO412760  12.156   8.261   6.209  0.0110 -0.2681  0.0958
  840loPI   GL112761  12.114   8.298   6.574  0.4029  0.1597 -0.0774
  840loPI   GL212762  12.185   7.996   6.688  0.0324  0.2618  0.3366
  840loPI   C1A12763  11.962   8.364   6.966  0.2641  0.1645 -0.0827
  840loPI   C2A12764  11.921   8.455   7.427  0.0849 -0.0597 -0.1703
  840loPI   C3A12765  12.023   8.406   7.821 -0.0613  0.1255  0.1074
  840loPI   C4A12766  12.028   8.374   8.272  0.1543 -0.4027 -0.2654
  840loPI   C5A12767  11.768   8.398   8.597  0.2513  0.1111 -0.0437
  840loPI   C6A12768  11.755   8.325   9.088  0.0659  0.1293  0.2754
  840loPI   C1B12769  12.309   8.093   7.164  0.0489  0.1036  0.2084
  840loPI   C2B12770  12.298   8.027   7.631  0.1412 -0.2245  0.0845
  840loPI   C3B12771  12.306   8.023   8.045 -0.1807  0.1633 -0.0163
  840loPI   C4B12772  12.489   8.008   8.451  0.1796  0.0228  0.1747
  841loPI    C112773   3.838   8.062   6.220 -0.2961 -0.2744 -0.0524
  841loPI    C212774   4.075   8.046   5.898  0.0166  0.1765  0.1448
  841loPI    C312775   3.708   8.203   5.869 -0.1516 -0.2439 -0.0944
  841loPI   PO412776   3.958   7.890   6.409 -0.2327  0.0332 -0.0878
  841loPI   GL112777   3.906   7.590   6.781 -0.0583 -0.0456 -0.1243
  841loPI   GL212778   3.648   7.469   6.764 -0.1169 -0.0147  0.0593
  841loPI   C1A12779   4.113   7.413   7.121  0.0074  0.1483  0.0052
  841loPI   C2A12780   4.114   7.393   7.579 -0.0793 -0.0006  0.0756
  841loPI   C3A12781   4.041   7.528   7.998  0.4308  0.0739  0.4387
  841loPI   C4A12782   4.096   7.487   8.404 -0.1941  0.0156  0.2432
  841loPI   C5A12783   4.205   7.524   8.818 -0.0756 -0.1318  0.2674
  841loPI   C6A12784   4.457   7.583   9.105 -0.2764  0.0075  0.3735
  841loPI   C1B12785   3.566   7.396   7.239 -0.0189 -0.0114  0.0254
  841loPI   C2B12786   3.569   7.415   7.693  0.0338  0.3171 -0.1254
  841loPI   C3B12787   3.562   7.376   8.130 -0.1919  0.0145 -0.3757
  841loPI   C4B12788   3.620   7.584   8.486 -0.1850  0.0121 -0.2708
  842loPI    C112789  15.163   3.662   5.541 -0.1292 -0.0245 -0.0816
  842loPI    C212790  15.503   3.724   5.340 -0.0248 -0.1902  0.0415
  842loPI    C312791  15.151   3.775   5.158  0.0663 -0.1045 -0.1125
  842loPI   PO412792  15.235   3.797   5.822  0.2065  0.1512 -0.1196
  842loPI   GL112793  15.273   3.722   6.173  0.0436  0.2645 -0.0358
  842loPI   GL212794  15.435   4.034   6.286  0.0951 -0.0811  0.0365
  842loPI   C1A12795  15.299   3.571   6.636  0.1366 -0.1026  0.0605
  842loPI   C2A12796  15.310   3.747   7.021 -0.0876  0.2336  0.1366
  842loPI   C3A12797  15.295   3.616   7.400  0.2514  0.0576 -0.5940
  842loPI   C4A12798  15.263   3.648   7.822  0.0512  0.1689  0.0359
  842loPI   C5A12799  15.202   3.424   8.246  0.0725 -0.1513 -0.0221
  842loPI   C6A12800  15.428   3.212   8.518  0.3702  0.0003  0.0272
  842loPI   C1B12801  15.360   4.178   6.738 -0.1978  0.1294 -0.1469
  842loPI   C2B12802  15.509   4.145   7.243 -0.1139  0.1337 -0.0367
  842loPI   C3B12803  15.454   4.132   7.751 -0.1201 -0.1121 -0.1050
  842loPI   C4B12804  15.465   4.075   8.143 -0.1450 -0.1517 -0.0038
  843loPI    C112805  15.109   6.888   5.750 -0.0065 -0.1021 -0.1154
  843loPI    C212806  15.432   7.080   5.613  0.0762 -0.1822 -0.0341
  843loPI    C312807  15.259   6.795   5.391 -0.0062 -0.0619 -0.1258
  843loPI   PO412808  15.162   6.794   6.051  0.0303  0.0345  0.1032
  843loPI   GL112809  15.272   7.057   6.336  0.0910 -0.0800 -0.1142
  843loPI   GL212810  15.523   7.064   6.166 -0.0838 -0.3227  0.2139
  843loPI   C1A12811  15.248   7.001   6.779 -0.1784  0.0828  0.0215
  843loPI   C2A12812  15.356   6.916   7.240 -0.2549  0.0426 -0.2003
  843loPI   C3A12813  15.353   6.895   7.614 -0.2923 -0.0988 -0.1459
  843loPI   C4A12814  15.334   7.001   8.070 -0.1170  0.1923  0.0294
  843loPI   C5A12815  15.694   6.999   8.346  0.0395  0.0853 -0.1212
  843loPI   C6A12816  15.875   6.982   8.736 -0.0703  0.2005  0.0449
  843loPI   C1B12817  15.748   7.047   6.552 -0.1866 -0.0012  0.2564
  843loPI   C2B12818  15.829   7.021   7.011 -0.3475 -0.5325  0.0004
  843loPI   C3B12819  15.952   7.008   7.427  0.1197 -0.0776  0.2778
  843loPI   C4B12820  15.903   7.027   7.915 -0.2272 -0.4001 -0.0684
  844loPI    C112821   9.433  13.434   5.647 -0.0990 -0.1309  0.0499
  844loPI    C212822   9.483  13.811   5.523 -0.1120 -0.1847 -0.1215
  844loPI    C312823   9.190  13.587   5.368 -0.1300 -0.2528  0.0095
  844loPI   PO412824   9.451  13.443   5.948 -0.2987 -0.1850  0.0104
  844loPI   GL112825   9.611  13.191   6.185 -0.0067  0.1043  0.2864
  844loPI   GL212826   9.732  12.897   6.184  0.2649 -0.0170  0.1140
  844loPI   C1A12827   9.738  13.316   6.583 -0.0723 -0.1483  0.0574
  844loPI   C2A12828   9.659  13.357   7.020 -0.0083 -0.0789 -0.0901
  844loPI   C3A12829   9.652  13.509   7.429  0.0667  0.0609  0.5767
  844loPI   C4A12830   9.639  13.484   7.850  0.2477 -0.0541 -0.2748
  844loPI   C5A12831   9.525  13.514   8.292 -0.1773 -0.0172  0.0245
  844loPI   C6A12832   9.823  13.525   8.567  0.3272 -0.0770  0.0977
  844loPI   C1B12833   9.787  12.647   6.530  0.2168  0.0312  0.0868
  844loPI   C2B12834   9.826  12.566   6.902  0.1458 -0.1272 -0.0070
  844loPI   C3B12835   9.825  12.742   7.283 -0.0877  0.0427  0.1687
  844loPI   C4B12836   9.953  12.950   7.671 -0.1143  0.0184  0.0276
  845loPI    C112837   9.058  16.552   5.672  0.0272 -0.0551  0.2207
  845loPI    C212838   8.755  16.500   5.416  0.1190 -0.4664  0.1885
  845loPI    C312839   9.123  16.574   5.278  0.0482 -0.0129  0.2264
  845loPI   PO412840   8.967  16.559   5.893 -0.0208 -0.0691 -0.2966
  845loPI   GL112841   8.913  16.380   6.290 -0.1146  0.0698  0.1190
  845loPI   GL212842   8.628  16.360   6.370  0.0437 -0.5134 -0.1367
  845loPI   C1A12843   9.177  16.525   6.585 -0.1130 -0.0051  0.1918
  845loPI   C2A12844   9.220  16.549   6.976 -0.0731  0.3272  0.1390
  845loPI   C3A12845   9.185  16.564   7.360 -0.1843 -0.1067 -0.1507
  845loPI   C4A12846   9.125  16.638   7.745  0.1189 -0.2077  0.1086
  845loPI   C5A12847   8.999  16.655   8.125 -0.2456 -0.0175  0.1463
  845loPI   C6A12848   8.908  16.907   8.530  0.0773 -0.3584  0.0429
  845loPI   C1B12849   8.728  16.462   6.836 -0.0276  0.0216 -0.2490
  845loPI   C2B12850   8.710  16.413   7.352 -0.2005  0.0214 -0.1715
  845loPI   C3B12851   8.601  16.509   7.744  0.0883  0.2645 -0.2118
  845loPI   C4B12852   8.527  16.498   8.196  0.0003  0.2231 -0.1317
  846loPI    C112853  10.500   7.725   6.030  0.2063  0.0591  0.0725
  846loPI    C212854  10.584   7.337   5.981 -0.2232 -0.0275 -0.0210
  846loPI    C312855  10.307   7.512   5.751 -0.2172  0.2720  0.1944
  846loPI   PO412856  10.456   7.723   6.318 -0.2862  0.1198 -0.1297
  846loPI   GL112857  10.288   7.690   6.658  0.0153  0.2467  0.1901
  846loPI   GL212858  10.022   7.506   6.702 -0.2472 -0.0621 -0.1539
  846loPI   C1A12859  10.309   7.608   7.126  0.0563  0.0386 -0.0273
  846loPI   C2A12860  10.273   7.570   7.517  0.2116  0.0195 -0.0011
  846loPI   C3A12861  10.372   7.574   7.987 -0.0317 -0.0357  0.2301
  846loPI   C4A12862  10.246   7.572   8.437  0.1171  0.0202  0.0179
  846loPI   C5A12863  10.144   7.371   8.772 -0.0924  0.0094 -0.0739
  846loPI   C6A12864   9.802   7.461   9.105 -0.2006 -0.0210  0.1577
  846loPI   C1B12865   9.837   7.484   7.182 -0.0830  0.1190 -0.1910
  846loPI   C2B12866   9.778   7.413   7.529  0.0683  0.2169  0.2607
  846loPI   C3B12867   9.759   7.401   7.961 -0.2632  0.2855  0.0116
  846loPI   C4B12868   9.738   7.472   8.443  0.0769 -0.2045 -0.1544
  847loPI    C112869   1.628  15.291   5.640 -0.2139  0.0734 -0.2300
  847loPI    C212870   1.977  15.320   5.447  0.1226  0.0943  0.3572
  847loPI    C312871   1.795  15.650   5.579 -0.2296  0.1003 -0.1163
  847loPI   PO412872   1.736  15.074   5.808  0.0422 -0.0045  0.0537
  847loPI   GL112873   1.684  15.146   6.290  0.2209 -0.1531  0.0433
  847loPI   GL212874   1.708  14.907   6.360  0.1808 -0.0247 -0.1092
  847loPI   C1A12875   1.541  15.223   6.734 -0.1042  0.0162  0.2363
  847loPI   C2A12876   1.504  15.295   7.096 -0.1814  0.0531 -0.0189
  847loPI   C3A12877   1.567  15.396   7.455 -0.1717 -0.0129 -0.1390
  847loPI   C4A12878   1.656  15.197   7.868 -0.1661 -0.1434 -0.3084
  847loPI   C5A12879   1.739  15.147   8.282 -0.0279 -0.3539 -0.0758
  847loPI   C6A12880   2.048  15.058   8.574  0.1418 -0.1354 -0.1740
  847loPI   C1B12881   1.993  14.831   6.717  0.2880  0.1231  0.1414
  847loPI   C2B12882   1.949  14.893   7.163 -0.0427  0.1635 -0.5214
  847loPI   C3B12883   2.043  14.831   7.622  0.2233 -0.0408  0.0692
  847loPI   C4B12884   2.055  14.833   8.104 -0.0468  0.0751 -0.1073
  848loPI    C112885   6.185  10.526   5.810  0.0994  0.0155  0.0265
  848loPI    C212886   6.100  10.681   5.452  0.3296 -0.0178 -0.0444
  848loPI    C312887   6.120  10.285   5.498 -0.0061 -0.0240  0.0786
  848loPI   PO412888   6.118  10.721   6.003  0.1976 -0.0260 -0.2602
  848loPI   GL112889   5.754  10.603   6.345 -0.0029  0.1134  0.0245
  848loPI   GL212890   6.170  10.770   6.485 -0.1102 -0.0103  0.0179
  848loPI   C1A12891   5.864  10.778   6.821  0.2785  0.0691  0.1190
  848loPI   C2A12892   5.942  10.813   7.138 -0.3289 -0.0085  0.0568
  848loPI   C3A12893   6.000  10.734   7.537  0.0306  0.1001  0.0008
  848loPI   C4A12894   6.067  10.726   7.931 -0.1910 -0.0015 -0.1592
  848loPI   C5A12895   6.049  10.661   8.301  0.1768  0.2197  0.0732
  848loPI   C6A12896   5.693  10.287   8.641 -0.0361  0.2884  0.1637
  848loPI   C1B12897   6.266  10.459   6.803 -0.0104  0.0422  0.2807
  848loPI   C2B12898   6.354  10.455   7.244 -0.0786  0.1870 -0.0899
  848loPI   C3B12899   6.408  10.405   7.693  0.0538 -0.0499  0.0886
  848loPI   C4B12900   6.429  10.374   8.111 -0.0736 -0.0925 -0.3763
  849loPI    C112901   3.223   5.630   5.660 -0.2130  0.1086 -0.3838
  849loPI    C212902   3.206   6.029   5.655 -0.0149  0.1322  0.1440
  849loPI    C312903   3.507   5.840   5.472 -0.0319  0.2297  0.0137
  849loPI   PO412904   3.036   5.606   5.931  0.4666 -0.1417 -0.0255
  849loPI   GL112905   2.955   5.479   6.367  0.0834 -0.4213  0.0148
  849loPI   GL212906   2.606   5.545   6.224  0.0887  0.1373 -0.0211
  849loPI   C1A12907   3.081   5.430   6.820 -0.0330  0.2324  0.0427
  849loPI   C2A12908   2.984   5.327   7.287 -0.1816  0.0208  0.2060
  849loPI   C3A12909   2.790   5.685   7.651  0.0115  0.0532  0.0304
  849loPI   C4A12910   2.670   5.722   8.005 -0.2663  0.0338 -0.1320
  849loPI   C5A12911   2.604   5.844   8.528 -0.1980 -0.0253  0.0368
  849loPI   C6A12912   2.828   5.639   8.951  0.0884 -0.1152  0.0591
  849loPI   C1B12913   2.547   5.268   6.631 -0.0084  0.2004  0.0337
  849loPI   C2B12914   2.525   5.199   7.136  0.0892 -0.2111 -0.3443
  849loPI   C3B12915   2.594   5.233   7.585  0.0321  0.0764 -0.2794
  849loPI   C4B12916   3.064   5.304   7.806  0.1154 -0.0568 -0.1312
  850loPI    C112917  16.153   9.321   6.279  0.0599  0.0054  0.0384
  850loPI    C212918  16.239   9.624   6.032 -0.0259 -0.1487 -0.1841
  850loPI    C312919  16.012   9.320   5.905 -0.2915 -0.1048  0.1670
  850loPI   PO412920  16.407   9.215   6.417 -0.2287 -0.0899  0.3322
  850loPI   GL112921  16.492   9.178   6.861 -0.0854 -0.0495  0.0866
  850loPI   GL212922  16.613   9.485   6.849 -0.1156  0.0344 -0.0564
  850loPI   C1A12923  16.376   8.865   7.172  0.2202 -0.3638 -0.0977
  850loPI   C2A12924  16.250   8.591   7.515 -0.0188 -0.2554  0.2466
  850loPI   C3A12925  16.258   8.580   8.011 -0.0389  0.2356 -0.1816
  850loPI   C4A12926  16.234   8.649   8.396  0.0286  0.2598  0.0368
  850loPI   C5A12927  16.411   8.838   8.743 -0.3161 -0.0299 -0.0325
  850loPI   C6A12928  16.579   8.863   9.167 -0.3579  0.0773  0.1485
  850loPI   C1B12929  16.373   9.404   7.271  0.0799 -0.1016 -0.0088
  850loPI   C2B12930  16.312   9.786   7.541  0.2477  0.0529 -0.0832
  850loPI   C3B12931  16.345  10.227   7.775  0.1630  0.0155  0.1452
  850loPI   C4B12932  16.572  10.634   7.831  0.1253 -0.1433  0.0822
  851loPI    C112933   1.432  16.103   5.531  0.0296  0.0867 -0.0715
  851loPI    C212934   1.697  16.041   5.238  0.0648  0.0372 -0.0296
  851loPI    C312935   1.490  16.383   5.253  0.0040  0.0062 -0.1583
  851loPI   PO412936   1.532  16.032   5.719  0.0240  0.0655 -0.0800
  851loPI   GL112937   1.426  16.139   6.126  0.0577 -0.0902 -0.0931
  851loPI   GL212938   1.642  16.378   6.140 -0.1025 -0.0470 -0.0790
  851loPI   C1A12939   1.390  16.087   6.580  0.1882  0.4271  0.1873
  851loPI   C2A12940   1.339  16.203   6.970 -0.0674  0.3480 -0.0390
  851loPI   C3A12941   1.437  16.214   7.400  0.1786  0.4295  0.0537
  851loPI   C4A12942   1.308  16.158   7.815  0.0842  0.1025 -0.1170
  851loPI   C5A12943   1.191  16.015   8.126 -0.1232 -0.3735  0.1827
  851loPI   C6A12944   1.117  15.886   8.496  0.1457 -0.0589 -0.0035
  851loPI   C1B12945   1.534  16.553   6.545 -0.1613 -0.0217 -0.0710
  851loPI   C2B12946   1.503  16.676   6.959  0.0929  0.2230  0.0138
  851loPI   C3B12947   1.581  16.728   7.424  0.1581  0.2511  0.1151
  851loPI   C4B12948   1.473  16.616   7.819  0.0042  0.0170  0.1065
  852loPI    C112949   9.059   5.940   5.711 -0.1016 -0.1403  0.1419
  852loPI    C212950   9.283   5.615   5.651  0.0030 -0.0179 -0.1508
  852loPI    C312951   9.041   5.746   5.361 -0.1751  0.0614  0.0322
  852loPI   PO412952   9.235   6.070   5.945  0.0761 -0.0581 -0.0008
  852loPI   GL112953   9.420   6.147   6.349  0.1234 -0.2053 -0.0734
  852loPI   GL212954   9.367   5.906   6.477 -0.2906  0.4080 -0.1563
  852loPI   C1A12955   9.460   6.426   6.687  0.0793  0.0584 -0.3243
  852loPI   C2A12956   9.519   6.394   7.082  0.3402 -0.0504  0.0338
  852loPI   C3A12957   9.453   6.499   7.432  0.0191  0.0910 -0.3499
  852loPI   C4A12958   9.533   6.468   7.899 -0.1611 -0.1992  0.0837
  852loPI   C5A12959   9.421   6.471   8.273 -0.0952 -0.1078 -0.5901
  852loPI   C6A12960   9.168   6.270   8.630 -0.0230 -0.0889 -0.1255
  852loPI   C1B12961   9.304   5.974   6.859 -0.1153  0.0355 -0.0125
  852loPI   C2B12962   9.319   5.985   7.305 -0.0780  0.2242  0.6918
  852loPI   C3B12963   9.412   5.965   7.767  0.0782 -0.3167  0.0134
  852loPI   C4B12964   9.420   5.945   8.210  0.0165 -0.2018 -0.3705
  853loPI    C112965   3.517  14.970   5.767 -0.0404  0.0753 -0.0523
  853loPI    C212966   3.533  15.287   5.523 -0.1564  0.1125 -0.0123
  853loPI    C312967   3.538  14.917   5.371 -0.1954  0.1354 -0.0694
  853loPI   PO412968   3.684  15.016   5.937 -0.1680 -0.1932 -0.1846
  853loPI   GL112969   3.470  15.170   6.271  0.1470 -0.2909 -0.2526
  853loPI   GL212970   3.461  14.826   6.314 -0.0821 -0.0626  0.0863
  853loPI   C1A12971   3.474  15.137   6.678 -0.1427 -0.2708  0.1730
  853loPI   C2A12972   3.486  15.115   7.122 -0.3061 -0.0588  0.1184
  853loPI   C3A12973   3.485  15.192   7.492  0.3015  0.0173  0.3603
  853loPI   C4A12974   3.441  15.220   7.925 -0.0745 -0.3307 -0.1778
  853loPI   C5A12975   3.511  15.459   8.234 -0.0428  0.0478  0.0224
  853loPI   C6A12976   3.340  15.755   8.354 -0.0286  0.1375  0.1821
  853loPI   C1B12977   3.274  14.705   6.746  0.1183  0.1753  0.1368
  853loPI   C2B12978   3.207  14.679   7.170 -0.0344  0.2052  0.0852
  853loPI   C3B12979   3.369  14.718   7.608  0.1892 -0.4069 -0.0188
  853loPI   C4B12980   3.431  14.704   8.067 -0.4290  0.1811  0.1463
  854loPI    C112981   3.431   6.900   6.026 -0.0514  0.0417  0.0771
  854loPI    C212982   3.661   7.167   5.837  0.1924  0.0128  0.3270
  854loPI    C312983   3.687   6.779   5.745 -0.3007  0.0866 -0.1738
  854loPI   PO412984   3.410   6.956   6.246  0.0905 -0.1968  0.1470
  854loPI   GL112985   3.684   6.920   6.579  0.0028  0.2570 -0.0710
  854loPI   GL212986   3.445   6.615   6.678  0.3371 -0.2430 -0.1983
  854loPI   C1A12987   3.945   7.034   6.843  0.2018 -0.0558 -0.1686
  854loPI   C2A12988   3.973   6.932   7.194 -0.0820 -0.0287 -0.2187
  854loPI   C3A12989   4.013   6.890   7.560 -0.2507 -0.2089 -0.1626
  854loPI   C4A12990   3.868   6.963   7.971  0.3403  0.1852  0.0502
  854loPI   C5A12991   3.861   7.036   8.485 -0.2972  0.2366  0.0239
  854loPI   C6A12992   3.763   7.218   8.789  0.1378 -0.2265 -0.0187
  854loPI   C1B12993   3.694   6.456   6.908  0.0177  0.3545 -0.0809
  854loPI   C2B12994   3.787   6.479   7.280  0.0003 -0.0791  0.0391
  854loPI   C3B12995   3.776   6.492   7.761  0.0189  0.2841  0.4152
  854loPI   C4B12996   3.684   6.571   8.220 -0.0302  0.1067 -0.1240
  855loPI    C112997   3.124  14.724   5.637  0.1578  0.1306 -0.2382
  855loPI    C212998   3.126  14.341   5.521 -0.1390  0.0933 -0.1297
  855loPI    C312999   3.121  14.633   5.248 -0.0823  0.0178 -0.2121
  855loPI   PO413000   3.156  14.654   5.983 -0.2616 -0.1087  0.0650
  855loPI   GL113001   2.990  14.934   6.362  0.2451  0.0303  0.1451
  855loPI   GL213002   2.879  14.595   6.484  0.0689 -0.3543  0.3721
  855loPI   C1A13003   2.885  15.107   6.909  0.2391  0.0974  0.1771
  855loPI   C2A13004   2.980  15.137   7.347 -0.1491 -0.0622 -0.1138
  855loPI   C3A13005   2.960  15.045   7.761 -0.2549 -0.2554  0.1740
  855loPI   C4A13006   3.030  15.180   8.168  0.2571  0.0976 -0.3809
  855loPI   C5A13007   3.249  14.995   8.401 -0.0919  0.2665  0.1776
  855loPI   C6A13008   3.167  14.827   8.788  0.0017  0.2627 -0.2931
  855loPI   C1B13009   2.760  14.558   6.975  0.1604 -0.0682 -0.0571
  855loPI   C2B13010   2.857  14.609   7.495 -0.1553  0.3735 -0.0325
  855loPI   C3B13011   2.862  14.602   7.869  0.1791 -0.2285 -0.2058
  855loPI   C4B13012   2.974  14.659   8.204  0.1962  0.0839  0.1272
  856loPI    C113013   9.448  16.868   5.794  0.1366 -0.4198  0.0321
  856loPI    C213014   9.812  16.804   5.642  0.2180 -0.0330  0.0537
  856loPI    C313015   9.502  16.866   5.398  0.2258 -0.0509  0.0391
  856loPI   PO413016   9.629  17.045   6.098 -0.1913  0.2062  0.0768
  856loPI   GL113017   9.620  16.957   6.433  0.0314  0.0249 -0.0366
  856loPI   GL213018   9.764  16.629   6.589  0.1174 -0.2606 -0.0869
  856loPI   C1A13019   9.448  17.040   6.821 -0.0195 -0.0465 -0.1471
  856loPI   C2A13020   9.380  17.037   7.224  0.1347 -0.3197  0.1589
  856loPI   C3A13021   9.188  17.085   7.521 -0.0376 -0.0979  0.1857
  856loPI   C4A13022   9.199  17.115   7.914  0.2311  0.2147 -0.1068
  856loPI   C5A13023   9.330  16.998   8.247 -0.2065 -0.1561 -0.2694
  856loPI   C6A13024   9.293  16.965   8.791  0.0329 -0.1324  0.0562
  856loPI   C1B13025   9.769  16.644   7.055 -0.0567  0.2854  0.0652
  856loPI   C2B13026   9.645  16.708   7.573  0.1883 -0.2993  0.2355
  856loPI   C3B13027   9.568  16.621   8.011 -0.3633 -0.1561  0.1083
  856loPI   C4B13028   9.590  16.583   8.397 -0.1375 -0.1955 -0.0844
  857loPI    C113029   7.209  11.393   5.778  0.2501 -0.3608 -0.1139
  857loPI    C213030   7.440  11.600   5.525  0.3178 -0.1725  0.0987
  857loPI    C313031   7.194  11.317   5.386  0.4175 -0.1310 -0.1671
  857loPI   PO413032   7.349  11.298   6.016 -0.0404  0.0283  0.1181
  857loPI   GL113033   7.310  11.498   6.439  0.0229  0.2559 -0.2155
  857loPI   GL213034   7.091  11.705   6.487 -0.1430  0.1417  0.2353
  857loPI   C1A13035   7.449  11.259   6.764 -0.0178 -0.1079 -0.0682
  857loPI   C2A13036   7.497  11.224   7.188 -0.3838  0.2593  0.1123
  857loPI   C3A13037   7.514  11.104   7.637 -0.1812 -0.0835 -0.1226
  857loPI   C4A13038   7.532  11.218   8.156  0.1981 -0.0880  0.3112
  857loPI   C5A13039   7.383  11.382   8.597  0.1229  0.1047  0.2767
  857loPI   C6A13040   7.498  11.736   8.864 -0.0076  0.1935  0.2566
  857loPI   C1B13041   7.146  11.635   6.949 -0.2831  0.1508 -0.0220
  857loPI   C2B13042   7.162  11.522   7.362  0.1189 -0.0182  0.0702
  857loPI   C3B13043   7.187  11.433   7.854 -0.0772 -0.1091  0.1424
  857loPI   C4B13044   7.155  11.604   8.202  0.4613  0.2364 -0.0111
  858loPI    C113045   6.201  15.541   5.822  0.0363 -0.2055 -0.1039
  858loPI    C213046   6.481  15.509   5.537  0.0797  0.1573 -0.1062
  858loPI    C313047   6.107  15.615   5.440  0.0216 -0.0050 -0.0624
  858loPI   PO413048   6.273  15.697   5.997  0.1169  0.2577  0.0464
  858loPI   GL113049   6.485  15.564   6.327  0.0467  0.1059  0.0821
  858loPI   GL213050   6.806  15.728   6.393 -0.0038  0.0439 -0.1351
  858loPI   C1A13051   6.491  15.505   6.779 -0.1674 -0.3904 -0.0739
  858loPI   C2A13052   6.429  15.418   7.188  0.2665 -0.0056 -0.0512
  858loPI   C3A13053   6.369  15.430   7.592 -0.0971  0.0679 -0.0802
  858loPI   C4A13054   6.391  15.513   7.947 -0.1464 -0.1379  0.0687
  858loPI   C5A13055   6.464  15.483   8.382  0.0278 -0.3775 -0.0251
  858loPI   C6A13056   6.647  15.413   8.765  0.1929 -0.0906  0.1000
  858loPI   C1B13057   6.949  15.609   6.861 -0.5384 -0.1173 -0.1219
  858loPI   C2B13058   7.049  15.497   7.304  0.3019  0.1970 -0.3339
  858loPI   C3B13059   6.915  15.543   7.717 -0.3152 -0.0020  0.0312
  858loPI   C4B13060   6.951  15.658   8.064  0.1753  0.4868  0.1942
  859loPI    C113061   6.180  11.082   5.715  0.1458 -0.2316  0.0971
  859loPI    C213062   6.032  11.358   5.467  0.2929 -0.1433  0.1062
  859loPI    C313063   5.785  11.106   5.656  0.1704 -0.1259 -0.0282
  859loPI   PO413064   6.323  11.226   5.844 -0.1211  0.0655 -0.0347
  859loPI   GL113065   6.334  11.370   6.248  0.1451  0.1046 -0.1705
  859loPI   GL213066   6.272  11.662   6.233  0.0883  0.2109 -0.1053
  859loPI   C1A13067   6.164  11.404   6.714 -0.3009  0.1154 -0.2084
  859loPI   C2A13068   6.112  11.341   7.161 -0.2388  0.1400  0.1594
  859loPI   C3A13069   6.056  11.210   7.654 -0.0929 -0.2307 -0.3069
  859loPI   C4A13070   6.118  11.243   8.110  0.2298  0.0803  0.0405
  859loPI   C5A13071   6.211  11.416   8.424 -0.3099 -0.1721 -0.0210
  859loPI   C6A13072   6.247  11.365   8.851 -0.0141  0.0150  0.0212
  859loPI   C1B13073   6.223  11.896   6.659  0.3159  0.0665  0.2562
  859loPI   C2B13074   6.269  11.870   7.198  0.2350  0.0287  0.0862
  859loPI   C3B13075   6.335  11.721   7.576 -0.1864  0.1375  0.1429
  859loPI   C4B13076   6.306  11.750   7.968  0.2455  0.1500  0.1667
  860loPI    C113077   3.645   2.435   5.648 -0.1251 -0.0308 -0.1798
  860loPI    C213078   3.571   2.766   5.435 -0.2427  0.1980  0.2058
  860loPI    C313079   3.279   2.501   5.502 -0.1497  0.0135 -0.0990
  860loPI   PO413080   3.742   2.493   5.854 -0.1071  0.1762 -0.0203
  860loPI   GL113081   3.725   2.596   6.318 -0.1989  0.1433 -0.0250
  860loPI   GL213082   3.596   2.257   6.466 -0.1670 -0.1337 -0.2344
  860loPI   C1A13083   3.572   2.724   6.633  0.1960 -0.2622 -0.0865
  860loPI   C2A13084   3.551   2.767   7.088 -0.0783  0.0793  0.1211
  860loPI   C3A13085   3.651   2.805   7.510  0.1328  0.3655 -0.0445
  860loPI   C4A13086   3.695   2.715   7.965 -0.2340  0.2079 -0.0769
  860loPI   C5A13087   3.630   2.676   8.347 -0.1905  0.2943  0.2384
  860loPI   C6A13088   3.634   2.779   8.724  0.1425 -0.0509 -0.2420
  860loPI   C1B13089   3.448   2.290   6.828 -0.2253  0.2904  0.1983
  860loPI   C2B13090   3.446   2.270   7.251  0.4104  0.1598  0.1734
  860loPI   C3B13091   3.481   2.235   7.739  0.0407 -0.1074  0.2107
  860loPI   C4B13092   3.457   2.000   8.132  0.2215 -0.0214  0.0998
  861loPI    C113093   8.483   8.824   5.690  0.0809  0.1450  0.1352
  861loPI    C213094   8.168   8.936   5.470  0.1001  0.1257  0.0978
  861loPI    C313095   8.398   8.633   5.349  0.1128  0.1174  0.1427
  861loPI   PO413096   8.431   8.827   6.006  0.3380 -0.0574  0.1040
  861loPI   GL113097   8.349   8.692   6.394  0.1134 -0.0441  0.4112
  861loPI   GL213098   8.218   8.349   6.476 -0.1914 -0.0157  0.0191
  861loPI   C1A13099   8.569   8.593   6.746  0.0141  0.0751 -0.0013
  861loPI   C2A13100   8.557   8.670   7.111 -0.0801  0.3844  0.1434
  861loPI   C3A13101   8.620   8.563   7.481 -0.1519  0.0728  0.2345
  861loPI   C4A13102   8.663   8.566   7.893 -0.1028  0.0777  0.0248
  861loPI   C5A13103   8.779   8.648   8.358  0.2565 -0.0766 -0.0581
  861loPI   C6A13104   8.745   8.826   8.778 -0.1263 -0.1530  0.1843
  861loPI   C1B13105   8.091   8.484   6.908 -0.1725  0.1513 -0.2417
  861loPI   C2B13106   8.063   8.653   7.298  0.0114  0.0233  0.1063
  861loPI   C3B13107   8.159   8.509   7.775 -0.2896 -0.0031  0.1304
  861loPI   C4B13108   8.194   8.526   8.145 -0.1205  0.2129  0.1470
  862loPI    C113109   0.891   7.618   5.945 -0.2673  0.3487 -0.2866
  862loPI    C213110   1.186   7.582   5.677  0.1470 -0.4058  0.2349
  862loPI    C313111   0.812   7.484   5.577  0.2203 -0.2784 -0.1807
  862loPI   PO413112   0.958   7.543   6.152 -0.2200 -0.0788  0.0650
  862loPI   GL113113   0.845   7.222   6.501  0.1009  0.0672 -0.4143
  862loPI   GL213114   0.974   7.221   6.818 -0.1250 -0.0911 -0.2293
  862loPI   C1A13115   0.654   6.865   6.696  0.1552  0.1253  0.0532
  862loPI   C2A13116   0.651   6.688   7.119 -0.0564 -0.0280  0.3192
  862loPI   C3A13117   0.589   6.584   7.496  0.2239 -0.0871  0.0792
  862loPI   C4A13118   0.400   6.447   7.777  0.1331 -0.1224  0.1729
  862loPI   C5A13119   0.431   6.562   8.220 -0.1543  0.2169 -0.2524
  862loPI   C6A13120   0.677   6.591   8.580  0.1850  0.2278  0.1036
  862loPI   C1B13121   1.131   7.543   7.040  0.0823 -0.0757  0.0174
  862loPI   C2B13122   1.145   7.627   7.481 -0.2627 -0.0735  0.2004
  862loPI   C3B13123   1.213   7.632   7.892  0.4619 -0.2195  0.2903
  862loPI   C4B13124   1.247   7.346   8.139 -0.2114 -0.0321  0.1571
  863loPI    C113125  17.304   1.343   5.587  0.1298 -0.2354  0.0458
  863loPI    C213126  17.002   1.442   5.345  0.0090  0.0616  0.3107
  863loPI    C313127  17.370   1.397   5.196 -0.1044  0.0135  0.0374
  863loPI   PO413128  17.195   1.314   5.845 -0.0042  0.2021 -0.1529
  863loPI   GL113129  17.359   1.205   6.170 -0.2507  0.2602  0.2450
  863loPI   GL213130  17.039   1.141   6.317 -0.0906 -0.2557 -0.2141
  863loPI   C1A13131  17.446   1.378   6.540 -0.4366 -0.2261 -0.1333
  863loPI   C2A13132  17.511   1.407   6.925  0.0097  0.2797 -0.0871
  863loPI   C3A13133  17.475   1.407   7.406  0.2926  0.1905 -0.0582
  863loPI   C4A13134  17.520   1.467   7.856  0.2644  0.0299  0.1636
  863loPI   C5A13135  17.292   1.397   8.203 -0.4308  0.0968 -0.0722
  863loPI   C6A13136  16.874   1.659   8.356  0.1679  0.3219  0.0677
  863loPI   C1B13137  16.959   1.340   6.673 -0.1423  0.1094 -0.0167
  863loPI   C2B13138  16.907   1.414   7.072  0.1854  0.0624 -0.0155
  863loPI   C3B13139  16.975   1.259   7.446 -0.0044 -0.3181 -0.2473
  863loPI   C4B13140  16.879   1.347   7.910 -0.0052 -0.0435  0.5353
  864loPI    C113141  11.362   2.856   5.975  0.0560 -0.0361  0.3211
  864loPI    C213142  11.740   2.732   6.016  0.0962 -0.0766 -0.1230
  864loPI    C313143  11.532   2.636   5.688 -0.1674  0.2842 -0.0675
  864loPI   PO413144  11.294   2.876   6.261  0.1831  0.1397 -0.2559
  864loPI   GL113145  11.024   2.661   6.490  0.0051 -0.0662 -0.0135
  864loPI   GL213146  10.720   2.541   6.527  0.1072  0.0109  0.2899
  864loPI   C1A13147  11.180   2.622   6.898 -0.2167 -0.1312  0.1301
  864loPI   C2A13148  11.163   2.664   7.370  0.0137  0.1348  0.2292
  864loPI   C3A13149  11.202   2.686   7.859  0.2093 -0.0159 -0.2593
  864loPI   C4A13150  11.186   2.797   8.309  0.0158 -0.1311 -0.1163
  864loPI   C5A13151  11.176   2.912   8.701 -0.0581 -0.1211  0.0480
  864loPI   C6A13152  11.438   3.240   8.946 -0.3704  0.0045 -0.3012
  864loPI   C1B13153  10.685   2.603   6.923 -0.2224 -0.0801 -0.0668
  864loPI   C2B13154  10.719   2.506   7.350 -0.3194  0.1304  0.2051
  864loPI   C3B13155  10.660   2.636   7.802 -0.1348  0.2648 -0.0191
  864loPI   C4B13156  10.715   2.627   8.231 -0.2478 -0.3744 -0.0583
  865loPI    C113157  15.029  16.406   5.433 -0.1394  0.2013 -0.0888
  865loPI    C213158  14.699  16.455   5.212 -0.1751  0.0938 -0.0601
  865loPI    C313159  14.819  16.087   5.313 -0.0547  0.1335 -0.0580
  865loPI   PO413160  15.080  16.522   5.638  0.2254  0.2093 -0.3139
  865loPI   GL113161  15.235  16.421   6.010  0.0562 -0.2508 -0.0545
  865loPI   GL213162  15.333  16.138   6.169  0.1379  0.1477 -0.1838
  865loPI   C1A13163  14.955  16.345   6.376 -0.1522 -0.0326 -0.1165
  865loPI   C2A13164  14.866  16.482   6.808  0.0326  0.1233 -0.1175
  865loPI   C3A13165  14.851  16.535   7.276 -0.0259 -0.0890  0.4548
  865loPI   C4A13166  14.756  16.600   7.718 -0.0930  0.0499  0.0097
  865loPI   C5A13167  14.905  16.614   8.090 -0.1525  0.0401  0.0440
  865loPI   C6A13168  15.247  16.544   8.365 -0.1055  0.3006 -0.2257
  865loPI   C1B13169  15.236  16.106   6.687 -0.1363 -0.1088  0.1638
  865loPI   C2B13170  15.237  16.120   7.141  0.0491  0.0064 -0.0563
  865loPI   C3B13171  15.224  16.246   7.610 -0.1272  0.2628  0.0934
  865loPI   C4B13172  15.206  16.090   8.014 -0.1439  0.0018 -0.1170
  866loPI    C113173   4.207  14.224   6.104  0.0123 -0.1507 -0.0355
  866loPI    C213174   4.529  14.148   5.880  0.0725  0.2319 -0.0871
  866loPI    C313175   4.182  14.240   5.705  0.0129  0.1251 -0.0264
  866loPI   PO413176   4.252  14.411   6.314 -0.0393  0.2651  0.1748
  866loPI   GL113177   4.118  14.448   6.748  0.0039  0.0792  0.1808
  866loPI   GL213178   3.946  14.741   6.592  0.2156  0.0964  0.3319
  866loPI   C1A13179   4.133  14.489   7.225  0.1960  0.0746 -0.0665
  866loPI   C2A13180   4.286  14.423   7.575 -0.1203  0.3103 -0.0850
  866loPI   C3A13181   4.188  14.353   7.969 -0.2565 -0.1909 -0.1626
  866loPI   C4A13182   4.023  14.557   8.266 -0.0254 -0.2573  0.1037
  866loPI   C5A13183   3.948  14.592   8.753  0.1613  0.1113  0.1742
  866loPI   C6A13184   3.633  14.421   8.969  0.1018  0.2992 -0.0636
  866loPI   C1B13185   3.783  14.738   6.974 -0.1305  0.0107  0.1368
  866loPI   C2B13186   3.865  14.808   7.479  0.2375  0.0039  0.3100
  866loPI   C3B13187   3.832  14.856   7.860 -0.1557 -0.0590 -0.0698
  866loPI   C4B13188   3.822  15.016   8.280 -0.0180 -0.1320 -0.1544
  867loPI    C113189  10.304   2.981   5.791  0.2017 -0.0390  0.0645
  867loPI    C213190  10.441   2.626   5.669  0.0959 -0.0979  0.1161
  867loPI    C313191  10.203   2.841   5.430  0.2391 -0.0167  0.0452
  867loPI   PO413192  10.309   2.946   6.084  0.0615  0.1734  0.0187
  867loPI   GL113193  10.648   3.093   6.337 -0.0035  0.2743 -0.2401
  867loPI   GL213194  10.648   3.471   6.468  0.0922 -0.0460 -0.0601
  867loPI   C1A13195  10.433   3.035   6.716  0.4339  0.0140  0.0491
  867loPI   C2A13196  10.333   2.896   7.097 -0.0392 -0.1025  0.0326
  867loPI   C3A13197  10.325   2.929   7.480 -0.2223  0.0726 -0.1833
  867loPI   C4A13198  10.341   3.021   7.935  0.0252  0.0789  0.0974
  867loPI   C5A13199  10.323   2.881   8.334  0.1039  0.0307 -0.2821
  867loPI   C6A13200  10.234   2.916   8.846  0.2899  0.0832 -0.2503
  867loPI   C1B13201  10.501   3.501   6.823 -0.2228 -0.1413  0.3233
  867loPI   C2B13202  10.496   3.394   7.228  0.3855 -0.1911  0.4882
  867loPI   C3B13203  10.462   3.481   7.673 -0.0094 -0.0441 -0.0355
  867loPI   C4B13204  10.521   3.527   8.123 -0.1817  0.0474 -0.1521
  868loPI    C113205  11.908   6.549   5.788  0.0107  0.2680  0.0658
  868loPI    C213206  11.714   6.213   5.688  0.0393  0.2901 -0.0654
  868loPI    C313207  12.067   6.299   5.520  0.0827  0.3339  0.0468
  868loPI   PO413208  12.010   6.518   6.109  0.0489 -0.0532 -0.1849
  868loPI   GL113209  11.883   6.598   6.488  0.0890  0.0636 -0.2839
  868loPI   GL213210  12.290   6.654   6.561  0.2614 -0.0619  0.2724
  868loPI   C1A13211  11.775   6.558   6.976  0.0185 -0.2476 -0.0566
  868loPI   C2A13212  11.793   6.543   7.446  0.2773 -0.1220  0.2744
  868loPI   C3A13213  11.917   6.541   7.886  0.2627  0.2303  0.3146
  868loPI   C4A13214  12.122   6.663   8.278  0.2729 -0.1847  0.1511
  868loPI   C5A13215  12.279   6.731   8.676  0.0227  0.1152  0.2479
  868loPI   C6A13216  12.113   7.042   8.912 -0.0956  0.3185  0.1706
  868loPI   C1B13217  12.320   6.658   7.065 -0.1172 -0.3312  0.1021
  868loPI   C2B13218  12.319   6.637   7.435  0.2096 -0.0022 -0.2910
  868loPI   C3B13219  12.444   6.686   7.879  0.3604  0.1884 -0.1867
  868loPI   C4B13220  12.602   6.684   8.244 -0.2871 -0.1411  0.2903
  869loPI    C113221   2.365   6.053   5.655 -0.1229 -0.3532 -0.0998
  869loPI    C213222   2.732   5.894   5.643  0.1267  0.1770  0.1654
  869loPI    C313223   2.432   5.720   5.443  0.5020 -0.3022 -0.0009
  869loPI   PO413224   2.392   6.171   5.973 -0.0801  0.1069 -0.0193
  869loPI   GL113225   2.304   5.996   6.429  0.2291 -0.1496  0.0205
  869loPI   GL213226   2.651   6.048   6.475  0.0284  0.0824  0.1157
  869loPI   C1A13227   2.315   6.024   6.880  0.0491 -0.2678 -0.1969
  869loPI   C2A13228   2.253   6.001   7.325 -0.0549 -0.1971 -0.0766
  869loPI   C3A13229   2.240   5.949   7.749  0.1247 -0.0150  0.0319
  869loPI   C4A13230   2.294   6.028   8.067 -0.0419 -0.3273 -0.0098
  869loPI   C5A13231   2.309   6.228   8.612 -0.2412 -0.1468 -0.1447
  869loPI   C6A13232   2.391   6.216   9.088 -0.0586 -0.3014  0.0961
  869loPI   C1B13233   2.690   5.726   6.747  0.0183 -0.1236  0.1323
  869loPI   C2B13234   2.716   5.725   7.094  0.0025  0.1388 -0.2908
  869loPI   C3B13235   3.178   5.833   7.298 -0.2659  0.0573 -0.0747
  869loPI   C4B13236   3.236   5.852   7.688 -0.1118 -0.2687 -0.3612
  870loPI    C113237  14.520   5.275   5.621 -0.0967 -0.0957  0.1790
  870loPI    C213238  14.788   5.192   5.335 -0.0842  0.0875  0.1358
  870loPI    C313239  14.403   5.096   5.283 -0.0510 -0.0492  0.1382
  870loPI   PO413240  14.749   5.324   5.847  0.1645 -0.0533 -0.1809
  870loPI   GL113241  14.823   5.281   6.266  0.1227 -0.0481 -0.2295
  870loPI   GL213242  14.495   5.407   6.296  0.0263 -0.4306 -0.0845
  870loPI   C1A13243  14.732   5.153   6.703 -0.0663  0.1291 -0.1261
  870loPI   C2A13244  14.699   4.971   7.122  0.0284 -0.2075 -0.1272
  870loPI   C3A13245  14.773   4.918   7.524  0.1166  0.1561  0.1180
  870loPI   C4A13246  14.757   4.977   8.119 -0.3009  0.0718  0.0393
  870loPI   C5A13247  14.718   4.775   8.510  0.5212  0.0759 -0.2624
  870loPI   C6A13248  14.954   4.579   8.839  0.1803 -0.3364  0.3613
  870loPI   C1B13249  14.313   5.460   6.679  0.1596  0.2011 -0.1096
  870loPI   C2B13250  14.344   5.397   7.026  0.1106 -0.4312 -0.5628
  870loPI   C3B13251  14.371   5.309   7.476 -0.0109 -0.2102 -0.2399
  870loPI   C4B13252  14.432   5.235   7.898 -0.1675  0.1647  0.0109
  871loPI    C113253   3.217   4.582   5.563 -0.0375 -0.0093  0.0407
  871loPI    C213254   3.365   4.405   5.236  0.0641 -0.1627  0.1679
  871loPI    C313255   3.051   4.651   5.206  0.1711 -0.0518 -0.0660
  871loPI   PO413256   3.419   4.679   5.720  0.1737 -0.0161 -0.1454
  871loPI   GL113257   3.515   4.767   6.163  0.3640  0.1199 -0.1352
  871loPI   GL213258   3.753   4.733   6.362 -0.2498  0.2600  0.1116
  871loPI   C1A13259   3.300   4.610   6.567 -0.0210 -0.3437 -0.0528
  871loPI   C2A13260   3.257   4.441   6.861  0.0465  0.2617  0.3359
  871loPI   C3A13261   3.156   4.443   7.201  0.1857  0.1291 -0.0458
  871loPI   C4A13262   3.168   4.434   7.674  0.1657  0.1100  0.0064
  871loPI   C5A13263   3.054   4.464   8.099 -0.2980  0.0066 -0.3737
  871loPI   C6A13264   2.988   4.725   8.518  0.1051 -0.0202  0.1294
  871loPI   C1B13265   3.757   4.651   6.821 -0.1110 -0.0524  0.0641
  871loPI   C2B13266   3.611   4.559   7.190  0.1169  0.1240  0.0108
  871loPI   C3B13267   3.699   4.563   7.634 -0.0490  0.0416  0.1959
  871loPI   C4B13268   3.577   4.593   8.082 -0.2359 -0.2573  0.1284
  872loPI    C113269  10.027   5.046   5.807 -0.0619 -0.0413 -0.1076
  872loPI    C213270  10.250   5.347   5.667 -0.3831  0.1300 -0.2615
  872loPI    C313271  10.150   5.044   5.426  0.1354 -0.2274 -0.0450
  872loPI   PO413272  10.172   4.956   6.075 -0.0226 -0.0632  0.0948
  872loPI   GL113273  10.031   4.893   6.411  0.3479 -0.1048  0.0617
  872loPI   GL213274  10.012   5.199   6.510 -0.2395 -0.2574 -0.0581
  872loPI   C1A13275   9.846   4.722   6.775 -0.0064 -0.0540  0.3134
  872loPI   C2A13276   9.787   4.627   7.164 -0.0582  0.0048 -0.2009
  872loPI   C3A13277   9.866   4.729   7.566 -0.2479 -0.0974 -0.3218
  872loPI   C4A13278   9.987   4.704   7.960  0.0803  0.0014 -0.1208
  872loPI   C5A13279  10.059   4.840   8.300 -0.2623 -0.0492  0.1546
  872loPI   C6A13280   9.891   5.144   8.520  0.1194  0.0329  0.1836
  872loPI   C1B13281   9.960   5.241   6.926  0.1200  0.2152 -0.0128
  872loPI   C2B13282  10.054   5.190   7.400  0.0430  0.0430  0.2944
  872loPI   C3B13283  10.108   5.197   7.797  0.2369  0.0654 -0.0860
  872loPI   C4B13284  10.239   5.282   8.147 -0.1729 -0.1493 -0.3481
  873loPI    C113285  13.250   1.191   5.613  0.1379 -0.0705  0.0401
  873loPI    C213286  13.005   0.919   5.451  0.2529 -0.0626 -0.1497
  873loPI    C313287  13.129   1.232   5.234  0.2899  0.0286  0.0013
  873loPI   PO413288  13.141   1.249   5.863 -0.0843 -0.2476 -0.2170
  873loPI   GL113289  13.092   1.244   6.235 -0.1289 -0.5565 -0.0252
  873loPI   GL213290  12.854   1.464   6.453 -0.0553  0.1879  0.0046
  873loPI   C1A13291  13.277   1.214   6.604  0.0470 -0.1050 -0.0578
  873loPI   C2A13292  13.272   1.221   7.038  0.0546 -0.0572  0.0319
  873loPI   C3A13293  13.183   1.292   7.435  0.2367  0.0927  0.3833
  873loPI   C4A13294  13.071   1.298   7.926 -0.1159 -0.1033  0.1684
  873loPI   C5A13295  13.262   1.570   8.173  0.0772 -0.0175 -0.1504
  873loPI   C6A13296  13.578   1.773   8.317 -0.0172 -0.1053 -0.0390
  873loPI   C1B13297  12.934   1.548   6.853  0.0926 -0.0061  0.1565
  873loPI   C2B13298  12.747   1.634   7.221  0.0897  0.0881 -0.0021
  873loPI   C3B13299  12.833   1.716   7.645  0.1961  0.0228  0.0159
  873loPI   C4B13300  12.754   1.679   8.050 -0.1096  0.1324  0.0623
  874loPI    C113301   8.377   0.178   5.698  0.0324  0.1741  0.0782
  874loPI    C213302   8.046   0.156   5.474  0.1156 -0.1505 -0.0181
  874loPI    C313303   8.373   0.336   5.331  0.0449 -0.0065 -0.0006
  874loPI   PO413304   8.191   0.143   5.988  0.0907 -0.1254 -0.2590
  874loPI   GL113305   8.014   0.283   6.330  0.0522  0.3774  0.3711
  874loPI   GL213306   7.760   0.321   6.330 -0.0356 -0.0456 -0.2426
  874loPI   C1A13307   8.295   0.355   6.691 -0.1095 -0.1627  0.1743
  874loPI   C2A13308   8.224   0.549   7.038 -0.1186 -0.3104 -0.1431
  874loPI   C3A13309   8.204   0.519   7.422 -0.0849 -0.1460  0.1046
  874loPI   C4A13310   8.121   0.616   7.831  0.3968 -0.1169  0.2766
  874loPI   C5A13311   8.162   0.724   8.186  0.0792  0.1657  0.1512
  874loPI   C6A13312   8.057   0.616   8.626 -0.0718  0.3566 -0.0765
  874loPI   C1B13313   7.774   0.382   6.746 -0.2939  0.2467  0.2117
  874loPI   C2B13314   7.724   0.418   7.164  0.0050 -0.2009  0.0871
  874loPI   C3B13315   7.625   0.481   7.565 -0.1843 -0.0590 -0.1588
  874loPI   C4B13316   7.609   0.509   8.047 -0.2194  0.0365 -0.0045
  875loPI    C113317   7.580   4.017   5.938  0.0694 -0.0830 -0.0124
  875loPI    C213318   7.648   4.204   5.591 -0.1116  0.2931  0.1492
  875loPI    C313319   7.785   3.833   5.648 -0.1488  0.1954 -0.3519
  875loPI   PO413320   7.530   4.234   6.090  0.1450  0.1339 -0.1395
  875loPI   GL113321   7.093   4.348   6.265  0.1026 -0.5461 -0.0862
  875loPI   GL213322   7.255   4.709   6.148  0.2623 -0.4697  0.0996
  875loPI   C1A13323   7.026   4.440   6.652 -0.4618  0.1475  0.1063
  875loPI   C2A13324   6.835   4.439   7.024 -0.0589  0.0120 -0.1344
  875loPI   C3A13325   6.876   4.468   7.499 -0.1165  0.4596 -0.1960
  875loPI   C4A13326   6.901   4.403   7.924 -0.1769  0.2080 -0.2409
  875loPI   C5A13327   6.995   4.490   8.303  0.0159 -0.1299  0.1321
  875loPI   C6A13328   7.176   4.769   8.670 -0.3220 -0.0423  0.2672
  875loPI   C1B13329   7.417   4.701   6.556  0.1561  0.0844  0.1661
  875loPI   C2B13330   7.433   4.493   6.946  0.1727  0.1065 -0.0291
  875loPI   C3B13331   7.410   4.503   7.370  0.1690 -0.1894 -0.3075
  875loPI   C4B13332   7.375   4.595   7.865 -0.1804 -0.1700  0.2243
  876loPI    C113333   6.670   7.582   5.786 -0.1214 -0.1059  0.3655
  876loPI    C213334   6.358   7.654   5.546  0.1743  0.0062  0.0038
  876loPI    C313335   6.442   7.280   5.658 -0.0927 -0.0233  0.1125
  876loPI   PO413336   6.642   7.823   5.970 -0.1756  0.0296 -0.0025
  876loPI   GL113337   6.443   7.970   6.326  0.1022 -0.1175 -0.2285
  876loPI   GL213338   6.191   7.903   6.484  0.0800  0.0681  0.1280
  876loPI   C1A13339   6.617   8.063   6.715  0.1169  0.3244  0.4986
  876loPI   C2A13340   6.658   8.049   7.166 -0.0888 -0.2263  0.2214
  876loPI   C3A13341   6.668   8.139   7.558 -0.2425 -0.2700  0.1231
  876loPI   C4A13342   6.641   8.183   7.976  0.0570 -0.1014  0.2799
  876loPI   C5A13343   6.647   8.196   8.376  0.0298 -0.0363 -0.1366
  876loPI   C6A13344   7.037   8.031   8.688  0.1580  0.0883  0.1645
  876loPI   C1B13345   6.152   7.984   6.889  0.0286  0.0242  0.0954
  876loPI   C2B13346   6.145   7.934   7.312 -0.0231 -0.1861  0.2174
  876loPI   C3B13347   6.147   8.083   7.723  0.0604 -0.2570  0.2015
  876loPI   C4B13348   6.151   7.948   8.213 -0.0701  0.1629 -0.1352
  877loPI    C113349  17.039  16.317   5.340 -0.0559  0.2208  0.1685
  877loPI    C213350  16.779  16.381   5.043  0.1157 -0.0381 -0.0420
  877loPI    C313351  17.036  16.669   5.149  0.0443  0.0606 -0.1340
  877loPI   PO413352  16.879  16.327   5.549  0.3096  0.1221  0.0435
  877loPI   GL113353  16.675  16.184   5.938 -0.0641 -0.0074 -0.0232
  877loPI   GL213354  16.387  16.064   5.924  0.2082 -0.2554  0.1804
  877loPI   C1A13355  16.716  16.486   6.295  0.3190  0.2498  0.1148
  877loPI   C2A13356  16.755  16.565   6.816  0.1527 -0.1512 -0.1015
  877loPI   C3A13357  16.681  16.510   7.279  0.0501 -0.0078  0.1079
  877loPI   C4A13358  16.681  16.612   7.662 -0.3448 -0.3020  0.1050
  877loPI   C5A13359  16.831  16.609   8.075 -0.0664  0.3411  0.1490
  877loPI   C6A13360  16.580  16.541   8.401 -0.1908  0.0759  0.0266
  877loPI   C1B13361  16.507  15.979   6.442  0.0575  0.3064  0.0744
  877loPI   C2B13362  16.521  16.115   6.935 -0.2161  0.1186 -0.1795
  877loPI   C3B13363  16.540  16.054   7.408 -0.1189  0.3405 -0.1548
  877loPI   C4B13364  16.620  16.103   7.874 -0.0122  0.0410 -0.2809
  878loPI    C113365  15.759  10.688   6.070  0.1236  0.3700  0.1016
  878loPI    C213366  15.816  10.475   5.737  0.0843  0.0209  0.3129
  878loPI    C313367  15.503  10.723   5.764 -0.0231 -0.0955  0.1629
  878loPI   PO413368  15.777  10.516   6.225 -0.0470  0.0952 -0.1328
  878loPI   GL113369  15.831  10.390   6.553  0.1307  0.3165 -0.0757
  878loPI   GL213370  15.872  10.156   6.759 -0.1235  0.0453 -0.1743
  878loPI   C1A13371  15.525  10.457   6.970  0.1326 -0.0794  0.1147
  878loPI   C2A13372  15.512  10.502   7.349  0.2314  0.0017  0.0228
  878loPI   C3A13373  15.515  10.416   7.717 -0.3056  0.0462  0.0394
  878loPI   C4A13374  15.893  10.333   8.022 -0.1024 -0.4055 -0.2513
  878loPI   C5A13375  16.197  10.170   8.360 -0.1830 -0.3941  0.1493
  878loPI   C6A13376  16.387   9.688   8.467  0.1285 -0.0408 -0.2049
  878loPI   C1B13377  15.698  10.048   7.150  0.2572  0.0105 -0.1856
  878loPI   C2B13378  15.779  10.031   7.638 -0.2771 -0.1548 -0.1390
  878loPI   C3B13379  15.581   9.888   8.066 -0.4242 -0.0885 -0.2851
  878loPI   C4B13380  15.232   9.729   8.345 -0.0826  0.2862  0.0827
  879loPI    C113381  11.813  11.779   5.618 -0.3341  0.2726 -0.0654
  879loPI    C213382  11.519  11.555   5.467 -0.1369 -0.0405  0.0050
  879loPI    C313383  11.737  11.787   5.225 -0.0808 -0.2339 -0.1326
  879loPI   PO413384  11.780  11.725   5.870  0.1593 -0.1503 -0.4290
  879loPI   GL113385  11.745  11.702   6.308 -0.0223  0.1081 -0.4226
  879loPI   GL213386  11.589  11.435   6.322 -0.3407 -0.0069 -0.0285
  879loPI   C1A13387  11.982  11.637   6.707 -0.1466 -0.3176 -0.0192
  879loPI   C2A13388  12.006  11.722   7.121 -0.2333  0.0647  0.1519
  879loPI   C3A13389  11.931  11.741   7.566  0.1001 -0.1447  0.4644
  879loPI   C4A13390  11.868  11.979   7.954  0.0559  0.0572 -0.2723
  879loPI   C5A13391  11.468  12.107   8.169  0.1138  0.1303  0.0671
  879loPI   C6A13392  11.266  11.955   8.441 -0.2049  0.0502 -0.0194
  879loPI   C1B13393  11.472  11.564   6.793  0.3562 -0.1092  0.1666
  879loPI   C2B13394  11.493  11.538   7.190  0.1556 -0.0105 -0.1482
  879loPI   C3B13395  11.470  11.570   7.613  0.1650  0.0475  0.1146
  879loPI   C4B13396  11.357  11.587   8.064  0.0258  0.0900  0.1605
  880loPI    C113397   1.960   8.900   5.900  0.1829 -0.0023 -0.1882
  880loPI    C213398   2.229   9.065   6.146  0.0036 -0.0850  0.0688
  880loPI    C313399   2.306   9.037   5.754  0.2172  0.2131  0.0860
  880loPI   PO413400   1.877   8.696   6.075  0.2001  0.0613 -0.1192
  880loPI   GL113401   1.551   8.721   6.363 -0.4226 -0.1538  0.1995
  880loPI   GL213402   1.800   9.012   6.491  0.1797  0.1078  0.1649
  880loPI   C1A13403   1.733   8.532   6.715 -0.0819 -0.2500 -0.1133
  880loPI   C2A13404   1.683   8.330   7.138  0.1929  0.0106 -0.2977
  880loPI   C3A13405   1.907   8.033   7.480  0.1771  0.1163  0.3475
  880loPI   C4A13406   1.960   8.077   7.869  0.3040  0.1215 -0.1005
  880loPI   C5A13407   2.110   7.943   8.327  0.4221  0.0060 -0.2865
  880loPI   C6A13408   2.263   7.641   8.571  0.0641  0.0816  0.0408
  880loPI   C1B13409   1.777   8.986   6.937 -0.0557  0.0154  0.1401
  880loPI   C2B13410   1.893   8.839   7.324  0.2224 -0.0867 -0.1269
  880loPI   C3B13411   1.813   8.534   7.547  0.0655 -0.0145  0.2180
  880loPI   C4B13412   1.633   8.483   7.939 -0.4733 -0.1234  0.2228
  881loPI    C113413  12.251   4.072   6.133  0.1577 -0.0344  0.1610
  881loPI    C213414  12.351   3.782   5.877 -0.0126 -0.0765  0.1411
  881loPI    C313415  12.627   3.936   6.123  0.1507 -0.0405 -0.0622
  881loPI   PO413416  12.113   4.106   6.271  0.0252 -0.0421  0.0540
  881loPI   GL113417  12.237   4.245   6.630 -0.0221 -0.0391 -0.0394
  881loPI   GL213418  11.822   4.194   6.752  0.1502 -0.0586  0.3490
  881loPI   C1A13419  12.214   4.350   7.065 -0.1325  0.0181 -0.2489
  881loPI   C2A13420  12.207   4.406   7.537 -0.2727 -0.4671  0.1631
  881loPI   C3A13421  12.247   4.335   8.006 -0.1648  0.1382 -0.1528
  881loPI   C4A13422  12.277   4.201   8.379 -0.1795  0.0969 -0.1207
  881loPI   C5A13423  12.598   4.031   8.657  0.0948 -0.0202 -0.2766
  881loPI   C6A13424  13.078   4.071   8.639  0.2413 -0.0326 -0.1130
  881loPI   C1B13425  11.692   4.134   7.169 -0.0399 -0.1459  0.0660
  881loPI   C2B13426  11.661   4.110   7.607  0.2736 -0.0067  0.0906
  881loPI   C3B13427  11.693   4.183   7.981 -0.0285 -0.1732  0.0161
  881loPI   C4B13428  11.715   4.098   8.449 -0.0461  0.0681  0.4628
  882loPI    C113429   1.475  12.498   5.584  0.0669 -0.0294 -0.1089
  882loPI    C213430   1.622  12.870   5.573  0.0686 -0.0253  0.0340
  882loPI    C313431   1.561  12.669   5.232 -0.0508  0.1519 -0.0512
  882loPI   PO413432   1.351  12.510   5.845 -0.0066 -0.0945  0.0666
  882loPI   GL113433   1.417  12.502   6.243  0.0130 -0.1586  0.3844
  882loPI   GL213434   1.687  12.429   6.491 -0.1150 -0.3533 -0.0017
  882loPI   C1A13435   1.321  12.748   6.658  0.1428 -0.2043  0.1814
  882loPI   C2A13436   1.330  12.890   7.097  0.5057 -0.0317 -0.1087
  882loPI   C3A13437   1.361  12.974   7.533  0.0552 -0.1343  0.1674
  882loPI   C4A13438   1.277  12.897   7.960  0.0776 -0.0266 -0.0965
  882loPI   C5A13439   1.017  12.853   8.296 -0.2704  0.1828  0.1073
  882loPI   C6A13440   0.943  12.933   8.690  0.3202  0.0420  0.2055
  882loPI   C1B13441   1.554  12.417   6.933 -0.0613  0.0531 -0.1951
  882loPI   C2B13442   1.660  12.546   7.376  0.2314 -0.0078  0.1528
  882loPI   C3B13443   1.688  12.578   7.852  0.2110 -0.3603 -0.1141
  882loPI   C4B13444   1.587  12.527   8.306  0.2254  0.2535 -0.1436
  883loPI    C113445  12.974   3.581   6.039  0.0879 -0.1341 -0.2909
  883loPI    C213446  12.978   3.182   6.069  0.0218 -0.1211 -0.0977
  883loPI    C313447  13.193   3.364   5.784  0.1537 -0.2873 -0.1056
  883loPI   PO413448  12.952   3.624   6.384 -0.1355  0.0970 -0.0805
  883loPI   GL113449  12.935   3.422   6.709 -0.1931  0.0300 -0.3075
  883loPI   GL213450  12.614   3.343   6.663 -0.0198  0.0803 -0.0339
  883loPI   C1A13451  13.027   3.539   7.082 -0.1633  0.1972 -0.1740
  883loPI   C2A13452  12.995   3.547   7.553 -0.0884 -0.3405 -0.0887
  883loPI   C3A13453  12.959   3.501   7.977  0.2833 -0.3578 -0.1594
  883loPI   C4A13454  12.935   3.387   8.433 -0.1284 -0.2877 -0.2375
  883loPI   C5A13455  13.059   3.619   8.589  0.1111 -0.0630 -0.0193
  883loPI   C6A13456  12.992   3.743   9.059 -0.0991 -0.0962  0.0875
  883loPI   C1B13457  12.501   3.366   7.064 -0.0501 -0.0218  0.0598
  883loPI   C2B13458  12.412   3.472   7.491 -0.1374  0.0100 -0.4121
  883loPI   C3B13459  12.463   3.408   7.985  0.0516 -0.1391 -0.1352
  883loPI   C4B13460  12.312   3.393   8.390  0.0075 -0.1145  0.1766
  884loPI    C113461   5.747   1.141   5.656 -0.0066 -0.2251 -0.0159
  884loPI    C213462   6.133   1.242   5.623  0.0360 -0.4177 -0.1221
  884loPI    C313463   5.907   1.205   5.295 -0.1408 -0.0553 -0.0465
  884loPI   PO413464   5.770   1.021   5.926 -0.0474 -0.3292 -0.0386
  884loPI   GL113465   5.658   1.202   6.348  0.1164 -0.1495 -0.0324
  884loPI   GL213466   5.560   1.453   6.400  0.0833  0.0007  0.0946
  884loPI   C1A13467   5.874   0.977   6.727  0.0293  0.1061 -0.0537
  884loPI   C2A13468   5.893   1.067   7.129  0.0799 -0.1267 -0.3085
  884loPI   C3A13469   5.952   0.998   7.436  0.0175 -0.0607  0.1037
  884loPI   C4A13470   5.939   0.998   7.893  0.1288 -0.0268  0.0644
  884loPI   C5A13471   6.191   1.134   8.367 -0.0484  0.0818  0.2394
  884loPI   C6A13472   5.926   1.330   8.683 -0.0290  0.0908  0.3513
  884loPI   C1B13473   5.520   1.401   6.896  0.0243 -0.2422 -0.1220
  884loPI   C2B13474   5.553   1.365   7.364 -0.0354 -0.0866  0.2225
  884loPI   C3B13475   5.554   1.415   7.827  0.3179  0.0765 -0.1884
  884loPI   C4B13476   5.706   1.306   8.206 -0.0326 -0.0981 -0.3732
  885loPI    C113477   3.106  16.743   5.634  0.0342  0.2382 -0.0658
  885loPI    C213478   3.192  16.549   5.295 -0.1342 -0.0220  0.0370
  885loPI    C313479   2.834  16.721   5.342 -0.0509  0.1587  0.0187
  885loPI   PO413480   3.201  16.658   5.831  0.1393 -0.0453  0.1783
  885loPI   GL113481   3.003  16.907   6.154  0.0186 -0.1326 -0.1023
  885loPI   GL213482   2.907  16.527   6.246 -0.0848  0.1130 -0.0500
  885loPI   C1A13483   3.161  16.889   6.469  0.1172  0.2789 -0.0461
  885loPI   C2A13484   3.028  16.902   6.997 -0.1181 -0.0434  0.1096
  885loPI   C3A13485   3.042  16.921   7.355  0.1551 -0.1713 -0.2517
  885loPI   C4A13486   3.089  16.953   7.783  0.1554 -0.1305  0.2304
  885loPI   C5A13487   3.001  16.912   8.229  0.0143  0.2395  0.1297
  885loPI   C6A13488   3.143  16.573   8.520  0.1235 -0.0555  0.5635
  885loPI   C1B13489   2.885  16.449   6.718  0.1166  0.0860  0.1424
  885loPI   C2B13490   2.923  16.438   7.146 -0.0375  0.4242 -0.1591
  885loPI   C3B13491   2.946  16.452   7.644  0.0151 -0.1661 -0.1814
  885loPI   C4B13492   3.028  16.437   8.044 -0.1051 -0.1079 -0.0528
  886loPI    C113493   8.316  14.654   5.878 -0.0445  0.0674  0.2054
  886loPI    C213494   7.984  14.522   5.698  0.0086  0.1005  0.0819
  886loPI    C313495   8.341  14.460   5.529  0.0434  0.3010  0.0791
  886loPI   PO413496   8.286  14.599   6.138  0.2981 -0.0147  0.0392
  886loPI   GL113497   8.493  14.460   6.518 -0.1023 -0.1774 -0.0318
  886loPI   GL213498   8.595  14.212   6.416 -0.0824  0.1118  0.1512
  886loPI   C1A13499   8.603  14.569   6.911 -0.1188 -0.1212  0.0220
  886loPI   C2A13500   8.532  14.551   7.416  0.2473  0.1735 -0.1466
  886loPI   C3A13501   8.508  14.614   7.844 -0.1456 -0.0326 -0.0144
  886loPI   C4A13502   8.589  14.643   8.289  0.0021 -0.4477  0.1018
  886loPI   C5A13503   8.838  14.848   8.629 -0.1115 -0.1445 -0.0016
  886loPI   C6A13504   9.121  14.987   8.937 -0.0045  0.4463  0.0799
  886loPI   C1B13505   8.424  14.111   6.805 -0.0181  0.1522 -0.0044
  886loPI   C2B13506   8.399  14.113   7.165 -0.0371  0.1087 -0.4098
  886loPI   C3B13507   8.359  14.074   7.628  0.0076 -0.1428  0.2438
  886loPI   C4B13508   8.510  14.162   8.100 -0.2849  0.0649 -0.0644
  887loPI    C113509   4.898   6.022   5.730 -0.2360  0.1247 -0.2081
  887loPI    C213510   4.888   6.422   5.741  0.1056  0.1327 -0.0881
  887loPI    C313511   5.193   6.234   5.563 -0.0206 -0.0758 -0.0874
  887loPI   PO413512   4.900   5.956   5.988  0.1894  0.2481 -0.4323
  887loPI   GL113513   5.050   5.866   6.463 -0.2470 -0.0192  0.4083
  887loPI   GL213514   5.204   5.984   6.571  0.0890  0.0718 -0.2431
  887loPI   C1A13515   5.144   5.724   6.974 -0.0601  0.1045  0.0809
  887loPI   C2A13516   5.093   5.821   7.415  0.0875 -0.1764 -0.1370
  887loPI   C3A13517   5.168   5.739   7.850 -0.0555  0.4960 -0.2243
  887loPI   C4A13518   4.941   5.885   8.289 -0.1253 -0.0759  0.1279
  887loPI   C5A13519   5.190   6.268   8.590 -0.3577 -0.0603 -0.0118
  887loPI   C6A13520   5.660   6.339   8.519  0.1040 -0.1089 -0.1896
  887loPI   C1B13521   5.616   5.933   6.940  0.1035 -0.0928  0.0788
  887loPI   C2B13522   5.584   5.943   7.347  0.3348  0.2844 -0.1568
  887loPI   C3B13523   5.592   5.983   7.830  0.0765  0.2577 -0.1539
  887loPI   C4B13524   5.493   5.921   8.276  0.1136 -0.1658 -0.0386
  888loPI    C113525   4.545   2.458   5.679  0.0038 -0.1083 -0.1014
  888loPI    C213526   4.488   2.849   5.617  0.1644 -0.0889 -0.1325
  888loPI    C313527   4.718   2.639   5.367  0.3962 -0.1205  0.1032
  888loPI   PO413528   4.571   2.473   5.923  0.1503  0.2843  0.1715
  888loPI   GL113529   4.606   2.540   6.369 -0.1651 -0.0768 -0.0428
  888loPI   GL213530   4.822   2.584   6.424 -0.1522  0.2696 -0.1281
  888loPI   C1A13531   4.449   2.517   6.812 -0.0645 -0.1455 -0.1260
  888loPI   C2A13532   4.444   2.501   7.285 -0.0195  0.4182  0.0275
  888loPI   C3A13533   4.452   2.633   7.721 -0.0034 -0.1483  0.1668
  888loPI   C4A13534   4.533   2.407   8.127 -0.0576  0.4221 -0.1574
  888loPI   C5A13535   4.643   2.420   8.612  0.1918  0.1661  0.2610
  888loPI   C6A13536   4.995   2.403   8.981 -0.0001 -0.0081 -0.0941
  888loPI   C1B13537   4.871   2.667   6.916 -0.1004 -0.1680 -0.3315
  888loPI   C2B13538   4.891   2.648   7.406  0.0992  0.1028  0.0280
  888loPI   C3B13539   5.037   2.542   7.918 -0.1581 -0.0449  0.1845
  888loPI   C4B13540   5.077   2.354   8.367 -0.1243  0.1182 -0.1486
  889loPI    C113541   1.185  11.114   5.837  0.1343 -0.2544  0.1726
  889loPI    C213542   0.884  11.147   6.098  0.0515 -0.0300  0.0511
  889loPI    C313543   0.835  10.938   5.761  0.0555 -0.0541  0.0654
  889loPI   PO413544   1.391  11.040   6.000 -0.0613 -0.0512  0.1612
  889loPI   GL113545   1.288  10.975   6.459 -0.4218 -0.4293  0.4780
  889loPI   GL213546   1.332  10.684   6.485  0.1373 -0.0182  0.1125
  889loPI   C1A13547   1.400  11.079   6.819 -0.1184 -0.1209  0.0911
  889loPI   C2A13548   1.588  11.132   7.236 -0.2176  0.1758 -0.1623
  889loPI   C3A13549   1.793  11.150   7.716  0.0410 -0.0219 -0.1214
  889loPI   C4A13550   1.544  10.969   7.970  0.1466 -0.0565  0.1596
  889loPI   C5A13551   1.429  11.064   8.330 -0.0320  0.1199 -0.2880
  889loPI   C6A13552   1.462  11.306   8.761 -0.0521  0.0575  0.2331
  889loPI   C1B13553   1.249  10.637   6.997 -0.2164  0.1484 -0.0048
  889loPI   C2B13554   1.429  10.718   7.470 -0.2213  0.0793 -0.1541
  889loPI   C3B13555   1.316  10.535   7.945  0.1378 -0.1063  0.0580
  889loPI   C4B13556   1.528  10.543   8.276 -0.0466 -0.0994  0.1536
  890loPI    C113557   5.416   1.769   5.868 -0.1371 -0.1228 -0.1705
  890loPI    C213558   5.747   1.566   5.964 -0.1302 -0.0996 -0.1450
  890loPI    C313559   5.775   1.937   5.817 -0.1581  0.0465  0.2090
  890loPI   PO413560   5.286   1.733   6.016  0.2071  0.1469 -0.3473
  890loPI   GL113561   5.158   1.760   6.352 -0.1730 -0.4640 -0.4214
  890loPI   GL213562   4.811   1.743   6.251  0.0276 -0.2691 -0.0040
  890loPI   C1A13563   5.181   1.751   6.792 -0.0358  0.1862 -0.1645
  890loPI   C2A13564   5.221   1.791   7.237 -0.0098  0.0018 -0.0583
  890loPI   C3A13565   5.210   1.774   7.737  0.0691  0.2037  0.1133
  890loPI   C4A13566   5.301   1.612   8.226 -0.2011  0.2952 -0.1458
  890loPI   C5A13567   5.551   1.707   8.584 -0.1919  0.0768  0.2852
  890loPI   C6A13568   5.713   1.637   9.050 -0.0035 -0.6262  0.0085
  890loPI   C1B13569   4.650   1.655   6.715  0.0455  0.0283 -0.0618
  890loPI   C2B13570   4.697   1.637   7.185 -0.2525 -0.2299  0.3327
  890loPI   C3B13571   4.718   1.649   7.588 -0.0147 -0.1869  0.1007
  890loPI   C4B13572   4.859   1.613   7.974 -0.0950  0.2312 -0.1119
  891loPI    C113573   3.290  13.395   5.785 -0.2021 -0.0438 -0.0764
  891loPI    C213574   3.652  13.566   5.772 -0.1637 -0.0968  0.2154
  891loPI    C313575   3.526  13.341   5.466 -0.0342  0.0867  0.0236
  891loPI   PO413576   3.398  13.255   6.032  0.2290 -0.0574 -0.0196
  891loPI   GL113577   3.329  13.351   6.419  0.0962 -0.1263  0.0798
  891loPI   GL213578   3.044  13.503   6.470  0.1587 -0.3131 -0.1967
  891loPI   C1A13579   3.368  13.304   6.876  0.1522  0.0985  0.0724
  891loPI   C2A13580   3.403  13.416   7.252  0.1275  0.0903  0.1608
  891loPI   C3A13581   3.376  13.352   7.612 -0.0809 -0.3034  0.1722
  891loPI   C4A13582   3.504  13.378   8.156 -0.0808 -0.0133  0.1266
  891loPI   C5A13583   3.731  13.460   8.521  0.1947 -0.0521 -0.1646
  891loPI   C6A13584   3.993  13.741   8.767 -0.0332  0.0939  0.2206
  891loPI   C1B13585   3.065  13.744   6.902  0.2324  0.2060  0.0517
  891loPI   C2B13586   2.990  13.706   7.418 -0.2025 -0.0810  0.5773
  891loPI   C3B13587   3.106  13.800   7.831 -0.0068 -0.1200 -0.0280
  891loPI   C4B13588   3.089  13.758   8.163 -0.0383  0.1966 -0.2331
  892loPI    C113589   1.910   7.166   5.947 -0.1397  0.1701 -0.0622
  892loPI    C213590   2.258   7.030   5.803 -0.1039  0.1950  0.0000
  892loPI    C313591   1.956   7.110   5.553 -0.1503 -0.0665 -0.0314
  892loPI   PO413592   1.784   7.001   6.070  0.0127 -0.0090  0.1778
  892loPI   GL113593   1.774   6.777   6.394 -0.1176 -0.0372 -0.1862
  892loPI   GL213594   1.862   6.439   6.498  0.1673 -0.2558 -0.1409
  892loPI   C1A13595   1.697   6.739   6.938 -0.1257 -0.0047  0.4607
  892loPI   C2A13596   1.628   6.727   7.341  0.0465 -0.0381  0.1656
  892loPI   C3A13597   1.570   6.715   7.746 -0.1397  0.1012  0.0313
  892loPI   C4A13598   1.563   6.752   8.091  0.1313  0.2332  0.0106
  892loPI   C5A13599   1.401   6.849   8.381 -0.1296 -0.6330  0.0768
  892loPI   C6A13600   1.332   7.211   8.704  0.4621 -0.0633 -0.1426
  892loPI   C1B13601   1.983   6.374   6.961  0.1262  0.0925 -0.0512
  892loPI   C2B13602   1.950   6.344   7.429  0.2424  0.1588 -0.2042
  892loPI   C3B13603   1.911   6.354   7.846  0.2881  0.1080 -0.2501
  892loPI   C4B13604   1.873   6.358   8.244 -0.1628  0.4139 -0.0492
  893loPI    C113605   1.924   7.686   5.996 -0.3246 -0.0150  0.1558
  893loPI    C213606   1.686   7.542   5.708  0.0422 -0.0309 -0.1475
  893loPI    C313607   1.875   7.890   5.655 -0.1343  0.1240  0.2104
  893loPI   PO413608   1.822   7.677   6.209  0.0267  0.0132  0.1085
  893loPI   GL113609   1.727   7.550   6.545  0.2036 -0.1336  0.0540
  893loPI   GL213610   1.921   7.254   6.471 -0.1150  0.0271 -0.1365
  893loPI   C1A13611   1.644   7.607   6.945 -0.0885  0.1442  0.2571
  893loPI   C2A13612   1.562   7.771   7.226 -0.0854  0.2673 -0.2653
  893loPI   C3A13613   1.385   8.148   7.480 -0.0250 -0.1031  0.2733
  893loPI   C4A13614   1.272   8.118   7.921 -0.3186 -0.2269 -0.4685
  893loPI   C5A13615   1.391   8.197   8.310  0.0314  0.2802  0.1711
  893loPI   C6A13616   1.238   8.181   8.685  0.0233  0.2754  0.0808
  893loPI   C1B13617   2.084   7.006   6.748  0.0775  0.1235 -0.1182
  893loPI   C2B13618   2.137   6.844   7.161  0.0750 -0.1579  0.0873
  893loPI   C3B13619   2.048   6.835   7.603 -0.0484  0.1264  0.1007
  893loPI   C4B13620   1.855   7.174   7.843 -0.0660 -0.0935  0.0426
  894loPI    C113621   3.118   0.705   5.783 -0.0027 -0.0404 -0.1591
  894loPI    C213622   2.744   0.665   5.649  0.0188 -0.0401 -0.2195
  894loPI    C313623   3.024   0.401   5.542  0.0746  0.0556 -0.3122
  894loPI   PO413624   2.992   0.781   6.065 -0.1047  0.0810 -0.1872
  894loPI   GL113625   3.026   1.059   6.430 -0.1676 -0.0520 -0.0982
  894loPI   GL213626   3.038   1.309   6.722 -0.0533 -0.0434  0.0907
  894loPI   C1A13627   2.970   0.809   6.791  0.3545  0.0719 -0.3662
  894loPI   C2A13628   2.961   0.700   7.227  0.1101 -0.1754  0.1477
  894loPI   C3A13629   2.994   0.760   7.669 -0.0628  0.1438 -0.1733
  894loPI   C4A13630   3.045   0.688   8.123 -0.0985  0.1226 -0.0575
  894loPI   C5A13631   3.249   0.625   8.467  0.2381 -0.0782  0.3699
  894loPI   C6A13632   3.283   0.268   8.687 -0.3153 -0.0285 -0.0557
  894loPI   C1B13633   3.076   1.312   7.163  0.1734 -0.0665 -0.2308
  894loPI   C2B13634   3.222   1.200   7.555 -0.1165 -0.0599  0.0555
  894loPI   C3B13635   3.089   1.203   7.964 -0.0060  0.1697  0.1858
  894loPI   C4B13636   2.899   1.192   8.398  0.1086 -0.0345  0.2140
  895loPI    C113637   9.997  13.320   5.852 -0.1051  0.2722  0.0155
  895loPI    C213638   9.873  13.382   5.476 -0.2924 -0.0957  0.0118
  895loPI    C313639   9.748  13.060   5.677  0.0554 -0.0676  0.2824
  895loPI   PO413640   9.979  13.556   5.911 -0.0457 -0.0176 -0.1018
  895loPI   GL113641  10.054  13.575   6.350  0.0347 -0.5029  0.0427
  895loPI   GL213642   9.917  13.829   6.341 -0.1774 -0.0912  0.0424
  895loPI   C1A13643  10.103  13.585   6.876 -0.0975 -0.0682  0.0118
  895loPI   C2A13644  10.089  13.472   7.267 -0.0297 -0.0040  0.1252
  895loPI   C3A13645  10.145  13.617   7.605 -0.0849  0.0394 -0.1554
  895loPI   C4A13646  10.108  13.726   8.063  0.0793  0.1723  0.1647
  895loPI   C5A13647  10.335  13.731   8.510  0.1875 -0.1223  0.0933
  895loPI   C6A13648  10.470  13.570   8.947  0.2850 -0.1642  0.0896
  895loPI   C1B13649   9.805  13.934   6.687 -0.3137 -0.2186  0.0988
  895loPI   C2B13650   9.762  13.898   7.016  0.0472  0.2599 -0.1762
  895loPI   C3B13651   9.740  13.953   7.370  0.0143  0.1169 -0.0595
  895loPI   C4B13652   9.797  14.020   7.734  0.3193  0.0501 -0.0514
  896loPI    C113653  12.722  14.039   5.567  0.1033 -0.1353  0.2150
  896loPI    C213654  12.684  13.682   5.391 -0.0308 -0.0819  0.1342
  896loPI    C313655  12.699  14.014   5.168  0.1897 -0.0437  0.2039
  896loPI   PO413656  12.615  14.009   5.758 -0.2072 -0.2403 -0.0561
  896loPI   GL113657  12.682  14.027   6.124  0.3701  0.0629 -0.5192
  896loPI   GL213658  12.584  13.720   6.292 -0.1116  0.2197  0.1098
  896loPI   C1A13659  12.710  14.144   6.568  0.0912  0.0263  0.2311
  896loPI   C2A13660  12.772  14.192   6.991 -0.0250 -0.4150  0.3381
  896loPI   C3A13661  12.790  14.213   7.310 -0.0706  0.3153 -0.1577
  896loPI   C4A13662  12.719  14.137   7.725  0.1168  0.1491 -0.1210
  896loPI   C5A13663  12.738  14.222   8.170 -0.0987  0.4168 -0.0015
  896loPI   C6A13664  12.802  13.922   8.531 -0.0262  0.2876  0.0345
  896loPI   C1B13665  12.630  13.631   6.638  0.1888 -0.3363  0.2088
  896loPI   C2B13666  12.658  13.674   7.086  0.3453 -0.0807  0.0383
  896loPI   C3B13667  12.557  13.664   7.581  0.0685 -0.0335 -0.1581
  896loPI   C4B13668  12.582  13.734   8.017  0.0382  0.0745  0.1405
  897loPI    C113669  11.327   6.503   5.846  0.1214  0.1820 -0.1462
  897loPI    C213670  11.054   6.329   5.611 -0.0235  0.3914 -0.1356
  897loPI    C313671  11.348   6.545   5.449  0.0786  0.2492 -0.1416
  897loPI   PO413672  11.142   6.585   6.051  0.1913 -0.1002  0.1507
  897loPI   GL113673  11.098   6.604   6.425 -0.0472  0.2083  0.1656
  897loPI   GL213674  10.960   6.818   6.622 -0.0312 -0.0579 -0.0350
  897loPI   C1A13675  11.387   6.517   6.762  0.0291 -0.0189 -0.1849
  897loPI   C2A13676  11.295   6.410   7.227 -0.0030 -0.0068 -0.0190
  897loPI   C3A13677  11.406   6.439   7.720  0.0655 -0.1581 -0.0268
  897loPI   C4A13678  11.428   6.535   8.123  0.4600  0.1242 -0.0864
  897loPI   C5A13679  11.413   6.666   8.480 -0.0844  0.3981  0.2614
  897loPI   C6A13680  11.495   6.977   8.659  0.1675  0.2214 -0.2759
  897loPI   C1B13681  10.964   6.819   7.106 -0.1523 -0.3307 -0.0438
  897loPI   C2B13682  10.967   6.729   7.505  0.0846  0.4724 -0.0724
  897loPI   C3B13683  11.119   6.820   7.914  0.2090  0.0577  0.1488
  897loPI   C4B13684  10.946   6.744   8.278 -0.1608 -0.2005 -0.1162
  898loPI    C113685  17.586  13.240   5.322  0.0379  0.1691 -0.2409
  898loPI    C213686  17.950  13.270   5.160  0.1158 -0.0811 -0.1178
  898loPI    C313687  17.702  12.980   5.041  0.1630 -0.2492  0.1838
  898loPI   PO413688  17.634  13.190   5.601  0.1311 -0.0799  0.2297
  898loPI   GL113689  17.652  13.183   6.019  0.2193 -0.0807 -0.1110
  898loPI   GL213690  17.571  12.906   6.192 -0.1481  0.0567 -0.1692
  898loPI   C1A13691  17.733  13.454   6.448 -0.2671  0.2664  0.3081
  898loPI   C2A13692  17.654  13.581   6.887  0.3078 -0.2448 -0.1512
  898loPI   C3A13693  17.679  13.527   7.287 -0.0794 -0.0551 -0.1674
  898loPI   C4A13694  17.645  13.497   7.752  0.0356 -0.0658  0.1866
  898loPI   C5A13695  17.769  13.457   8.265  0.3273 -0.0027 -0.0367
  898loPI   C6A13696  17.778  13.779   8.603 -0.0304  0.0407  0.0924
  898loPI   C1B13697  17.518  13.002   6.614  0.1781  0.0354 -0.0004
  898loPI   C2B13698  17.456  12.936   7.058  0.1210 -0.0561  0.0671
  898loPI   C3B13699  17.538  13.052   7.436 -0.1115  0.0943 -0.0258
  898loPI   C4B13700  17.553  13.023   7.825 -0.1023 -0.0828  0.0069
  899loPI    C113701   4.118  10.831   5.861 -0.0591 -0.0309  0.1950
  899loPI    C213702   4.421  11.092   5.880  0.0833 -0.1763 -0.0415
  899loPI    C313703   4.196  11.070   5.550 -0.1421 -0.1188  0.1062
  899loPI   PO413704   3.991  10.921   6.064 -0.1871  0.1317  0.0334
  899loPI   GL113705   4.112  10.871   6.464 -0.0253 -0.2020  0.1619
  899loPI   GL213706   3.745  10.905   6.500 -0.0603 -0.0173 -0.0354
  899loPI   C1A13707   3.972  11.192   6.842 -0.2293 -0.3036  0.0959
  899loPI   C2A13708   4.127  11.247   7.165  0.0544  0.1866 -0.1205
  899loPI   C3A13709   4.244  11.275   7.576  0.1221  0.0162 -0.0986
  899loPI   C4A13710   4.136  11.184   8.048  0.0278  0.3063  0.3571
  899loPI   C5A13711   4.126  11.331   8.447 -0.1843  0.2162  0.4941
  899loPI   C6A13712   4.150  11.401   8.840 -0.0908  0.3217  0.2046
  899loPI   C1B13713   3.477  11.073   6.837  0.1645  0.2239 -0.4031
  899loPI   C2B13714   3.621  11.119   7.267  0.1345  0.0182  0.0471
  899loPI   C3B13715   3.628  11.119   7.650 -0.0308  0.1997 -0.2396
  899loPI   C4B13716   3.651  11.146   8.116  0.0726  0.2728 -0.2534
  900loPI    C113717   5.401  16.933   5.726 -0.0912  0.0544 -0.1530
  900loPI    C213718   5.779  17.062   5.750 -0.0028 -0.2054 -0.1130
  900loPI    C313719   5.553  17.162   5.435  0.1867 -0.2727 -0.2725
  900loPI   PO413720   5.439  16.809   6.015 -0.1932 -0.1875 -0.2827
  900loPI   GL113721   5.518  16.637   6.323  0.0123  0.0464  0.1558
  900loPI   GL213722   5.686  16.889   6.505 -0.0770 -0.0461 -0.0503
  900loPI   C1A13723   5.267  16.699   6.668  0.1526 -0.2301 -0.0147
  900loPI   C2A13724   5.293  16.617   7.079 -0.0916  0.2206 -0.2219
  900loPI   C3A13725   5.400  16.604   7.493 -0.0597  0.1321 -0.2461
  900loPI   C4A13726   5.409  16.493   7.873  0.1233 -0.0968 -0.1977
  900loPI   C5A13727   5.305  16.671   8.331  0.2380 -0.4864 -0.0969
  900loPI   C6A13728   5.222  17.062   8.415  0.4418  0.0186 -0.1816
  900loPI   C1B13729   5.873  16.744   6.912  0.0258 -0.0538 -0.0166
  900loPI   C2B13730   5.841  16.723   7.309  0.2872 -0.2003 -0.1653
  900loPI   C3B13731   5.919  16.732   7.765  0.1008 -0.3916  0.3438
  900loPI   C4B13732   5.857  16.659   8.159  0.1884 -0.0719 -0.1618
  901loPI    C113733  14.177   7.989   5.896 -0.0597 -0.1124  0.1122
  901loPI    C213734  13.915   8.290   5.873 -0.0156 -0.0858 -0.0566
  901loPI    C313735  14.279   8.329   5.712  0.0229 -0.1953  0.0029
  901loPI   PO413736  14.198   7.919   6.079  0.0808 -0.0383 -0.2512
  901loPI   GL113737  14.021   7.811   6.470 -0.1271 -0.0084  0.3690
  901loPI   GL213738  13.790   7.637   6.505  0.0086 -0.2539 -0.1852
  901loPI   C1A13739  14.074   7.689   6.873 -0.1099 -0.2077 -0.0358
  901loPI   C2A13740  14.033   7.618   7.344  0.2789 -0.0390  0.1076
  901loPI   C3A13741  14.071   7.448   7.817  0.0609  0.1768  0.0694
  901loPI   C4A13742  14.246   7.368   8.262  0.1910 -0.1653  0.0803
  901loPI   C5A13743  14.321   7.400   8.660  0.0424 -0.4263 -0.2746
  901loPI   C6A13744  14.457   7.258   9.013  0.3479  0.2890 -0.6120
  901loPI   C1B13745  13.487   7.502   6.807  0.0379  0.2766 -0.1830
  901loPI   C2B13746  13.499   7.437   7.343 -0.0900  0.1257  0.2870
  901loPI   C3B13747  13.597   7.404   7.783  0.2783 -0.1200  0.2254
  901loPI   C4B13748  13.718   7.427   8.171  0.0035 -0.1298 -0.1472
  902loPI    C113749   2.253   0.781   5.706  0.2653 -0.2627 -0.1154
  902loPI    C213750   2.078   0.635   5.378  0.1614 -0.3071 -0.0408
  902loPI    C313751   2.416   0.846   5.347  0.0171 -0.0943 -0.2006
  902loPI   PO413752   2.148   0.668   5.890  0.0479 -0.0366  0.2190
  902loPI   GL113753   1.995   0.761   6.313  0.1584 -0.1271 -0.0346
  902loPI   GL213754   2.155   1.029   6.429 -0.1955 -0.5818 -0.2414
  902loPI   C1A13755   1.976   0.525   6.687 -0.0662 -0.4986 -0.1720
  902loPI   C2A13756   1.951   0.449   7.114 -0.0384 -0.0128 -0.0496
  902loPI   C3A13757   1.954   0.453   7.641 -0.0710 -0.1843 -0.2053
  902loPI   C4A13758   2.020   0.507   8.078  0.1649 -0.2551 -0.0448
  902loPI   C5A13759   1.886   0.690   8.475 -0.0746  0.0791 -0.1080
  902loPI   C6A13760   1.496   0.803   8.561 -0.1391 -0.3214  0.2107
  902loPI   C1B13761   2.102   1.031   6.898 -0.0325 -0.2630 -0.1998
  902loPI   C2B13762   2.022   0.947   7.375 -0.2221 -0.1017 -0.0009
  902loPI   C3B13763   2.093   0.939   7.736  0.1826 -0.1831  0.0536
  902loPI   C4B13764   2.005   1.012   8.131  0.2076 -0.3719 -0.0064
  903loPI    C113765   9.158   0.687   5.750  0.0755 -0.0125  0.0381
  903loPI    C213766   9.291   0.415   5.489  0.2825 -0.0095  0.1387
  903loPI    C313767   9.447   0.783   5.492  0.2214  0.0163  0.2103
  903loPI   PO413768   9.192   0.574   5.993 -0.2891 -0.0426  0.0670
  903loPI   GL113769   9.190   0.757   6.390 -0.2317 -0.0800 -0.2714
  903loPI   GL213770   9.503   0.826   6.469  0.0918 -0.1913  0.0401
  903loPI   C1A13771   9.100   1.136   6.677  0.4347  0.2328 -0.1903
  903loPI   C2A13772   9.106   1.151   7.152 -0.1655  0.1620  0.2027
  903loPI   C3A13773   8.931   1.247   7.574 -0.4069  0.1947  0.0288
  903loPI   C4A13774   8.841   1.255   8.012 -0.1795 -0.0834  0.0098
  903loPI   C5A13775   8.866   1.242   8.482  0.2659 -0.1339 -0.0309
  903loPI   C6A13776   8.910   1.284   8.970 -0.0635  0.2189 -0.2167
  903loPI   C1B13777   9.322   0.732   6.916  0.0106 -0.1520  0.1697
  903loPI   C2B13778   9.328   0.752   7.359 -0.0371  0.1108  0.0070
  903loPI   C3B13779   9.186   0.852   7.758  0.0416 -0.2146  0.0413
  903loPI   C4B13780   9.125   0.862   8.238 -0.2253 -0.1021 -0.0965
  904loPI    C113781  11.648  17.104   5.789  0.1164 -0.0921 -0.0500
  904loPI    C213782  12.001  16.983   5.645  0.1384 -0.1099  0.0189
  904loPI    C313783  11.942  17.369   5.731  0.1580 -0.1149  0.0551
  904loPI   PO413784  11.607  16.956   6.006 -0.2329  0.3426 -0.0469
  904loPI   GL113785  11.441  16.879   6.314  0.3132  0.3189  0.1380
  904loPI   GL213786  11.200  16.976   6.517  0.1097 -0.1909  0.0845
  904loPI   C1A13787  11.654  16.671   6.654  0.2266  0.0745  0.2574
  904loPI   C2A13788  11.675  16.589   7.081  0.1941 -0.1367 -0.0300
  904loPI   C3A13789  11.634  16.652   7.432  0.0772  0.2844  0.1681
  904loPI   C4A13790  11.587  16.643   7.840  0.1772 -0.2167 -0.1785
  904loPI   C5A13791  11.434  16.864   8.143  0.1243 -0.1273 -0.0663
  904loPI   C6A13792  11.328  16.917   8.651 -0.0615 -0.2395  0.0926
  904loPI   C1B13793  11.321  16.950   6.884 -0.0686 -0.1217 -0.0072
  904loPI   C2B13794  11.293  17.046   7.327  0.1166 -0.1920 -0.1377
  904loPI   C3B13795  11.172  17.083   7.701 -0.0242  0.0021 -0.0041
  904loPI   C4B13796  11.000  17.078   8.118  0.0695  0.0702 -0.0758
  905loPI    C113797  16.455   1.926   5.671 -0.0824  0.2067 -0.3523
  905loPI    C213798  16.446   1.540   5.566  0.2949  0.1185 -0.0806
  905loPI    C313799  16.615   1.809   5.323  0.0575  0.1119 -0.2571
  905loPI   PO413800  16.520   1.915   5.984 -0.1375 -0.0609  0.2508
  905loPI   GL113801  16.607   1.639   6.298 -0.1948  0.2013 -0.1907
  905loPI   GL213802  16.691   1.460   6.076 -0.0080  0.1425  0.0369
  905loPI   C1A13803  16.547   1.675   6.750  0.0079 -0.3383  0.1849
  905loPI   C2A13804  16.563   1.744   7.177 -0.2772  0.1420  0.0146
  905loPI   C3A13805  16.656   1.631   7.543  0.1261 -0.1529  0.1588
  905loPI   C4A13806  16.527   1.714   7.937  0.2681 -0.1477  0.2883
  905loPI   C5A13807  16.438   1.938   8.390  0.0290 -0.1430 -0.1468
  905loPI   C6A13808  15.981   2.086   8.557 -0.3268 -0.0574 -0.0442
  905loPI   C1B13809  16.458   1.155   6.392 -0.0650  0.2759  0.0481
  905loPI   C2B13810  16.423   1.234   6.760 -0.0052 -0.1177 -0.0394
  905loPI   C3B13811  16.407   1.299   7.249  0.3056  0.2410 -0.0732
  905loPI   C4B13812  16.481   1.171   7.647  0.1053  0.3067 -0.1075
  906loPI    C113813  15.254   3.026   5.549  0.1346  0.1078 -0.0377
  906loPI    C213814  15.001   3.215   5.305  0.0235 -0.0590 -0.0533
  906loPI    C313815  15.067   2.824   5.260  0.1968 -0.0396  0.0241
  906loPI   PO413816  15.379   3.178   5.646  0.0626  0.1696 -0.0535
  906loPI   GL113817  15.542   3.160   5.968 -0.2365 -0.2439 -0.0102
  906loPI   GL213818  15.786   3.272   6.236 -0.1312 -0.0698  0.4201
  906loPI   C1A13819  15.523   2.796   6.143 -0.1181 -0.1079  0.1036
  906loPI   C2A13820  15.571   2.828   6.595 -0.1682 -0.0671  0.0503
  906loPI   C3A13821  15.543   2.768   7.021  0.1827  0.2665 -0.2748
  906loPI   C4A13822  15.607   2.843   7.441  0.2377 -0.1624 -0.0390
  906loPI   C5A13823  15.455   2.800   7.826  0.2473 -0.1944  0.1564
  906loPI   C6A13824  15.480   2.460   8.145  0.0322  0.1663 -0.1966
  906loPI   C1B13825  15.671   3.314   6.625 -0.1283  0.0998  0.0486
  906loPI   C2B13826  15.669   3.325   7.028 -0.0567 -0.1486 -0.0002
  906loPI   C3B13827  15.758   3.318   7.451  0.1050  0.1563 -0.0806
  906loPI   C4B13828  15.688   3.380   7.853  0.2295 -0.1799 -0.1154
  907loPI    C113829   0.827   3.757   5.167 -0.0297 -0.0429  0.2841
  907loPI    C213830   1.163   3.576   5.048  0.0058  0.1504  0.0863
  907loPI    C313831   0.920   3.744   4.778 -0.1502  0.1838  0.2464
  907loPI   PO413832   0.848   3.995   5.366 -0.1371 -0.0501  0.2657
  907loPI   GL113833   0.785   3.957   5.790  0.0745  0.2204 -0.1149
  907loPI   GL213834   0.582   4.137   5.917 -0.2023  0.0627  0.2459
  907loPI   C1A13835   0.578   3.677   6.001 -0.1985  0.0719  0.1313
  907loPI   C2A13836   0.479   3.478   6.396 -0.0144 -0.1233  0.2254
  907loPI   C3A13837   0.536   3.469   6.902  0.1793  0.3659  0.0853
  907loPI   C4A13838   0.435   3.314   7.349  0.1575 -0.1673  0.0178
  907loPI   C5A13839   0.535   3.344   7.819 -0.0288  0.2404 -0.0781
  907loPI   C6A13840   0.880   3.239   8.035  0.2150  0.0704 -0.2157
  907loPI   C1B13841   0.759   3.970   6.320 -0.0813  0.2618 -0.0036
  907loPI   C2B13842   0.741   3.924   6.728  0.4682  0.2691 -0.0178
  907loPI   C3B13843   0.547   3.913   7.126  0.1364  0.0649 -0.3195
  907loPI   C4B13844   0.643   3.881   7.604 -0.0009  0.0571  0.1699
  908loPI    C113845  16.677  11.397   5.846  0.0615 -0.2414  0.1358
  908loPI    C213846  16.423  11.285   5.558  0.2617 -0.0978 -0.1010
  908loPI    C313847  16.727  11.531   5.472  0.3162 -0.0414  0.2380
  908loPI   PO413848  16.699  11.104   6.008  0.0912  0.2910  0.1812
  908loPI   GL113849  16.459  11.117   6.387 -0.0355  0.0419 -0.1360
  908loPI   GL213850  16.228  11.443   6.416  0.2169 -0.0260 -0.2859
  908loPI   C1A13851  16.222  11.085   6.853  0.0021 -0.1153  0.0866
  908loPI   C2A13852  16.202  11.241   7.222 -0.0393 -0.1616 -0.1241
  908loPI   C3A13853  16.293  11.233   7.580  0.0222 -0.0746 -0.3026
  908loPI   C4A13854  16.379  11.143   7.927 -0.0686  0.0000 -0.0310
  908loPI   C5A13855  16.681  10.972   8.163  0.1175 -0.0575 -0.0517
  908loPI   C6A13856  16.820  10.542   8.343 -0.1098  0.1072  0.0299
  908loPI   C1B13857  16.012  11.639   6.731  0.3004 -0.0884  0.2722
  908loPI   C2B13858  16.164  11.727   7.057  0.1296 -0.3024 -0.2697
  908loPI   C3B13859  16.108  11.738   7.532 -0.0997  0.0091  0.0821
  908loPI   C4B13860  16.166  11.750   8.029  0.0220  0.2203 -0.0822
  909loPI    C113861  16.169  16.265   5.115  0.1409 -0.0347  0.0613
  909loPI    C213862  16.187  15.870   5.052  0.0548 -0.0016 -0.1823
  909loPI    C313863  16.399  16.119   4.822  0.0855  0.0969 -0.0485
  909loPI   PO413864  15.964  16.245   5.370  0.0285  0.0314  0.1128
  909loPI   GL113865  15.935  16.350   5.790 -0.1021 -0.1228  0.1993
  909loPI   GL213866  15.704  16.494   6.068  0.0449  0.1622  0.2842
  909loPI   C1A13867  16.186  16.394   6.230 -0.0521 -0.3409 -0.3689
  909loPI   C2A13868  16.311  16.367   6.602 -0.3808  0.0234 -0.1569
  909loPI   C3A13869  16.195  16.376   7.152  0.0453 -0.2812  0.0086
  909loPI   C4A13870  16.187  16.448   7.594  0.0355 -0.2918 -0.1924
  909loPI   C5A13871  16.241  16.511   8.025 -0.1000  0.0932  0.1049
  909loPI   C6A13872  16.287  16.918   8.221 -0.1429 -0.0260  0.2713
  909loPI   C1B13873  15.679  16.317   6.472 -0.1774 -0.1701 -0.1222
  909loPI   C2B13874  15.773  16.288   6.868 -0.0953  0.0859 -0.1541
  909loPI   C3B13875  15.704  16.322   7.379  0.1693 -0.0975  0.2235
  909loPI   C4B13876  15.695  16.402   7.786  0.0121  0.0673 -0.0245
  910loPI    C113877   9.935  12.545   5.445  0.3645 -0.2001 -0.0646
  910loPI    C213878  10.027  12.914   5.321 -0.2793  0.0463  0.1516
  910loPI    C313879  10.102  12.600   5.086  0.1126  0.3274 -0.1116
  910loPI   PO413880   9.704  12.552   5.675 -0.1568 -0.1461 -0.0688
  910loPI   GL113881   9.761  12.406   6.050 -0.1383  0.0451 -0.3039
  910loPI   GL213882   9.559  12.212   6.117 -0.0189  0.3506  0.0378
  910loPI   C1A13883  10.062  12.250   6.380 -0.1188  0.0126  0.3563
  910loPI   C2A13884  10.145  12.190   6.828 -0.2033 -0.0496 -0.0807
  910loPI   C3A13885  10.270  12.226   7.239 -0.0148 -0.1100 -0.2691
  910loPI   C4A13886  10.241  12.164   7.691  0.1142  0.2472  0.0292
  910loPI   C5A13887  10.257  12.193   8.143 -0.1476 -0.0353 -0.0452
  910loPI   C6A13888  10.304  11.986   8.476 -0.0161 -0.0131  0.0966
  910loPI   C1B13889   9.594  12.131   6.556 -0.1979  0.0187 -0.3024
  910loPI   C2B13890   9.658  12.103   6.981  0.0554 -0.0175  0.0392
  910loPI   C3B13891   9.762  12.122   7.424 -0.0240  0.0052  0.0029
  910loPI   C4B13892   9.722  11.996   7.872 -0.0485 -0.1026 -0.3518
  911loPI    C113893  12.348  15.959   5.940 -0.0765 -0.2456 -0.0470
  911loPI    C213894  12.602  15.900   5.636 -0.0263 -0.0893 -0.0361
  911loPI    C313895  12.729  15.866   6.014 -0.0087  0.0372 -0.0302
  911loPI   PO413896  12.110  15.754   5.985 -0.1896  0.4317  0.1891
  911loPI   GL113897  12.081  15.476   6.303  0.1293  0.0061  0.1265
  911loPI   GL213898  12.233  15.878   6.468 -0.2141  0.1501  0.0221
  911loPI   C1A13899  12.155  15.428   6.711  0.0001 -0.0104 -0.1859
  911loPI   C2A13900  12.211  15.425   7.154 -0.2744  0.1955  0.3417
  911loPI   C3A13901  12.105  15.540   7.596 -0.0210 -0.2909 -0.1380
  911loPI   C4A13902  12.096  15.392   7.949  0.1257 -0.1455 -0.3217
  911loPI   C5A13903  12.087  15.566   8.372 -0.0263 -0.5384 -0.2297
  911loPI   C6A13904  12.300  15.486   8.742 -0.2749 -0.0320  0.0408
  911loPI   C1B13905  12.291  15.851   6.952 -0.1785 -0.2147 -0.1204
  911loPI   C2B13906  12.377  15.884   7.370 -0.0886  0.0015 -0.0591
  911loPI   C3B13907  12.304  15.982   7.842 -0.3594 -0.1989 -0.0644
  911loPI   C4B13908  12.330  15.969   8.268 -0.0329 -0.1991  0.1569
  912loPI    C113909  13.769  16.128   5.278 -0.3853  0.0038 -0.0993
  912loPI    C213910  13.696  15.816   5.037  0.1516 -0.1649 -0.0561
  912loPI    C313911  13.957  16.099   4.926  0.0428  0.0089  0.1227
  912loPI   PO413912  13.632  16.057   5.682  0.1377 -0.2359  0.0214
  912loPI   GL113913  13.759  15.976   6.131 -0.0182 -0.0120 -0.0453
  912loPI   GL213914  13.755  16.311   6.161 -0.2424 -0.3305 -0.0424
  912loPI   C1A13915  13.686  15.822   6.513  0.0252 -0.3015 -0.1088
  912loPI   C2A13916  13.665  15.822   6.881  0.1511  0.3452 -0.0297
  912loPI   C3A13917  13.760  15.764   7.331 -0.1651 -0.3055  0.3005
  912loPI   C4A13918  13.695  15.797   7.762 -0.0275  0.3006 -0.0987
  912loPI   C5A13919  13.505  15.753   8.232  0.0204  0.3309  0.0828
  912loPI   C6A13920  13.242  16.022   8.523 -0.4734  0.2048  0.0108
  912loPI   C1B13921  13.840  16.305   6.520  0.0374 -0.1324  0.0970
  912loPI   C2B13922  13.877  16.275   6.966  0.1362 -0.1452 -0.3395
  912loPI   C3B13923  13.835  16.267   7.354 -0.2828 -0.1148 -0.1414
  912loPI   C4B13924  13.850  16.348   7.775 -0.2157  0.2847 -0.2731
  913loPI    C113925   8.463  11.117   5.376 -0.0436 -0.1061  0.0479
  913loPI    C213926   8.684  10.924   5.104  0.0955  0.0147  0.0736
  913loPI    C313927   8.351  11.115   4.992  0.0256 -0.1327  0.0276
  913loPI   PO413928   8.544  10.992   5.666  0.1285  0.1773 -0.0112
  913loPI   GL113929   8.713  11.016   6.125 -0.0292 -0.0118  0.1894
  913loPI   GL213930   8.448  10.995   6.286  0.0599  0.1185  0.2310
  913loPI   C1A13931   8.798  11.037   6.634  0.1752 -0.3996  0.1079
  913loPI   C2A13932   8.819  11.004   7.073  0.3073  0.0812 -0.0676
  913loPI   C3A13933   8.908  10.972   7.517 -0.0909 -0.0312 -0.0781
  913loPI   C4A13934   8.978  10.974   8.007 -0.0959 -0.2180  0.1427
  913loPI   C5A13935   8.836  10.773   8.325  0.1948  0.0348  0.0922
  913loPI   C6A13936   8.904  10.408   8.436  0.0510  0.0521  0.1765
  913loPI   C1B13937   8.349  10.910   6.598 -0.1068 -0.0158  0.0984
  913loPI   C2B13938   8.253  10.880   7.051  0.0196  0.0509  0.0049
  913loPI   C3B13939   8.307  10.799   7.488  0.0701  0.1766  0.0766
  913loPI   C4B13940   8.402  10.834   7.934 -0.2224  0.4133  0.1445
  914loPI    C113941   7.087   7.818   5.708  0.1445  0.3221 -0.1259
  914loPI    C213942   6.777   8.027   5.566 -0.0607  0.0801 -0.0417
  914loPI    C313943   6.926   7.722   5.355  0.1813  0.2518 -0.1238
  914loPI   PO413944   7.173   8.001   5.955  0.1783  0.2463  0.1623
  914loPI   GL113945   7.084   8.096   6.508 -0.0216 -0.1259  0.3097
  914loPI   GL213946   6.976   7.813   6.359 -0.1113  0.0408  0.0693
  914loPI   C1A13947   7.099   8.202   6.883  0.3481  0.1778  0.0591
  914loPI   C2A13948   7.185   8.245   7.337 -0.3012 -0.0208  0.1095
  914loPI   C3A13949   7.118   8.236   7.766  0.1961  0.0699  0.1892
  914loPI   C4A13950   7.132   8.302   8.181  0.1954  0.0193  0.0770
  914loPI   C5A13951   7.371   8.614   8.419  0.0811  0.2525 -0.1286
  914loPI   C6A13952   7.319   9.008   8.364 -0.1212  0.0198  0.2167
  914loPI   C1B13953   7.000   7.696   6.802 -0.0659  0.0129  0.0483
  914loPI   C2B13954   7.022   7.730   7.320 -0.0456  0.1430  0.1413
  914loPI   C3B13955   6.986   7.739   7.770  0.1850 -0.3078  0.1462
  914loPI   C4B13956   6.953   7.815   8.202  0.1375  0.0696 -0.0679
  915loPI    C113957  16.286   5.228   5.812 -0.0176  0.1011  0.0514
  915loPI    C213958  15.926   5.368   5.708 -0.1249 -0.1342  0.0996
  915loPI    C313959  16.148   5.168   5.442 -0.1616 -0.2546  0.1590
  915loPI   PO413960  16.238   5.171   5.988 -0.2692 -0.1869 -0.4145
  915loPI   GL113961  16.391   5.207   6.482  0.1371 -0.0679  0.0116
  915loPI   GL213962  16.666   4.998   6.541  0.2383 -0.2205 -0.0529
  915loPI   C1A13963  16.331   5.365   6.799  0.0840  0.3199  0.1486
  915loPI   C2A13964  16.287   5.180   7.260  0.3871 -0.0692 -0.0155
  915loPI   C3A13965  16.288   5.117   7.731  0.2633  0.0179 -0.1442
  915loPI   C4A13966  16.261   5.291   8.125 -0.2372 -0.3710 -0.0226
  915loPI   C5A13967  16.339   5.093   8.480  0.0711  0.2442  0.2452
  915loPI   C6A13968  16.258   4.991   8.978 -0.2441 -0.1848 -0.0486
  915loPI   C1B13969  16.638   4.978   6.937 -0.1806 -0.1957 -0.0059
  915loPI   C2B13970  16.762   4.974   7.290 -0.1890 -0.3703 -0.2837
  915loPI   C3B13971  16.650   4.812   7.664 -0.1946  0.1515 -0.0623
  915loPI   C4B13972  16.630   4.887   8.094  0.0729 -0.0363  0.0539
  916loPI    C113973   6.163   1.696   5.493 -0.2759 -0.1412 -0.0878
  916loPI    C213974   6.350   1.998   5.309 -0.1154 -0.1527  0.0540
  916loPI    C313975   5.951   1.999   5.340 -0.1195  0.0177  0.0068
  916loPI   PO413976   6.249   1.733   5.741 -0.2496 -0.0975 -0.2754
  916loPI   GL113977   6.149   1.854   6.217 -0.1330 -0.1488  0.2527
  916loPI   GL213978   6.363   2.029   6.231  0.2804 -0.0888 -0.0072
  916loPI   C1A13979   6.084   1.579   6.522  0.2551 -0.2453  0.1004
  916loPI   C2A13980   6.078   1.548   6.886  0.0000  0.2586 -0.0327
  916loPI   C3A13981   6.190   1.502   7.270  0.2918 -0.0133  0.2853
  916loPI   C4A13982   6.015   1.482   7.630 -0.2514 -0.3586 -0.0215
  916loPI   C5A13983   6.111   1.454   7.976 -0.0103  0.0092  0.2124
  916loPI   C6A13984   6.047   1.701   8.324  0.0736  0.0422 -0.0630
  916loPI   C1B13985   6.363   1.998   6.660  0.1224  0.0347  0.1012
  916loPI   C2B13986   6.341   2.003   7.141  0.0011 -0.0333 -0.0535
  916loPI   C3B13987   6.196   1.979   7.525  0.0238 -0.0487 -0.2768
  916loPI   C4B13988   6.239   1.943   7.961 -0.4983 -0.0448  0.1174
  917loPI    C113989   3.115   5.050   5.858  0.2772 -0.0414 -0.0231
  917loPI    C213990   2.814   4.859   5.677  0.0323  0.0743  0.2536
  917loPI    C313991   3.089   5.052   5.459  0.0783 -0.2823 -0.0136
  917loPI   PO413992   2.995   5.126   6.080 -0.2120 -0.0796  0.0156
  917loPI   GL113993   2.992   4.985   6.477  0.0864  0.1018  0.0561
  917loPI   GL213994   3.355   5.109   6.482 -0.1464  0.2895 -0.2609
  917loPI   C1A13995   2.917   4.844   6.878  0.0046  0.1036  0.0052
  917loPI   C2A13996   2.903   4.817   7.343 -0.1458 -0.0812 -0.0004
  917loPI   C3A13997   2.792   4.830   7.801  0.1124 -0.0731  0.0969
  917loPI   C4A13998   2.791   5.060   8.097  0.0075  0.0053 -0.0822
  917loPI   C5A13999   2.773   5.266   8.581  0.2092 -0.1204  0.1894
  917loPI   C6A14000   2.613   5.044   8.926 -0.1640 -0.0016 -0.2039
  917loPI   C1B14001   3.397   5.028   6.926 -0.2592  0.1492 -0.0788
  917loPI   C2B14002   3.384   5.002   7.389 -0.1224  0.1432 -0.2867
  917loPI   C3B14003   3.444   4.998   7.837  0.0799 -0.2328  0.2530
  917loPI   C4B14004   3.366   4.997   8.323  0.1930  0.0221 -0.1605
  918loPI    C114005   6.219   8.539   5.948  0.1276 -0.1826  0.1711
  918loPI    C214006   6.266   8.145   5.900  0.0678 -0.1583 -0.1088
  918loPI    C314007   6.412   8.398   5.627  0.0958  0.0139  0.0637
  918loPI   PO414008   6.284   8.630   6.107  0.1465 -0.1864 -0.1313
  918loPI   GL114009   6.514   8.503   6.472 -0.1279  0.0473 -0.1090
  918loPI   GL214010   6.219   8.398   6.603  0.1896 -0.0476  0.1065
  918loPI   C1A14011   6.794   8.603   6.862 -0.0325  0.0579  0.1661
  918loPI   C2A14012   6.733   8.583   7.314  0.2653 -0.0756 -0.1318
  918loPI   C3A14013   6.761   8.582   7.744 -0.0137 -0.2931  0.3253
  918loPI   C4A14014   6.728   8.660   8.155 -0.1056 -0.1891  0.2008
  918loPI   C5A14015   6.878   8.687   8.601  0.0398 -0.0343 -0.0171
  918loPI   C6A14016   6.941   8.492   8.985  0.0353  0.1364 -0.0509
  918loPI   C1B14017   6.361   8.417   7.002  0.2619  0.0138  0.0310
  918loPI   C2B14018   6.249   8.475   7.358  0.1145  0.4303  0.0828
  918loPI   C3B14019   6.233   8.539   7.773 -0.2492  0.1389 -0.0636
  918loPI   C4B14020   6.260   8.494   8.219  0.1327 -0.0076  0.0324
  919loPI    C114021   8.402   9.863   5.757  0.1200 -0.1584 -0.0153
  919loPI    C214022   8.699   9.944   5.501  0.0195  0.0504 -0.0688
  919loPI    C314023   8.338   9.845   5.362 -0.0287  0.1401 -0.0078
  919loPI   PO414024   8.493  10.025   5.969  0.0902  0.0127 -0.0998
  919loPI   GL114025   8.322  10.134   6.304 -0.2008 -0.2825  0.0425
  919loPI   GL214026   8.245  10.486   6.338  0.0180  0.0793  0.3640
  919loPI   C1A14027   8.502  10.067   6.656 -0.2240  0.1203  0.0613
  919loPI   C2A14028   8.485  10.066   7.053  0.3378  0.0604 -0.1159
  919loPI   C3A14029   8.539   9.993   7.481  0.1868  0.2625  0.1577
  919loPI   C4A14030   8.472   9.984   7.966 -0.0339 -0.1010  0.2361
  919loPI   C5A14031   8.555   9.945   8.324 -0.0509  0.1407  0.0121
  919loPI   C6A14032   8.382  10.241   8.627 -0.2010 -0.0655 -0.0798
  919loPI   C1B14033   8.183  10.441   6.801 -0.0431 -0.1157  0.0424
  919loPI   C2B14034   8.134  10.335   7.279 -0.1649 -0.0037 -0.2500
  919loPI   C3B14035   8.242  10.368   7.672 -0.1085 -0.0854 -0.4616
  919loPI   C4B14036   8.291  10.451   8.193 -0.1868 -0.0954  0.1352
  920loPI    C114037  12.453   2.147   5.916  0.1243  0.0303 -0.2072
  920loPI    C214038  12.128   1.989   6.087  0.1586  0.0466 -0.1265
  920loPI    C314039  12.170   1.978   5.690  0.0949 -0.0223 -0.1315
  920loPI   PO414040  12.616   2.055   6.158 -0.1000  0.4189  0.1380
  920loPI   GL114041  12.431   1.755   6.414 -0.2431 -0.3041 -0.0127
  920loPI   GL214042  12.229   2.068   6.593 -0.3865  0.0755  0.1023
  920loPI   C1A14043  12.410   1.589   6.868  0.0877  0.0975 -0.2953
  920loPI   C2A14044  12.287   1.596   7.409  0.2873 -0.0974  0.0959
  920loPI   C3A14045  12.219   1.574   7.883 -0.1460  0.2269  0.1625
  920loPI   C4A14046  12.174   1.521   8.266 -0.1428 -0.0483  0.0904
  920loPI   C5A14047  12.175   1.577   8.727  0.4525  0.0079 -0.0724
  920loPI   C6A14048  12.179   1.583   9.192  0.0416  0.4144  0.1797
  920loPI   C1B14049  12.041   2.444   6.909  0.0786 -0.0103  0.1450
  920loPI   C2B14050  12.030   2.556   7.332  0.2690 -0.0856 -0.4141
  920loPI   C3B14051  12.110   2.381   7.739  0.1525  0.3126  0.0690
  920loPI   C4B14052  12.057   2.408   8.205  0.0547  0.1493  0.0976
  921loPI    C114053   8.905  10.706   5.551  0.2281 -0.2157  0.1541
  921loPI    C214054   9.153  10.903   5.306  0.3540 -0.2261  0.2717
  921loPI    C314055   9.020  10.539   5.207  0.1616 -0.1057  0.0780
  921loPI   PO414056   9.045  10.642   5.744 -0.0618  0.0722 -0.0366
  921loPI   GL114057   8.977  10.575   6.197 -0.0935  0.4182 -0.2457
  921loPI   GL214058   8.823  10.305   6.297  0.0679  0.2929 -0.3265
  921loPI   C1A14059   9.233  10.616   6.623  0.2792  0.1325 -0.3108
  921loPI   C2A14060   9.168  10.637   7.138  0.0049 -0.0698  0.1680
  921loPI   C3A14061   9.269  10.578   7.557  0.2006 -0.1903 -0.4001
  921loPI   C4A14062   9.317  10.562   7.942 -0.0481  0.1831  0.0562
  921loPI   C5A14063   9.715  10.675   8.200  0.1479 -0.1842 -0.1103
  921loPI   C6A14064   9.774  10.752   8.636  0.0623  0.1032 -0.2479
  921loPI   C1B14065   8.678  10.569   6.648 -0.0261  0.0562  0.1705
  921loPI   C2B14066   8.671  10.547   7.078  0.0259  0.2398 -0.1401
  921loPI   C3B14067   8.757  10.490   7.526 -0.1182 -0.1547 -0.1591
  921loPI   C4B14068   8.740  10.447   7.899 -0.0257  0.1123  0.0769
  922loPI    C114069   0.682  16.512   5.523 -0.0537  0.0045 -0.1330
  922loPI    C214070   0.924  16.221   5.395 -0.1189  0.0567 -0.3795
  922loPI    C314071   0.999  16.601   5.296 -0.1189  0.1082 -0.1841
  922loPI   PO414072   0.646  16.439   5.737  0.0711 -0.3043  0.0561
  922loPI   GL114073   0.600  16.487   6.087 -0.2075  0.3607  0.1274
  922loPI   GL214074   0.699  16.116   6.232 -0.2955 -0.3120 -0.1335
  922loPI   C1A14075   0.985  16.469   6.482  0.0668  0.3136  0.0662
  922loPI   C2A14076   0.955  16.508   6.865 -0.1529 -0.0472  0.0037
  922loPI   C3A14077   1.036  16.486   7.276 -0.1125 -0.1652  0.0925
  922loPI   C4A14078   0.972  16.588   7.717  0.0178 -0.1155 -0.0069
  922loPI   C5A14079   1.032  16.538   8.181 -0.0734  0.1337 -0.4242
  922loPI   C6A14080   1.198  16.376   8.589  0.0816 -0.1528 -0.2444
  922loPI   C1B14081   0.928  15.963   6.593 -0.1582 -0.3850 -0.0789
  922loPI   C2B14082   0.903  15.973   6.975  0.0009 -0.2506  0.4919
  922loPI   C3B14083   0.790  16.027   7.352 -0.1138 -0.1159 -0.2055
  922loPI   C4B14084   0.784  16.101   7.834 -0.2316 -0.1568 -0.3316
  923loPI    C114085   9.142   8.722   5.666 -0.1498  0.2998 -0.1039
  923loPI    C214086   8.914   8.563   5.379 -0.0059  0.2380 -0.1854
  923loPI    C314087   9.225   8.794   5.282  0.2469 -0.0568 -0.0930
  923loPI   PO414088   8.931   8.694   5.857  0.2691 -0.0213 -0.0050
  923loPI   GL114089   8.982   8.705   6.365 -0.0193  0.0584 -0.1024
  923loPI   GL214090   8.941   8.392   6.512 -0.2246  0.1201 -0.1265
  923loPI   C1A14091   9.141   8.697   6.822  0.2149 -0.2075  0.1685
  923loPI   C2A14092   9.036   8.698   7.271 -0.0601 -0.1342 -0.3261
  923loPI   C3A14093   9.147   8.709   7.688 -0.3456 -0.0130  0.5233
  923loPI   C4A14094   9.245   8.664   8.168 -0.3674 -0.1730 -0.0837
  923loPI   C5A14095   9.356   8.678   8.506  0.0312 -0.3775 -0.1320
  923loPI   C6A14096   9.261   8.909   8.967  0.0499  0.3631 -0.0996
  923loPI   C1B14097   8.884   8.275   6.964 -0.1022 -0.4582  0.1856
  923loPI   C2B14098   8.980   8.182   7.395 -0.0922 -0.1671  0.0028
  923loPI   C3B14099   9.081   8.216   7.854 -0.0850  0.0081  0.2260
  923loPI   C4B14100   8.918   8.171   8.350  0.0210 -0.0331  0.5277
  924loPI    C114101   4.721   3.887   5.900 -0.1851  0.0323 -0.0289
  924loPI    C214102   4.618   4.223   5.709  0.3163  0.1341 -0.1324
  924loPI    C314103   4.651   3.879   5.506 -0.0786  0.0420 -0.0482
  924loPI   PO414104   4.635   3.994   6.222 -0.1195  0.0583  0.1352
  924loPI   GL114105   4.470   3.813   6.524  0.0246  0.1741 -0.0422
  924loPI   GL214106   4.826   3.842   6.644  0.0618  0.0144  0.1151
  924loPI   C1A14107   4.396   3.843   6.965 -0.0711 -0.0506 -0.1351
  924loPI   C2A14108   4.405   3.922   7.362 -0.4333  0.0783  0.1770
  924loPI   C3A14109   4.407   3.879   7.772 -0.2066 -0.2603  0.0450
  924loPI   C4A14110   4.350   3.892   8.251  0.1104 -0.1461 -0.1098
  924loPI   C5A14111   4.554   3.832   8.571  0.0259 -0.1050 -0.1023
  924loPI   C6A14112   4.852   3.841   8.796  0.0752 -0.1129  0.1672
  924loPI   C1B14113   4.870   3.966   7.064  0.0777 -0.3474  0.1639
  924loPI   C2B14114   5.008   4.020   7.460  0.0026  0.3270  0.4018
  924loPI   C3B14115   5.041   3.938   7.886  0.1438  0.2148 -0.2459
  924loPI   C4B14116   4.805   4.050   8.175 -0.1005 -0.2442 -0.1429
  925loPI    C114117   0.338   7.520   5.683  0.1479 -0.0111 -0.0212
  925loPI    C214118   0.279   7.796   5.400  0.0289  0.0101  0.0240
  925loPI    C314119   0.244   7.408   5.311  0.0786  0.0135 -0.0112
  925loPI   PO414120   0.212   7.606   5.863 -0.2979  0.0775 -0.3119
  925loPI   GL114121  -0.130   7.456   6.180  0.1115  0.1286 -0.0645
  925loPI   GL214122   0.137   7.281   6.287 -0.2007 -0.0753 -0.0264
  925loPI   C1A14123  -0.131   7.327   6.671 -0.3150  0.0137  0.4305
  925loPI   C2A14124  -0.049   7.209   7.113 -0.0434  0.5275 -0.0590
  925loPI   C3A14125  -0.003   7.335   7.579 -0.3056  0.1624  0.2059
  925loPI   C4A14126  -0.154   7.391   7.894 -0.2571 -0.0773 -0.0900
  925loPI   C5A14127  -0.239   7.195   8.329  0.2310 -0.1507  0.1747
  925loPI   C6A14128  -0.094   6.815   8.544  0.0478 -0.2881  0.4751
  925loPI   C1B14129   0.382   7.257   6.739 -0.0324  0.2710 -0.0928
  925loPI   C2B14130   0.506   7.277   7.153  0.0924  0.0450  0.2392
  925loPI   C3B14131   0.889   7.127   7.330  0.3186  0.1188 -0.0340
  925loPI   C4B14132   1.149   7.143   7.726 -0.2194  0.0860 -0.2168
  926loPI    C114133  10.584  12.305   5.700 -0.1191  0.1985 -0.0118
  926loPI    C214134  10.442  12.278   5.327  0.2764  0.0240 -0.1555
  926loPI    C314135  10.537  11.946   5.529 -0.1909  0.1014  0.2082
  926loPI   PO414136  10.401  12.407   5.813 -0.0039  0.0077  0.2070
  926loPI   GL114137  10.406  12.525   6.188 -0.3141  0.0491 -0.0809
  926loPI   GL214138  10.698  12.396   6.378  0.1007  0.1746 -0.2243
  926loPI   C1A14139  10.303  12.630   6.569 -0.2285  0.3788  0.1627
  926loPI   C2A14140  10.293  12.665   7.006  0.1725 -0.0792 -0.2210
  926loPI   C3A14141  10.311  12.678   7.423  0.3011  0.2390 -0.2469
  926loPI   C4A14142  10.277  12.699   7.963 -0.2252 -0.0415 -0.0876
  926loPI   C5A14143   9.905  12.719   8.223  0.0042  0.3015  0.0369
  926loPI   C6A14144   9.415  12.559   8.154 -0.0303 -0.2987  0.0764
  926loPI   C1B14145  10.624  12.299   6.772  0.1720 -0.2069 -0.0339
  926loPI   C2B14146  10.768  12.290   7.233 -0.2844  0.1733 -0.3915
  926loPI   C3B14147  10.720  12.355   7.691 -0.1371 -0.0120 -0.1801
  926loPI   C4B14148  10.706  12.389   8.120  0.1863  0.1426 -0.1004
  927loPI    C114149  12.620   1.075   5.797  0.2025 -0.2580 -0.1024
  927loPI    C214150  12.685   1.407   5.583 -0.1846 -0.0732  0.0566
  927loPI    C314151  12.361   1.183   5.512 -0.0794 -0.2564  0.1487
  927loPI   PO414152  12.656   1.155   6.064  0.2866  0.1163  0.0904
  927loPI   GL114153  12.440   1.184   6.383 -0.1898  0.1111  0.2748
  927loPI   GL214154  12.306   1.275   6.531 -0.1551 -0.0075 -0.3116
  927loPI   C1A14155  12.682   1.119   6.791  0.1673  0.0390 -0.3463
  927loPI   C2A14156  12.749   1.154   7.218 -0.0790 -0.0630  0.2404
  927loPI   C3A14157  12.650   1.261   7.650  0.0388  0.0326  0.1867
  927loPI   C4A14158  12.561   1.180   8.073 -0.0381  0.0401  0.2097
  927loPI   C5A14159  12.647   1.446   8.472 -0.4145  0.0880 -0.2091
  927loPI   C6A14160  12.580   1.844   8.664 -0.0542 -0.2094 -0.0156
  927loPI   C1B14161  12.228   1.093   6.942 -0.2131 -0.1532 -0.0249
  927loPI   C2B14162  12.205   1.070   7.418  0.0273  0.1140  0.0419
  927loPI   C3B14163  11.989   1.092   7.821 -0.1129 -0.1986  0.1200
  927loPI   C4B14164  11.986   1.080   8.159  0.1218  0.0762 -0.2295
  928loPI    C114165   3.536   7.655   6.169  0.0632  0.4179  0.1901
  928loPI    C214166   3.747   7.344   6.306 -0.0798  0.4087  0.3935
  928loPI    C314167   3.901   7.581   6.024 -0.0439  0.0436  0.0982
  928loPI   PO414168   3.458   7.843   6.355  0.1170  0.1983  0.0260
  928loPI   GL114169   3.120   7.800   6.669 -0.0142 -0.1930  0.0953
  928loPI   GL214170   3.180   8.170   6.614  0.2172 -0.3074 -0.1003
  928loPI   C1A14171   3.204   7.658   6.985 -0.2716  0.1912  0.1554
  928loPI   C2A14172   3.192   7.647   7.485 -0.0122 -0.2870  0.1403
  928loPI   C3A14173   3.228   7.720   7.937 -0.2740 -0.0476  0.2630
  928loPI   C4A14174   3.177   7.672   8.355 -0.2881 -0.0192 -0.0198
  928loPI   C5A14175   3.307   7.774   8.787  0.1262 -0.0364  0.0875
  928loPI   C6A14176   3.743   7.651   9.023  0.0587  0.0356 -0.3545
  928loPI   C1B14177   3.191   8.393   7.024 -0.2747  0.0426 -0.3430
  928loPI   C2B14178   3.296   8.299   7.420  0.0998 -0.1821 -0.2296
  928loPI   C3B14179   3.353   8.421   7.881  0.1273  0.0937 -0.4121
  928loPI   C4B14180   3.422   8.624   8.236 -0.0883  0.0092  0.1270
  929loPI    C114181   3.281   6.366   6.293  0.0703  0.0200 -0.0250
  929loPI    C214182   3.053   6.604   6.066 -0.1977 -0.1544  0.0568
  929loPI    C314183   3.375   6.426   5.909 -0.0114  0.2338 -0.0130
  929loPI   PO414184   3.090   6.329   6.497 -0.3467  0.1431  0.1650
  929loPI   GL114185   2.948   6.471   6.925 -0.1436 -0.1925  0.3190
  929loPI   GL214186   2.971   6.773   6.999  0.2972  0.2188 -0.1739
  929loPI   C1A14187   3.319   6.315   7.191 -0.0202  0.2074 -0.3579
  929loPI   C2A14188   3.314   6.374   7.571  0.1384 -0.1563  0.1121
  929loPI   C3A14189   3.299   6.273   7.951 -0.0292  0.0865 -0.1990
  929loPI   C4A14190   3.174   6.022   8.212 -0.0592  0.1388 -0.0280
  929loPI   C5A14191   3.097   5.828   8.562  0.0019  0.1470  0.0791
  929loPI   C6A14192   3.240   5.438   8.652 -0.2728  0.5789 -0.3188
  929loPI   C1B14193   2.952   6.741   7.502  0.1543 -0.0380 -0.0031
  929loPI   C2B14194   2.870   6.699   7.891 -0.0110 -0.0404  0.1174
  929loPI   C3B14195   2.815   6.822   8.348  0.0855  0.0890  0.4723
  929loPI   C4B14196   2.885   6.928   8.748 -0.0808  0.2209  0.0120
  930loPI    C114197  13.720  14.545   5.638  0.1273 -0.0952 -0.0836
  930loPI    C214198  13.664  14.159   5.727  0.0338 -0.0298  0.1505
  930loPI    C314199  13.377  14.364   5.538  0.1620 -0.1232 -0.1527
  930loPI   PO414200  13.725  14.624   5.827  0.1498 -0.2459  0.2394
  930loPI   GL114201  13.780  14.645   6.235 -0.0806 -0.0740  0.3786
  930loPI   GL214202  13.836  14.938   6.174  0.0118  0.0956 -0.2104
  930loPI   C1A14203  13.702  14.448   6.611  0.3881  0.1106  0.1034
  930loPI   C2A14204  13.823  14.343   6.991 -0.1420  0.0945  0.0189
  930loPI   C3A14205  13.803  14.369   7.408  0.0045  0.1167  0.0684
  930loPI   C4A14206  13.798  14.393   7.825 -0.2509  0.2092  0.0922
  930loPI   C5A14207  13.852  14.348   8.270  0.6116  0.2487 -0.1179
  930loPI   C6A14208  14.060  14.425   8.714 -0.0393  0.0074  0.4880
  930loPI   C1B14209  13.849  15.010   6.560  0.2387 -0.1015 -0.1345
  930loPI   C2B14210  13.797  14.858   6.949  0.0612 -0.3203 -0.0477
  930loPI   C3B14211  13.993  14.915   7.345 -0.0226 -0.0459  0.0859
  930loPI   C4B14212  13.899  14.941   7.815  0.1233 -0.1619 -0.2609
  931loPI    C114213  16.175  16.709   5.480  0.1099  0.0449  0.1607
  931loPI    C214214  16.432  16.563   5.750  0.1533  0.0150  0.1036
  931loPI    C314215  16.564  16.681   5.391  0.1171  0.1854  0.1450
  931loPI   PO414216  16.027  16.861   5.580  0.2882  0.3367  0.3183
  931loPI   GL114217  16.096  16.899   5.997 -0.1740  0.0385  0.0656
  931loPI   GL214218  16.105  17.220   6.073  0.4145 -0.3372  0.2170
  931loPI   C1A14219  15.834  16.842   6.325  0.1174 -0.0217 -0.0945
  931loPI   C2A14220  15.876  16.788   6.689 -0.2537 -0.1324 -0.0600
  931loPI   C3A14221  15.810  16.810   7.102 -0.1168  0.0117 -0.1617
  931loPI   C4A14222  15.875  16.856   7.511 -0.2207 -0.0137 -0.3070
  931loPI   C5A14223  15.859  16.928   7.921 -0.1871  0.2548  0.0471
  931loPI   C6A14224  15.736  16.652   8.213 -0.0733  0.1243 -0.0605
  931loPI   C1B14225  16.135  17.256   6.535  0.3960 -0.0195 -0.0488
  931loPI   C2B14226  16.046  17.251   6.947  0.0584 -0.0057 -0.0754
  931loPI   C3B14227  16.046  17.291   7.374  0.1619  0.2046 -0.0566
  931loPI   C4B14228  15.981  17.395   7.764 -0.1853 -0.1211 -0.3072
  932loPI    C114229  14.409   3.478   5.708 -0.1269  0.1194 -0.0053
  932loPI    C214230  14.279   3.579   5.343 -0.0461 -0.1688 -0.1163
  932loPI    C314231  14.664   3.628   5.439 -0.0218 -0.2990 -0.1457
  932loPI   PO414232  14.218   3.272   5.804  0.3264 -0.1644 -0.1538
  932loPI   GL114233  14.067   3.169   6.251  0.4407  0.1247 -0.0793
  932loPI   GL214234  14.271   2.862   6.400  0.0898 -0.0259  0.0170
  932loPI   C1A14235  13.859   3.301   6.707 -0.1268  0.1251  0.0372
  932loPI   C2A14236  13.887   3.326   7.214 -0.1223  0.0097 -0.0082
  932loPI   C3A14237  13.823   3.298   7.642 -0.3717 -0.0830 -0.1140
  932loPI   C4A14238  13.766   3.181   8.042  0.2213  0.0456 -0.2553
  932loPI   C5A14239  13.976   3.048   8.485  0.1153  0.1435 -0.1042
  932loPI   C6A14240  14.143   3.016   8.832 -0.1714  0.1790 -0.3701
  932loPI   C1B14241  14.274   2.919   6.829 -0.1920 -0.0501 -0.0892
  932loPI   C2B14242  14.239   2.977   7.278 -0.2116 -0.0279  0.1077
  932loPI   C3B14243  14.197   2.912   7.684 -0.0922 -0.0746  0.0177
  932loPI   C4B14244  14.253   2.742   8.155  0.0343 -0.3924 -0.1105
  933loPI    C114245  10.831   2.323   5.953 -0.2190  0.1479 -0.2562
  933loPI    C214246  10.801   2.705   6.067  0.0920  0.1203 -0.0686
  933loPI    C314247  10.991   2.613   5.728  0.2752  0.1140  0.0343
  933loPI   PO414248  10.827   2.203   6.198  0.0306  0.1592  0.0091
  933loPI   GL114249  10.781   2.070   6.627  0.1386 -0.0395  0.1681
  933loPI   GL214250  11.092   2.158   6.637  0.4012 -0.2400 -0.0391
  933loPI   C1A14251  10.608   2.107   6.982 -0.0278 -0.1285  0.1841
  933loPI   C2A14252  10.595   2.011   7.414  0.1034  0.1892  0.1227
  933loPI   C3A14253  10.478   2.135   7.830 -0.2383 -0.3756 -0.1671
  933loPI   C4A14254  10.248   2.066   8.287 -0.1172 -0.0409 -0.0588
  933loPI   C5A14255   9.911   2.307   8.460 -0.3960 -0.1810  0.3651
  933loPI   C6A14256   9.401   2.377   8.553  0.0974  0.0767 -0.1649
  933loPI   C1B14257  11.037   2.191   7.128  0.2668 -0.1087  0.4570
  933loPI   C2B14258  11.062   2.192   7.500  0.2758 -0.3852  0.1562
  933loPI   C3B14259  11.051   2.219   7.978  0.1322 -0.1175 -0.2751
  933loPI   C4B14260  11.007   2.203   8.458  0.0056 -0.1999 -0.4997
  934loPI    C114261   0.531  14.960   5.730 -0.2928  0.0712 -0.0242
  934loPI    C214262   0.491  14.619   5.525  0.1565 -0.0576  0.0921
  934loPI    C314263   0.568  14.960   5.332  0.3624 -0.1403  0.0250
  934loPI   PO414264   0.434  14.913   5.947  0.1151 -0.1388 -0.2640
  934loPI   GL114265   0.379  14.912   6.343  0.2203  0.1899  0.1028
  934loPI   GL214266   0.363  15.259   6.429 -0.2743  0.0733  0.1265
  934loPI   C1A14267   0.613  14.995   6.737 -0.0176 -0.1780 -0.0253
  934loPI   C2A14268   0.562  15.045   7.236 -0.2008 -0.3297 -0.1568
  934loPI   C3A14269   0.571  14.982   7.645  0.0830 -0.1676  0.0674
  934loPI   C4A14270   0.733  14.959   8.136 -0.0021  0.1279  0.0350
  934loPI   C5A14271   0.841  15.291   8.347  0.1361  0.1316  0.1382
  934loPI   C6A14272   0.735  15.628   8.665  0.4355  0.0678  0.1689
  934loPI   C1B14273   0.162  15.395   6.816 -0.1557 -0.1746 -0.1191
  934loPI   C2B14274   0.066  15.446   7.236 -0.0524 -0.3695  0.1029
  934loPI   C3B14275   0.088  15.395   7.694  0.0975  0.0396  0.2080
  934loPI   C4B14276   0.357  15.275   8.065  0.0647  0.1288 -0.0925
  935loPI    C114277  16.712   4.281   5.504  0.0650  0.0072 -0.1527
  935loPI    C214278  16.561   3.914   5.557  0.0676  0.0367  0.0679
  935loPI    C314279  16.823   3.982   5.262 -0.0456 -0.1043 -0.0671
  935loPI   PO414280  16.786   4.308   5.745  0.2981 -0.0288  0.0821
  935loPI   GL114281  17.098   4.207   6.119 -0.0063  0.0871  0.0222
  935loPI   GL214282  16.796   4.096   6.179 -0.1678 -0.2190  0.0147
  935loPI   C1A14283  17.377   4.221   6.415 -0.3788  0.0960 -0.0003
  935loPI   C2A14284  17.434   4.188   6.867  0.0393  0.1247  0.1197
  935loPI   C3A14285  17.359   4.046   7.301  0.0813  0.0712 -0.2468
  935loPI   C4A14286  17.212   3.994   7.681 -0.0309 -0.3553 -0.1279
  935loPI   C5A14287  17.177   3.982   8.124 -0.0249  0.4063  0.0464
  935loPI   C6A14288  17.138   3.722   8.474  0.4117 -0.1087 -0.1934
  935loPI   C1B14289  16.876   4.023   6.613  0.2188 -0.3941  0.0449
  935loPI   C2B14290  16.987   3.935   6.933  0.2227  0.1154 -0.0914
  935loPI   C3B14291  16.845   4.011   7.304  0.0445 -0.0785  0.0639
  935loPI   C4B14292  16.745   4.021   7.723  0.2524 -0.2280 -0.2405
  936loPI    C114293  12.677  16.452   5.401  0.1029 -0.1948 -0.0487
  936loPI    C214294  12.751  16.110   5.207 -0.0139 -0.0501 -0.3555
  936loPI    C314295  12.482  16.368   5.062 -0.1689  0.0236  0.0502
  936loPI   PO414296  12.841  16.418   5.621  0.0619 -0.3259 -0.5009
  936loPI   GL114297  12.802  16.325   6.122 -0.0362 -0.1535  0.0477
  936loPI   GL214298  12.981  16.571   6.328  0.1926  0.1282  0.2026
  936loPI   C1A14299  12.831  16.040   6.447  0.2209  0.4100 -0.1219
  936loPI   C2A14300  12.812  15.979   6.902  0.1029  0.1130  0.0063
  936loPI   C3A14301  12.874  15.928   7.412 -0.1478 -0.0238  0.3054
  936loPI   C4A14302  12.798  16.029   7.806  0.0171 -0.4744  0.1151
  936loPI   C5A14303  12.849  16.128   8.267 -0.0734 -0.0543  0.2262
  936loPI   C6A14304  12.610  16.399   8.505  0.1997 -0.0376 -0.0127
  936loPI   C1B14305  12.955  16.489   6.795 -0.1808 -0.1865 -0.0350
  936loPI   C2B14306  12.940  16.384   7.205 -0.2113 -0.3805 -0.0862
  936loPI   C3B14307  13.027  16.522   7.618 -0.0384  0.0701  0.0445
  936loPI   C4B14308  13.042  16.553   7.904  0.2020  0.0687 -0.1143
  937loPI    C114309   0.053  10.696   6.047 -0.1822 -0.0490 -0.0032
  937loPI    C214310  -0.037  10.641   5.661 -0.0770 -0.0607 -0.0264
  937loPI    C314311   0.022  10.325   5.900  0.2445 -0.0547 -0.0929
  937loPI   PO414312  -0.170  10.863   6.135 -0.2026 -0.1373 -0.5596
  937loPI   GL114313  -0.265  11.084   6.489  0.1011  0.0482  0.1621
  937loPI   GL214314  -0.602  10.975   6.428 -0.1984  0.1950 -0.1942
  937loPI   C1A14315  -0.273  11.159   6.960  0.0735  0.0598  0.1366
  937loPI   C2A14316  -0.312  11.243   7.273  0.0894  0.0549 -0.2693
  937loPI   C3A14317  -0.205  11.100   7.644 -0.0019  0.1971  0.6745
  937loPI   C4A14318  -0.018  11.032   8.031  0.1035 -0.1140  0.1572
  937loPI   C5A14319   0.070  10.989   8.396  0.1821  0.0058  0.0816
  937loPI   C6A14320   0.275  10.777   8.655  0.3359 -0.0004 -0.0238
  937loPI   C1B14321  -0.784  11.124   6.827 -0.2301 -0.1329  0.0429
  937loPI   C2B14322  -0.986  10.924   7.144  0.0726  0.0381  0.0626
  937loPI   C3B14323  -1.288  10.743   7.384  0.0540  0.0174  0.0821
  937loPI   C4B14324  -1.550  10.331   7.397 -0.0517  0.2049 -0.1855
  938loPI    C114325   1.005  15.646   5.870  0.0642 -0.2328 -0.0212
  938loPI    C214326   1.253  15.603   5.558 -0.0764  0.0091 -0.1694
  938loPI    C314327   0.870  15.700   5.497 -0.0656  0.2249  0.0860
  938loPI   PO414328   1.118  15.701   6.087  0.1921  0.0629 -0.1700
  938loPI   GL114329   1.226  15.602   6.435  0.0207 -0.2812 -0.1323
  938loPI   GL214330   1.075  15.355   6.480 -0.2925  0.1125  0.0201
  938loPI   C1A14331   1.304  15.720   6.922  0.1684  0.1976 -0.2733
  938loPI   C2A14332   1.200  15.750   7.379 -0.1156  0.2861  0.1396
  938loPI   C3A14333   1.220  15.637   7.778  0.0372 -0.1143  0.1930
  938loPI   C4A14334   1.246  15.489   8.136  0.2586 -0.0472  0.2208
  938loPI   C5A14335   1.267  15.349   8.553  0.0587  0.0827 -0.0701
  938loPI   C6A14336   1.118  15.563   8.954 -0.1180  0.0981  0.2919
  938loPI   C1B14337   1.038  15.236   6.975  0.2578 -0.0196  0.1633
  938loPI   C2B14338   1.022  15.160   7.429  0.2909  0.1808 -0.0365
  938loPI   C3B14339   1.119  15.148   7.867  0.0789 -0.2837  0.2670
  938loPI   C4B14340   1.238  14.995   8.166 -0.1665  0.0543 -0.1181
  939loPI    C114341   1.321  16.527   5.733 -0.0897 -0.0691 -0.0179
  939loPI    C214342   1.546  16.815   5.895  0.0205  0.0485 -0.3695
  939loPI    C314343   1.709  16.555   5.639 -0.1502 -0.1324 -0.2967
  939loPI   PO414344   1.109  16.672   5.788 -0.0189  0.1115  0.2048
  939loPI   GL114345   1.041  16.835   6.135 -0.2571  0.1637 -0.0149
  939loPI   GL214346   1.262  16.944   6.375 -0.0337  0.1223  0.0526
  939loPI   C1A14347   0.785  16.905   6.484  0.0652 -0.1036 -0.1689
  939loPI   C2A14348   0.676  16.919   6.903  0.3905  0.2502  0.3095
  939loPI   C3A14349   0.665  16.868   7.360 -0.0968  0.2610  0.0553
  939loPI   C4A14350   0.638  16.973   7.766  0.1344  0.1838 -0.0425
  939loPI   C5A14351   0.650  16.826   8.209  0.0554 -0.1790 -0.0139
  939loPI   C6A14352   0.467  16.910   8.635  0.0379 -0.0110 -0.1585
  939loPI   C1B14353   1.159  16.995   6.776 -0.0309  0.4201  0.2465
  939loPI   C2B14354   1.206  17.005   7.182  0.1533  0.4090  0.1873
  939loPI   C3B14355   1.102  17.043   7.516 -0.0486  0.2085 -0.1061
  939loPI   C4B14356   1.097  17.060   7.976  0.0230  0.1104  0.0246
  940loPI    C114357   8.650  17.249   5.844 -0.0432  0.1702  0.0369
  940loPI    C214358   8.604  16.980   6.136  0.1410  0.1650  0.0625
  940loPI    C314359   8.582  16.865   5.754  0.3399  0.0898  0.0726
  940loPI   PO414360   8.653  17.455   6.009  0.1970 -0.0641 -0.1686
  940loPI   GL114361   8.502  17.647   6.391 -0.0641  0.2288  0.0062
  940loPI   GL214362   8.334  17.301   6.442  0.1583 -0.0808 -0.0150
  940loPI   C1A14363   8.717  17.662   6.818  0.5546 -0.2532  0.1595
  940loPI   C2A14364   8.537  17.755   7.140  0.2718 -0.3885 -0.2029
  940loPI   C3A14365   8.574  17.791   7.460  0.0252 -0.0331  0.0033
  940loPI   C4A14366   8.482  17.817   7.954  0.0142 -0.1583 -0.0923
  940loPI   C5A14367   8.455  17.959   8.350 -0.2496 -0.0112  0.2605
  940loPI   C6A14368   8.596  17.993   8.826  0.1703  0.0128  0.1584
  940loPI   C1B14369   8.372  17.359   6.974 -0.3322 -0.0173 -0.0963
  940loPI   C2B14370   8.334  17.318   7.372 -0.1838 -0.2005 -0.1250
  940loPI   C3B14371   8.312  17.382   7.797 -0.1825  0.1240 -0.1639
  940loPI   C4B14372   8.373  17.378   8.166 -0.0677 -0.1380  0.0311
  941loPI    C114373   3.655  17.375   5.510  0.1925 -0.3326  0.2491
  941loPI    C214374   3.521  17.006   5.435  0.0773 -0.2656  0.1224
  941loPI    C314375   3.820  17.158   5.217 -0.0281 -0.1993  0.0227
  941loPI   PO414376   3.744  17.444   5.731  0.1238  0.0300 -0.1280
  941loPI   GL114377   3.559  17.575   6.125  0.1362 -0.2586 -0.2112
  941loPI   GL214378   3.256  17.445   6.277 -0.0611  0.2052 -0.2538
  941loPI   C1A14379   3.631  17.665   6.512 -0.2668  0.0362 -0.2148
  941loPI   C2A14380   3.610  17.554   6.981  0.0826 -0.0159  0.0829
  941loPI   C3A14381   3.700  17.605   7.472  0.0339  0.0461  0.0714
  941loPI   C4A14382   3.793  17.565   7.813 -0.0738 -0.0057 -0.3830
  941loPI   C5A14383   3.850  17.418   8.312 -0.2576 -0.0525 -0.1005
  941loPI   C6A14384   4.043  17.409   8.771  0.2406 -0.3805  0.0200
  941loPI   C1B14385   3.236  17.449   6.715 -0.0478  0.0540 -0.0872
  941loPI   C2B14386   3.157  17.454   7.178 -0.0541 -0.1087 -0.0536
  941loPI   C3B14387   3.254  17.511   7.643  0.1853  0.0251 -0.0559
  941loPI   C4B14388   3.369  17.368   8.105  0.0685 -0.2941  0.1798
  942loPI    C114389   8.785  16.053   5.743 -0.0224 -0.0197  0.0574
  942loPI    C214390   9.034  15.753   5.655 -0.1318 -0.1406  0.1575
  942loPI    C314391   9.071  16.104   5.469 -0.0294 -0.2292  0.0094
  942loPI   PO414392   8.747  16.050   5.978  0.0558  0.2783  0.2166
  942loPI   GL114393   8.985  15.871   6.392  0.0041 -0.0803 -0.0085
  942loPI   GL214394   9.119  16.047   6.666  0.0632 -0.0290  0.1618
  942loPI   C1A14395   8.874  15.639   6.838  0.1316  0.1788 -0.1970
  942loPI   C2A14396   8.850  15.564   7.309 -0.1275  0.1178  0.4231
  942loPI   C3A14397   8.796  15.492   7.686  0.0254 -0.1875  0.0281
  942loPI   C4A14398   8.831  15.707   8.059  0.0601  0.0950 -0.0960
  942loPI   C5A14399   8.752  15.720   8.376 -0.2193 -0.1344 -0.1402
  942loPI   C6A14400   8.957  15.870   8.719  0.0643  0.3606  0.4063
  942loPI   C1B14401   9.035  16.076   7.080  0.2002 -0.3295  0.2459
  942loPI   C2B14402   8.978  16.051   7.578 -0.0596 -0.1799  0.3222
  942loPI   C3B14403   8.908  16.196   7.935  0.2590  0.2637  0.3864
  942loPI   C4B14404   8.886  16.200   8.329  0.1207  0.4251  0.0064
  943loPI    C114405   6.280  16.676   5.758  0.1427  0.0780  0.0176
  943loPI    C214406   6.264  17.075   5.737  0.1925  0.0773 -0.0369
  943loPI    C314407   6.518  16.874   5.504  0.0409  0.0016 -0.1385
  943loPI   PO414408   6.380  16.577   6.028 -0.0473 -0.1476  0.1831
  943loPI   GL114409   6.374  16.459   6.484 -0.2037  0.1027 -0.4578
  943loPI   GL214410   6.712  16.524   6.464  0.0857 -0.1096  0.1958
  943loPI   C1A14411   6.170  16.394   6.780  0.0266  0.2094 -0.3786
  943loPI   C2A14412   6.171  16.363   7.172  0.0540  0.1261 -0.1529
  943loPI   C3A14413   6.208  16.395   7.538 -0.0792 -0.1781 -0.0666
  943loPI   C4A14414   6.264  16.317   7.956  0.1008 -0.1701 -0.0944
  943loPI   C5A14415   6.144  16.240   8.311 -0.4882 -0.1987  0.1042
  943loPI   C6A14416   6.366  16.182   8.757 -0.1499 -0.1906  0.3854
  943loPI   C1B14417   6.695  16.451   6.962 -0.2170 -0.4363 -0.0007
  943loPI   C2B14418   6.752  16.463   7.388 -0.2165  0.1869  0.3246
  943loPI   C3B14419   6.719  16.503   7.829  0.0908  0.0941  0.0941
  943loPI   C4B14420   6.669  16.511   8.284  0.0667 -0.1846 -0.1136
  944loPI    C114421   2.339  10.232   6.275 -0.1125  0.0837  0.2248
  944loPI    C214422   2.633  10.391   6.055 -0.0508  0.0474  0.2803
  944loPI    C314423   2.471  10.041   5.949 -0.2363  0.1804  0.1172
  944loPI   PO414424   2.074  10.427   6.220  0.0665  0.0365 -0.1514
  944loPI   GL114425   1.795  10.458   6.563  0.0039 -0.0627 -0.1619
  944loPI   GL214426   2.075  10.195   6.734  0.0792 -0.1492  0.2477
  944loPI   C1A14427   1.744  10.573   6.969  0.3286  0.0151 -0.3040
  944loPI   C2A14428   1.926  10.659   7.312  0.0544 -0.1185 -0.0354
  944loPI   C3A14429   2.081  10.752   7.715  0.1370  0.3207 -0.1124
  944loPI   C4A14430   2.138  10.750   8.140 -0.2744  0.0584 -0.1839
  944loPI   C5A14431   2.313  11.080   8.520  0.3576 -0.2098  0.0512
  944loPI   C6A14432   2.368  11.529   8.614  0.2459  0.2243 -0.1053
  944loPI   C1B14433   2.019  10.174   7.188 -0.1741  0.0303 -0.2063
  944loPI   C2B14434   2.093  10.227   7.531  0.5665 -0.2506 -0.0302
  944loPI   C3B14435   2.131   9.911   7.964  0.2157  0.1334  0.0343
  944loPI   C4B14436   2.081   9.711   8.355  0.3870  0.1057 -0.0738
  945loPI    C114437  15.866  14.694   5.558 -0.2454 -0.0094 -0.0408
  945loPI    C214438  16.020  14.326   5.522 -0.0511  0.0596  0.0702
  945loPI    C314439  15.921  14.535   5.195  0.1791  0.0501 -0.0067
  945loPI   PO414440  16.007  14.819   5.805  0.0671 -0.2271  0.0041
  945loPI   GL114441  16.082  14.896   6.141 -0.0675 -0.0306  0.3484
  945loPI   GL214442  16.269  15.086   6.318  0.0849 -0.0440 -0.1181
  945loPI   C1A14443  16.137  14.589   6.484  0.2157 -0.2912 -0.0573
  945loPI   C2A14444  16.101  14.508   6.982  0.1713  0.3053 -0.0694
  945loPI   C3A14445  16.104  14.550   7.449  0.0967 -0.1155 -0.0995
  945loPI   C4A14446  16.193  14.577   7.942 -0.1659 -0.3239  0.0069
  945loPI   C5A14447  16.012  14.636   8.360  0.0043  0.3481 -0.0911
  945loPI   C6A14448  15.785  14.683   8.625 -0.3744 -0.3041 -0.0301
  945loPI   C1B14449  16.252  15.038   6.699  0.1097  0.1340  0.1250
  945loPI   C2B14450  16.231  14.985   7.147  0.0026 -0.0744 -0.0306
  945loPI   C3B14451  16.219  15.079   7.556  0.4700 -0.1022 -0.0850
  945loPI   C4B14452  16.231  15.121   8.042 -0.1646 -0.2359  0.3546
  946loPI    C114453   3.125  13.861   6.163  0.1036  0.1005 -0.0879
  946loPI    C214454   2.921  13.832   5.820  0.1781  0.0437 -0.1278
  946loPI    C314455   2.911  14.172   6.031  0.0260  0.0343 -0.1188
  946loPI   PO414456   3.340  13.790   6.144  0.2730 -0.1632 -0.1401
  946loPI   GL114457   3.531  13.838   6.513 -0.2011 -0.1009 -0.1660
  946loPI   GL214458   3.801  13.530   6.352 -0.0803 -0.0552 -0.0973
  946loPI   C1A14459   3.502  13.837   7.013 -0.0661  0.1536 -0.1534
  946loPI   C2A14460   3.464  13.916   7.511 -0.3832  0.2063  0.2279
  946loPI   C3A14461   3.622  13.776   7.859 -0.1710  0.1224  0.2409
  946loPI   C4A14462   3.587  13.844   8.307  0.1217 -0.0124  0.2904
  946loPI   C5A14463   3.697  14.122   8.543 -0.0297 -0.0649  0.3641
  946loPI   C6A14464   3.468  14.497   8.522  0.1574 -0.2481  0.0359
  946loPI   C1B14465   3.884  13.548   6.811  0.2131  0.4326 -0.1024
  946loPI   C2B14466   3.898  13.474   7.190 -0.0305  0.1509  0.0558
  946loPI   C3B14467   3.873  13.413   7.628 -0.0186  0.0298  0.1514
  946loPI   C4B14468   3.968  13.412   8.056  0.1105 -0.1956  0.0447
  947loPI    C114469   7.270   0.443   5.858 -0.0794 -0.0650 -0.0373
  947loPI    C214470   7.286   0.771   5.630 -0.2442  0.0756  0.1492
  947loPI    C314471   7.524   0.460   5.550 -0.0447  0.2616  0.0051
  947loPI   PO414472   7.318   0.494   6.061 -0.1136 -0.0310  0.2990
  947loPI   GL114473   7.358   0.576   6.523  0.0847 -0.4602  0.0306
  947loPI   GL214474   7.288   0.358   6.645  0.0087 -0.0464 -0.3232
  947loPI   C1A14475   7.316   0.855   6.779 -0.0098  0.3518 -0.1785
  947loPI   C2A14476   7.391   0.840   7.221 -0.1944 -0.0362  0.1265
  947loPI   C3A14477   7.311   0.932   7.670  0.1311 -0.1081  0.2146
  947loPI   C4A14478   7.286   0.908   8.016 -0.0734 -0.2002 -0.0291
  947loPI   C5A14479   7.352   0.749   8.434  0.1189  0.0838 -0.0969
  947loPI   C6A14480   7.539   0.800   8.814  0.1114  0.2124 -0.1485
  947loPI   C1B14481   7.287   0.301   7.006 -0.1063 -0.0221 -0.1014
  947loPI   C2B14482   7.165   0.339   7.393 -0.2703  0.1138 -0.1160
  947loPI   C3B14483   7.136   0.351   7.832 -0.3050 -0.2118  0.1203
  947loPI   C4B14484   7.118   0.251   8.324 -0.1673 -0.0830 -0.1127
  948loPI    C114485   5.272   5.343   5.716 -0.0825  0.0092 -0.2679
  948loPI    C214486   5.266   5.734   5.636  0.3292  0.0716 -0.0246
  948loPI    C314487   5.521   5.495   5.443  0.1907 -0.0515 -0.0570
  948loPI   PO414488   5.236   5.354   5.920  0.4142 -0.2239  0.3290
  948loPI   GL114489   5.378   5.600   6.245  0.2320 -0.0262 -0.0322
  948loPI   GL214490   5.696   5.343   6.255  0.1199  0.1330  0.4750
  948loPI   C1A14491   5.505   5.480   6.670  0.0401  0.2122  0.2577
  948loPI   C2A14492   5.504   5.433   7.094 -0.1645  0.2093 -0.1542
  948loPI   C3A14493   5.509   5.477   7.561  0.1361  0.0708 -0.0412
  948loPI   C4A14494   5.561   5.489   8.056 -0.1240 -0.0118 -0.3003
  948loPI   C5A14495   5.688   5.481   8.469 -0.0533  0.0256  0.1603
  948loPI   C6A14496   5.801   5.886   8.703  0.4956  0.1595 -0.0714
  948loPI   C1B14497   6.034   5.494   6.519 -0.0119 -0.0714 -0.1489
  948loPI   C2B14498   5.980   5.612   6.929  0.2973  0.1777 -0.0046
  948loPI   C3B14499   5.995   5.610   7.391 -0.0383 -0.0754  0.1021
  948loPI   C4B14500   5.994   5.491   7.740 -0.1204 -0.1053 -0.2078
  949loPI    C114501   7.523   6.915   5.670  0.0041 -0.0466  0.1854
  949loPI    C214502   7.183   6.709   5.712 -0.0791  0.0253 -0.1134
  949loPI    C314503   7.526   6.516   5.641 -0.1054 -0.0296 -0.0919
  949loPI   PO414504   7.532   7.074   5.910  0.0488 -0.2490  0.2106
  949loPI   GL114505   7.394   7.110   6.314 -0.0326 -0.0007  0.2964
  949loPI   GL214506   7.408   6.787   6.241 -0.0417  0.0531 -0.1703
  949loPI   C1A14507   7.388   7.294   6.767 -0.1144 -0.1704 -0.0842
  949loPI   C2A14508   7.303   7.354   7.261 -0.0253 -0.0329 -0.3858
  949loPI   C3A14509   7.356   7.324   7.668  0.3035 -0.2168 -0.0855
  949loPI   C4A14510   7.357   7.435   8.059 -0.0865 -0.2784 -0.1028
  949loPI   C5A14511   7.321   7.605   8.498  0.1395 -0.2484  0.1063
  949loPI   C6A14512   7.452   7.802   8.957  0.1844  0.1199  0.0976
  949loPI   C1B14513   7.140   6.758   6.569 -0.2034 -0.1317  0.2249
  949loPI   C2B14514   7.197   6.863   7.024 -0.2355 -0.2105 -0.0815
  949loPI   C3B14515   7.213   6.895   7.478 -0.0520  0.1427 -0.0329
  949loPI   C4B14516   7.284   6.852   7.890  0.2426 -0.2127  0.1526
  950loPI    C114517   7.374  14.893   5.871  0.0218 -0.1272  0.1370
  950loPI    C214518   7.612  14.806   5.561  0.0126  0.2588  0.0164
  950loPI    C314519   7.224  14.708   5.550  0.1134 -0.1729  0.1202
  950loPI   PO414520   7.508  14.793   6.061 -0.0136  0.1068 -0.0057
  950loPI   GL114521   7.845  14.840   6.379  0.0821  0.2166  0.1777
  950loPI   GL214522   7.988  14.612   6.517  0.1449  0.1207  0.1426
  950loPI   C1A14523   7.726  14.855   6.786 -0.1935 -0.1559 -0.2752
  950loPI   C2A14524   7.766  14.865   7.284  0.1293  0.0308 -0.2009
  950loPI   C3A14525   7.675  14.853   7.729  0.2907 -0.0384  0.0503
  950loPI   C4A14526   7.669  14.902   8.102 -0.0485 -0.1890 -0.1573
  950loPI   C5A14527   7.605  14.822   8.462  0.3519  0.2080 -0.1800
  950loPI   C6A14528   7.353  14.992   8.766 -0.2367  0.1396 -0.0412
  950loPI   C1B14529   8.064  14.459   6.938 -0.3663 -0.2342  0.0667
  950loPI   C2B14530   8.027  14.450   7.397  0.1269 -0.2491 -0.1112
  950loPI   C3B14531   8.079  14.539   7.657  0.4112 -0.2209  0.2218
  950loPI   C4B14532   8.115  14.429   8.082  0.0744 -0.2281 -0.2629
  951loPI    C114533   6.266   0.441   5.672  0.1074  0.1170 -0.3616
  951loPI    C214534   5.963   0.684   5.575 -0.1965 -0.1022  0.0119
  951loPI    C314535   6.097   0.416   5.310 -0.1207  0.2012 -0.2628
  951loPI   PO414536   6.208   0.408   5.974  0.0411 -0.6431 -0.0886
  951loPI   GL114537   6.438   0.566   6.355  0.2236 -0.1117 -0.0567
  951loPI   GL214538   6.411   0.202   6.385  0.2179 -0.3580 -0.0579
  951loPI   C1A14539   6.322   0.621   6.775 -0.1194 -0.0896 -0.0344
  951loPI   C2A14540   6.383   0.567   7.196  0.0431 -0.1230 -0.3799
  951loPI   C3A14541   6.324   0.682   7.657 -0.1568  0.2174  0.3362
  951loPI   C4A14542   6.212   0.716   8.123  0.2218  0.3694  0.1104
  951loPI   C5A14543   6.289   0.653   8.509  0.1997  0.0553 -0.2785
  951loPI   C6A14544   6.575   0.592   8.846 -0.0330  0.1248  0.0385
  951loPI   C1B14545   6.236   0.095   6.792 -0.0051  0.2071 -0.2707
  951loPI   C2B14546   6.191   0.059   7.195 -0.0361  0.4568 -0.2361
  951loPI   C3B14547   6.138   0.081   7.638  0.1805 -0.1934  0.1713
  951loPI   C4B14548   6.179   0.160   8.091  0.0050 -0.2355 -0.2266
  952loPI    C114549   4.733   5.585   5.479  0.0313  0.1899 -0.1079
  952loPI    C214550   5.040   5.417   5.284 -0.0276 -0.0772  0.0248
  952loPI    C314551   4.728   5.563   5.080  0.0897  0.0014 -0.0993
  952loPI   PO414552   4.745   5.377   5.758 -0.1492  0.0085  0.2086
  952loPI   GL114553   4.833   5.424   6.217 -0.0624 -0.1331 -0.2109
  952loPI   GL214554   4.515   5.391   6.219 -0.1044 -0.4970  0.2797
  952loPI   C1A14555   5.017   5.374   6.548  0.1280  0.5707 -0.1630
  952loPI   C2A14556   4.991   5.292   7.036  0.1428 -0.0121 -0.0646
  952loPI   C3A14557   5.023   5.356   7.504 -0.1691 -0.0726 -0.0700
  952loPI   C4A14558   4.834   5.374   7.935  0.1213  0.0360  0.8079
  952loPI   C5A14559   4.953   5.377   8.367  0.0963 -0.0394 -0.1304
  952loPI   C6A14560   4.704   5.562   8.616  0.4825 -0.1235 -0.2898
  952loPI   C1B14561   4.562   5.187   6.641  0.1621  0.0298  0.3435
  952loPI   C2B14562   4.457   5.106   7.051 -0.2703 -0.2673 -0.0282
  952loPI   C3B14563   4.483   5.209   7.403  0.1190 -0.0183 -0.3411
  952loPI   C4B14564   4.325   5.293   7.782  0.0985 -0.1276 -0.2821
  953loPI    C114565   2.923   9.150   5.520 -0.0991 -0.1611 -0.0051
  953loPI    C214566   2.700   9.478   5.468  0.0867  0.0545  0.4968
  953loPI    C314567   2.923   9.337   5.167 -0.3992  0.0754  0.1159
  953loPI   PO414568   2.815   9.152   5.863 -0.3481  0.2053  0.1675
  953loPI   GL114569   2.830   9.034   6.308  0.1984  0.1610 -0.4540
  953loPI   GL214570   2.680   9.387   6.348  0.2157 -0.0035 -0.3981
  953loPI   C1A14571   2.710   8.996   6.753  0.1830  0.0499  0.0428
  953loPI   C2A14572   2.901   8.949   7.115  0.1777 -0.1045  0.0746
  953loPI   C3A14573   3.243   9.013   7.455 -0.2534  0.0963 -0.0621
  953loPI   C4A14574   3.345   8.897   7.837 -0.2572 -0.2095  0.1048
  953loPI   C5A14575   3.178   9.074   8.165  0.1334 -0.0266  0.3094
  953loPI   C6A14576   2.969   9.459   8.444 -0.0451  0.0248  0.0241
  953loPI   C1B14577   2.772   9.564   6.684 -0.1571  0.0848 -0.0935
  953loPI   C2B14578   2.803   9.796   7.098 -0.0217 -0.2113  0.3151
  953loPI   C3B14579   2.944   9.964   7.483 -0.1426 -0.0981 -0.2053
  953loPI   C4B14580   2.934  10.073   7.942  0.1444 -0.0317  0.2459
  954loPI    C114581  11.369   3.839   5.972  0.1998 -0.1384  0.0115
  954loPI    C214582  11.029   3.733   5.789  0.1432  0.2358 -0.1089
  954loPI    C314583  11.382   3.622   5.635  0.0819 -0.0347 -0.0606
  954loPI   PO414584  11.293   3.759   6.256 -0.2060 -0.0745 -0.1734
  954loPI   GL114585  11.082   3.972   6.540 -0.0656 -0.0013 -0.1059
  954loPI   GL214586  11.034   3.688   6.687 -0.0492 -0.2876 -0.3713
  954loPI   C1A14587  11.260   4.109   6.974 -0.0602 -0.2451 -0.1023
  954loPI   C2A14588  11.097   3.981   7.324 -0.0763  0.3949 -0.0806
  954loPI   C3A14589  11.152   4.128   7.659  0.0035  0.2474 -0.0290
  954loPI   C4A14590  11.190   4.023   8.170  0.0117 -0.0559  0.2858
  954loPI   C5A14591  11.273   4.175   8.674  0.0111  0.0395 -0.1632
  954loPI   C6A14592  11.592   4.553   8.771 -0.1767 -0.0707  0.1426
  954loPI   C1B14593  10.984   3.500   7.083  0.1984  0.0677  0.2470
  954loPI   C2B14594  10.923   3.487   7.412  0.0094 -0.1257  0.1769
  954loPI   C3B14595  11.014   3.627   7.822 -0.1960  0.1837 -0.0687
  954loPI   C4B14596  11.019   3.520   8.197 -0.1878 -0.1822 -0.2939
  955loPI    C114597   2.670   2.738   5.513 -0.1314  0.0165  0.0837
  955loPI    C214598   2.875   2.543   5.231 -0.1259  0.0562  0.0602
  955loPI    C314599   2.476   2.560   5.212 -0.1237  0.0845  0.0384
  955loPI   PO414600   2.875   2.679   5.805 -0.2938  0.1070  0.0588
  955loPI   GL114601   2.845   2.673   6.270  0.0702 -0.1576 -0.1482
  955loPI   GL214602   3.190   2.723   6.351  0.2072 -0.0438 -0.0628
  955loPI   C1A14603   2.630   2.497   6.631  0.1115 -0.2323  0.2238
  955loPI   C2A14604   2.555   2.523   6.970  0.1479  0.0560  0.1316
  955loPI   C3A14605   2.603   2.571   7.512  0.1130 -0.0631  0.0945
  955loPI   C4A14606   2.623   2.411   7.961  0.1531  0.2258  0.0001
  955loPI   C5A14607   2.742   2.463   8.343  0.0214  0.1883 -0.0916
  955loPI   C6A14608   2.457   2.737   8.567 -0.2449  0.0876  0.0692
  955loPI   C1B14609   3.089   2.645   6.792  0.2786  0.1754 -0.2357
  955loPI   C2B14610   3.033   2.670   7.147  0.0142  0.3075 -0.0168
  955loPI   C3B14611   3.107   2.705   7.537  0.0519 -0.1450  0.1687
  955loPI   C4B14612   3.156   2.515   7.941 -0.1392  0.2957  0.0161
  956loPI    C114613   2.524  16.842   5.857  0.3010  0.1299  0.1450
  956loPI    C214614   2.715  16.502   5.766  0.1996  0.0721  0.1475
  956loPI    C314615   2.383  16.606   5.567  0.0778  0.0343  0.3282
  956loPI   PO414616   2.504  16.865   6.087 -0.2819 -0.2896  0.3867
  956loPI   GL114617   2.557  16.776   6.602  0.1416 -0.0397  0.0611
  956loPI   GL214618   2.692  17.037   6.526 -0.0836  0.1645  0.0800
  956loPI   C1A14619   2.551  16.840   6.968 -0.1557  0.0477 -0.0344
  956loPI   C2A14620   2.621  16.732   7.422  0.1219  0.3413 -0.0159
  956loPI   C3A14621   2.553  16.880   7.887 -0.0480 -0.1027 -0.0231
  956loPI   C4A14622   2.387  16.817   8.350 -0.2583 -0.3974 -0.1089
  956loPI   C5A14623   2.166  16.600   8.529  0.4341 -0.1802 -0.0026
  956loPI   C6A14624   1.699  16.421   8.760 -0.1122  0.4203  0.2583
  956loPI   C1B14625   2.797  17.322   6.844  0.3614  0.2515 -0.1464
  956loPI   C2B14626   2.717  17.363   7.267  0.0875 -0.0460  0.1675
  956loPI   C3B14627   2.696  17.421   7.677 -0.4209 -0.0149 -0.2505
  956loPI   C4B14628   2.626  17.307   8.171  0.0422  0.2728 -0.1351
  957loPI    C114629  10.282  10.320   5.620  0.2726 -0.2002  0.0717
  957loPI    C214630  10.568  10.351   5.342  0.1540 -0.0245 -0.0331
  957loPI    C314631  10.185  10.325   5.232  0.1118 -0.0266  0.1127
  957loPI   PO414632  10.394  10.169   5.792  0.0762 -0.1762  0.0306
  957loPI   GL114633  10.372  10.069   6.141 -0.0520  0.0415  0.3258
  957loPI   GL214634  10.604  10.237   6.316  0.0865  0.2915  0.0712
  957loPI   C1A14635  10.097  10.215   6.493 -0.0538  0.0062 -0.1351
  957loPI   C2A14636  10.097  10.277   6.872 -0.0328 -0.1149  0.0106
  957loPI   C3A14637  10.075  10.323   7.347 -0.2337  0.3295  0.1643
  957loPI   C4A14638  10.121  10.260   7.839 -0.2391  0.0049  0.1618
  957loPI   C5A14639  10.094  10.292   8.190  0.2291  0.0292 -0.2884
  957loPI   C6A14640  10.259  10.474   8.619 -0.1113 -0.0754 -0.1031
  957loPI   C1B14641  10.576  10.391   6.773  0.0940 -0.1293 -0.2328
  957loPI   C2B14642  10.620  10.528   7.274 -0.1511  0.1910 -0.1387
  957loPI   C3B14643  10.614  10.368   7.756 -0.1452 -0.0576  0.2821
  957loPI   C4B14644  10.592  10.363   8.285  0.1554  0.0254 -0.4067
  958loPI    C114645   7.811   5.527   5.846  0.1025 -0.1809 -0.0131
  958loPI    C214646   7.523   5.629   5.587  0.1437 -0.1636 -0.0520
  958loPI    C314647   7.807   5.368   5.478  0.3999  0.1566 -0.1672
  958loPI   PO414648   7.729   5.542   6.099 -0.3305 -0.1501  0.1872
  958loPI   GL114649   7.752   5.451   6.481 -0.3506  0.1207  0.0542
  958loPI   GL214650   7.512   5.613   6.593  0.0750  0.1316  0.0823
  958loPI   C1A14651   7.862   5.440   6.927 -0.1927  0.2399  0.0134
  958loPI   C2A14652   7.816   5.522   7.428  0.0704 -0.2160 -0.0103
  958loPI   C3A14653   7.794   5.520   7.885 -0.0969  0.0409 -0.0029
  958loPI   C4A14654   7.820   5.414   8.337 -0.3369 -0.0155  0.0961
  958loPI   C5A14655   7.441   5.233   8.654 -0.1833 -0.0389 -0.1010
  958loPI   C6A14656   7.008   5.451   8.651 -0.4631  0.1263 -0.2114
  958loPI   C1B14657   7.365   5.543   7.056 -0.0292  0.0619  0.0273
  958loPI   C2B14658   7.348   5.533   7.531  0.4001 -0.1037 -0.0598
  958loPI   C3B14659   7.281   5.431   7.973  0.2496  0.1287  0.2855
  958loPI   C4B14660   7.345   5.616   8.338  0.2837 -0.2399  0.1482
  959loPI    C114661   0.696   1.083   5.791  0.1273 -0.0746 -0.0392
  959loPI    C214662   0.989   1.269   5.990  0.1348  0.0122 -0.1301
  959loPI    C314663   0.941   1.333   5.598  0.0115 -0.0232 -0.1214
  959loPI   PO414664   0.487   1.185   5.978 -0.1627 -0.2396  0.1730
  959loPI   GL114665   0.299   1.448   6.310  0.2364  0.2097  0.1459
  959loPI   GL214666   0.224   1.107   6.394  0.0839 -0.0715  0.0938
  959loPI   C1A14667   0.342   1.503   6.718 -0.0504  0.2510 -0.1488
  959loPI   C2A14668   0.314   1.479   7.228  0.2094  0.3501 -0.4451
  959loPI   C3A14669   0.407   1.492   7.678  0.0290 -0.0900  0.1223
  959loPI   C4A14670   0.532   1.616   8.036  0.0659 -0.1560  0.0443
  959loPI   C5A14671   0.509   1.888   8.398 -0.4869 -0.1394  0.0544
  959loPI   C6A14672   0.550   1.906   8.786  0.2046  0.0370  0.2052
  959loPI   C1B14673   0.234   1.055   6.827  0.2091 -0.0802 -0.1665
  959loPI   C2B14674   0.232   0.883   7.187  0.1832  0.0710 -0.4420
  959loPI   C3B14675   0.210   1.029   7.571  0.0682  0.2027 -0.1432
  959loPI   C4B14676   0.171   1.061   8.103 -0.1399  0.1039  0.1002
  960loPI    C114677   8.717   2.576   5.495 -0.0028 -0.0310 -0.0759
  960loPI    C214678   8.348   2.424   5.523 -0.0048 -0.0021  0.0620
  960loPI    C314679   8.419   2.735   5.281 -0.0363 -0.1120 -0.0897
  960loPI   PO414680   8.806   2.599   5.743  0.0410 -0.2174 -0.2879
  960loPI   GL114681   8.981   2.643   6.220  0.0783 -0.0512 -0.0286
  960loPI   GL214682   8.681   2.781   6.420  0.2049 -0.0754  0.0982
  960loPI   C1A14683   8.988   2.450   6.666  0.1151  0.1887 -0.2204
  960loPI   C2A14684   8.888   2.491   7.099  0.0377 -0.0179  0.2292
  960loPI   C3A14685   8.821   2.576   7.504  0.2411 -0.1357  0.1580
  960loPI   C4A14686   8.759   2.620   7.866 -0.0791  0.1160 -0.0665
  960loPI   C5A14687   8.706   2.719   8.308 -0.1667  0.4489  0.0552
  960loPI   C6A14688   8.937   2.598   8.680  0.0495 -0.0204  0.0123
  960loPI   C1B14689   8.453   2.880   6.826  0.2924  0.3119  0.0580
  960loPI   C2B14690   8.481   2.894   7.224 -0.2152  0.1086  0.1735
  960loPI   C3B14691   8.427   2.962   7.640 -0.0656  0.2363  0.0608
  960loPI   C4B14692   8.444   3.035   8.052  0.0762 -0.5368 -0.0359
  961loPI    C114693   2.295   4.140   5.499 -0.3241  0.3080  0.2291
  961loPI    C214694   2.063   3.885   5.297  0.2148 -0.1128  0.1154
  961loPI    C314695   2.190   4.222   5.122  0.0134 -0.0723  0.0439
  961loPI   PO414696   2.138   4.200   5.705  0.0337  0.0025  0.1068
  961loPI   GL114697   2.054   4.412   6.126 -0.0643  0.5870 -0.0235
  961loPI   GL214698   1.858   4.655   6.272  0.2058 -0.3320 -0.0645
  961loPI   C1A14699   1.832   4.115   6.400 -0.1999  0.0220 -0.0046
  961loPI   C2A14700   1.702   4.126   6.833  0.0779  0.2644 -0.0448
  961loPI   C3A14701   1.607   4.065   7.312  0.1838 -0.1195  0.1357
  961loPI   C4A14702   1.615   4.080   7.835  0.2311  0.4565  0.1672
  961loPI   C5A14703   1.472   4.101   8.246 -0.1138 -0.3722  0.2071
  961loPI   C6A14704   1.483   4.470   8.460 -0.2396 -0.0027  0.2823
  961loPI   C1B14705   1.933   4.574   6.669 -0.4661  0.0075  0.2420
  961loPI   C2B14706   1.862   4.523   7.166  0.1540 -0.0455  0.0597
  961loPI   C3B14707   1.810   4.558   7.674  0.2155 -0.3026 -0.0369
  961loPI   C4B14708   2.039   4.558   8.004  0.1021  0.5991 -0.0628
  962loPI    C114709  12.083   7.479   5.847  0.0346  0.2456 -0.1714
  962loPI    C214710  12.397   7.232   5.844 -0.2339 -0.1101  0.1514
  962loPI    C314711  12.326   7.468   5.529  0.2081 -0.2087 -0.0298
  962loPI   PO414712  12.037   7.471   6.161 -0.0860  0.4543 -0.1020
  962loPI   GL114713  12.133   7.513   6.492 -0.2239  0.1845  0.0165
  962loPI   GL214714  11.908   7.164   6.582  0.3379 -0.3012  0.0508
  962loPI   C1A14715  12.135   7.555   6.937  0.0077 -0.2640 -0.1044
  962loPI   C2A14716  12.220   7.569   7.363  0.0016 -0.0757 -0.1290
  962loPI   C3A14717  12.213   7.525   7.788 -0.1912  0.1256  0.0600
  962loPI   C4A14718  12.229   7.597   8.247 -0.0655 -0.0420 -0.3023
  962loPI   C5A14719  12.291   7.521   8.699  0.0740  0.0280 -0.2174
  962loPI   C6A14720  12.352   7.410   9.173  0.0013 -0.0196  0.0547
  962loPI   C1B14721  11.931   7.040   7.010  0.1751  0.2895  0.1600
  962loPI   C2B14722  11.988   7.021   7.479  0.0264 -0.3122  0.1678
  962loPI   C3B14723  12.108   7.020   7.959  0.0214  0.4095  0.1439
  962loPI   C4B14724  12.087   7.104   8.423 -0.4115 -0.1756 -0.1096
  963loPI    C114725  14.529   6.247   5.887  0.1599 -0.0513 -0.2187
  963loPI    C214726  14.202   6.118   5.696 -0.0672  0.2835 -0.0643
  963loPI    C314727  14.500   6.288   5.490  0.0142 -0.0252 -0.2060
  963loPI   PO414728  14.443   6.216   6.122  0.1101  0.0872 -0.1138
  963loPI   GL114729  14.441   6.001   6.518  0.0439  0.0416  0.0884
  963loPI   GL214730  14.175   5.914   6.393  0.5082 -0.3435  0.0631
  963loPI   C1A14731  14.549   5.934   6.914 -0.2145 -0.0924 -0.0693
  963loPI   C2A14732  14.531   5.791   7.344 -0.0099 -0.0559  0.1774
  963loPI   C3A14733  14.511   5.743   7.769 -0.4242  0.0055  0.0483
  963loPI   C4A14734  14.665   5.851   8.214 -0.2859  0.3183  0.0976
  963loPI   C5A14735  14.499   5.975   8.563 -0.1831  0.3237  0.1610
  963loPI   C6A14736  14.253   6.087   8.960 -0.3807 -0.2471  0.3707
  963loPI   C1B14737  13.981   5.797   6.847  0.1167  0.2681  0.1225
  963loPI   C2B14738  14.035   5.770   7.263 -0.0218  0.2332 -0.1380
  963loPI   C3B14739  14.058   5.635   7.691 -0.3288  0.3221  0.0382
  963loPI   C4B14740  14.186   5.584   8.104 -0.1064  0.0305  0.1612
  964loPI    C114741  15.397   4.596   5.590  0.0891 -0.0605  0.0698
  964loPI    C214742  15.328   4.221   5.470  0.0129  0.0327 -0.1832
  964loPI    C314743  15.244   4.527   5.227  0.0219  0.2173  0.0435
  964loPI   PO414744  15.585   4.566   5.724  0.4714  0.0373 -0.0163
  964loPI   GL114745  15.707   4.435   6.070  0.0179  0.1884 -0.1485
  964loPI   GL214746  15.560   4.702   6.150 -0.1254 -0.0626  0.0575
  964loPI   C1A14747  15.908   4.205   6.461 -0.2672 -0.0223 -0.0338
  964loPI   C2A14748  15.977   4.221   6.929  0.0907 -0.1725  0.1251
  964loPI   C3A14749  16.050   4.232   7.413  0.0924  0.3001  0.2046
  964loPI   C4A14750  15.933   4.250   7.855 -0.1973  0.1608  0.1711
  964loPI   C5A14751  15.806   4.485   8.232  0.1625 -0.1159  0.0169
  964loPI   C6A14752  16.032   4.675   8.713  0.2317 -0.0648  0.1314
  964loPI   C1B14753  15.574   4.618   6.521 -0.0339  0.0847  0.3905
  964loPI   C2B14754  15.600   4.531   6.952 -0.5201 -0.4287  0.1108
  964loPI   C3B14755  15.661   4.665   7.320 -0.1453 -0.2908  0.4005
  964loPI   C4B14756  15.595   4.588   7.729 -0.1048  0.0557  0.1180
  965loPI    C114757   9.343  14.198   5.929  0.1544 -0.1422  0.1359
  965loPI    C214758   9.585  14.215   6.247  0.1263  0.0258  0.1493
  965loPI    C314759   9.646  13.939   5.964  0.1013 -0.1790  0.3406
  965loPI   PO414760   9.122  14.197   6.061 -0.0169 -0.3556  0.0929
  965loPI   GL114761   9.057  13.981   6.386  0.1703  0.0558  0.0195
  965loPI   GL214762   9.339  13.812   6.342  0.1185  0.2313  0.0473
  965loPI   C1A14763   8.947  14.230   6.779  0.1829  0.0218 -0.0895
  965loPI   C2A14764   8.875  14.229   7.234  0.2863 -0.1936  0.0982
  965loPI   C3A14765   8.886  14.297   7.612 -0.0710  0.2925 -0.1444
  965loPI   C4A14766   9.023  14.261   8.007  0.0472 -0.1228 -0.1125
  965loPI   C5A14767   8.934  14.179   8.354 -0.2055  0.0154 -0.0443
  965loPI   C6A14768   8.717  13.861   8.600 -0.0523  0.0853  0.1495
  965loPI   C1B14769   9.352  13.822   6.764  0.0625  0.4293 -0.0111
  965loPI   C2B14770   9.262  13.803   7.198  0.0708 -0.0682  0.1409
  965loPI   C3B14771   9.240  13.901   7.565  0.2414  0.0627 -0.0675
  965loPI   C4B14772   9.352  13.887   7.992  0.3027  0.0298  0.0820
  966loPI    C114773   2.353   2.397   5.710  0.0798 -0.0298 -0.2260
  966loPI    C214774   1.974   2.395   5.582  0.0280 -0.0736 -0.0733
  966loPI    C314775   2.248   2.169   5.398  0.0114  0.0694 -0.2756
  966loPI   PO414776   2.363   2.548   5.881  0.0894  0.1075  0.0507
  966loPI   GL114777   2.290   2.638   6.280  0.1679 -0.1191  0.0604
  966loPI   GL214778   2.365   2.857   6.460 -0.4064 -0.0832 -0.0886
  966loPI   C1A14779   2.094   2.401   6.620  0.0419 -0.2286 -0.2622
  966loPI   C2A14780   2.077   2.393   6.991  0.2412 -0.1130 -0.2393
  966loPI   C3A14781   2.043   2.434   7.404 -0.2419  0.3922  0.1347
  966loPI   C4A14782   2.166   2.435   7.877  0.2213  0.1698  0.2954
  966loPI   C5A14783   2.188   2.493   8.193 -0.3737  0.1142 -0.2365
  966loPI   C6A14784   1.980   2.671   8.539  0.1912 -0.0714  0.1925
  966loPI   C1B14785   2.231   2.847   6.860  0.2259 -0.3062 -0.0912
  966loPI   C2B14786   2.304   2.854   7.305  0.2903  0.0215  0.0925
  966loPI   C3B14787   2.288   2.901   7.683  0.1145 -0.2105 -0.0974
  966loPI   C4B14788   2.218   2.933   8.104 -0.1011 -0.0695 -0.2212
  967loPI    C114789  17.411  14.007   5.568  0.2744 -0.0367  0.1082
  967loPI    C214790  17.610  13.718   5.376  0.1614 -0.0333 -0.0151
  967loPI    C314791  17.379  13.972   5.171 -0.1433 -0.1721  0.1491
  967loPI   PO414792  17.495  13.967   5.793 -0.2492 -0.0858  0.2055
  967loPI   GL114793  17.454  13.749   6.121  0.0586 -0.3290  0.1525
  967loPI   GL214794  17.261  13.606   6.151 -0.1599 -0.0051  0.0167
  967loPI   C1A14795  17.316  13.923   6.526 -0.1640  0.0320  0.0509
  967loPI   C2A14796  17.300  13.908   6.901 -0.1919 -0.0689  0.0477
  967loPI   C3A14797  17.327  13.910   7.317  0.5169  0.0355  0.0319
  967loPI   C4A14798  17.305  13.906   7.704 -0.0853 -0.0513 -0.4611
  967loPI   C5A14799  17.348  13.941   8.032 -0.1067 -0.0782  0.0005
  967loPI   C6A14800  17.239  13.856   8.432  0.2213  0.2004 -0.1076
  967loPI   C1B14801  17.208  13.422   6.596 -0.3531  0.1666  0.0595
  967loPI   C2B14802  17.191  13.398   7.040  0.1262 -0.0315  0.3245
  967loPI   C3B14803  17.221  13.396   7.511  0.2129  0.0907  0.0399
  967loPI   C4B14804  17.212  13.444   7.947  0.1249 -0.1399 -0.0457
  968loPI    C114805  15.338   0.487   5.488  0.2275 -0.0897  0.1309
  968loPI    C214806  15.502   0.773   5.261 -0.0583  0.0193  0.0571
  968loPI    C314807  15.164   0.594   5.143  0.0269 -0.2309  0.1865
  968loPI   PO414808  15.331   0.616   5.762 -0.3030 -0.1365  0.0460
  968loPI   GL114809  15.459   0.872   6.084  0.2466 -0.0587  0.0279
  968loPI   GL214810  15.200   0.679   6.252 -0.1737  0.2034  0.2506
  968loPI   C1A14811  15.448   0.919   6.563  0.1235 -0.0937 -0.2711
  968loPI   C2A14812  15.468   0.886   7.058 -0.3738 -0.1259  0.1692
  968loPI   C3A14813  15.464   0.894   7.449 -0.0015 -0.1208  0.0568
  968loPI   C4A14814  15.334   0.908   7.771  0.1839 -0.2941  0.1608
  968loPI   C5A14815  15.431   0.940   8.111 -0.0549 -0.0332 -0.1865
  968loPI   C6A14816  15.224   0.822   8.369 -0.1559 -0.1377  0.0026
  968loPI   C1B14817  15.005   0.763   6.634  0.1686 -0.1777 -0.1017
  968loPI   C2B14818  14.996   0.758   7.059 -0.0966  0.2144 -0.0786
  968loPI   C3B14819  14.898   0.767   7.567  0.2793 -0.2112 -0.2632
  968loPI   C4B14820  14.785   0.770   7.998  0.1887  0.1858  0.0062
  969loPI    C114821   8.439   9.343   5.518  0.3191  0.1108  0.1821
  969loPI    C214822   8.688   9.526   5.263  0.1494  0.1179  0.0195
  969loPI    C314823   8.624   9.132   5.233  0.1782  0.1075  0.0920
  969loPI   PO414824   8.505   9.325   5.737 -0.0413 -0.2737  0.1484
  969loPI   GL114825   8.449   9.494   6.170 -0.4269 -0.1137  0.0373
  969loPI   GL214826   8.226   9.189   6.310 -0.0733  0.2471  0.0110
  969loPI   C1A14827   8.725   9.362   6.485  0.1752  0.3128  0.3588
  969loPI   C2A14828   8.749   9.118   6.811 -0.2692  0.0347 -0.1945
  969loPI   C3A14829   8.741   9.109   7.222  0.2717 -0.0260  0.5789
  969loPI   C4A14830   8.826   9.128   7.606  0.1850 -0.2428 -0.0334
  969loPI   C5A14831   8.822   9.055   8.025 -0.1167 -0.0562 -0.0338
  969loPI   C6A14832   9.082   9.124   8.386  0.1142 -0.1363 -0.0293
  969loPI   C1B14833   8.227   9.028   6.791 -0.2556 -0.0298 -0.1543
  969loPI   C2B14834   8.236   9.094   7.218 -0.1054 -0.1131 -0.0869
  969loPI   C3B14835   8.361   8.975   7.611  0.0693  0.0464  0.0806
  969loPI   C4B14836   8.333   8.976   7.994 -0.1651  0.0437  0.1341
  970loPI    C114837  11.058  12.131   5.717  0.0667  0.5003 -0.0023
  970loPI    C214838  11.395  12.089   5.928 -0.0577  0.0534  0.1189
  970loPI    C314839  11.402  12.050   5.530  0.0282  0.0140  0.1242
  970loPI   PO414840  10.909  11.986   5.902 -0.3816 -0.0153 -0.0570
  970loPI   GL114841  10.969  12.022   6.259 -0.1577 -0.0812  0.1565
  970loPI   GL214842  11.150  11.703   6.342  0.1511 -0.0111  0.2944
  970loPI   C1A14843  11.004  11.961   6.745 -0.1590 -0.0148 -0.1157
  970loPI   C2A14844  11.188  11.933   7.043 -0.1811 -0.3526 -0.3151
  970loPI   C3A14845  10.996  11.914   7.428 -0.1606 -0.0097 -0.1491
  970loPI   C4A14846  11.024  11.996   7.867  0.2230  0.1151 -0.1720
  970loPI   C5A14847  10.746  11.878   8.252  0.2049  0.1684  0.1494
  970loPI   C6A14848  10.507  11.473   8.345  0.0037 -0.0596  0.3020
  970loPI   C1B14849  11.427  12.045   6.434 -0.0768  0.3271  0.1284
  970loPI   C2B14850  11.523  12.129   6.722  0.0212 -0.1388 -0.1880
  970loPI   C3B14851  11.592  12.068   7.201 -0.2009  0.2128 -0.0631
  970loPI   C4B14852  11.450  12.052   7.597  0.2929 -0.1211 -0.2029
  971loPI    C114853   6.747   4.069   5.828 -0.0758  0.0292  0.0795
  971loPI    C214854   6.602   4.226   5.489  0.0953  0.0087 -0.0045
  971loPI    C314855   6.577   3.832   5.554  0.0179  0.0191  0.0296
  971loPI   PO414856   6.640   4.189   6.007 -0.2164 -0.1500  0.0616
  971loPI   GL114857   6.584   4.443   6.353  0.1617 -0.0549 -0.1741
  971loPI   GL214858   6.730   4.708   6.337  0.1344  0.2727 -0.0080
  971loPI   C1A14859   6.427   4.325   6.715 -0.0712  0.0219 -0.0895
  971loPI   C2A14860   6.338   4.318   7.155 -0.0653  0.6041 -0.0495
  971loPI   C3A14861   6.451   4.281   7.582  0.1370  0.2389  0.0341
  971loPI   C4A14862   6.444   4.346   8.050 -0.0877 -0.3662 -0.0832
  971loPI   C5A14863   6.512   4.437   8.535 -0.0974 -0.0104  0.2490
  971loPI   C6A14864   6.756   4.589   8.794  0.1439  0.1977  0.1011
  971loPI   C1B14865   6.655   4.807   6.787  0.0845  0.0271 -0.0476
  971loPI   C2B14866   6.605   4.797   7.235  0.0056 -0.1003 -0.0937
  971loPI   C3B14867   6.662   4.899   7.574 -0.1891 -0.1343  0.1433
  971loPI   C4B14868   6.667   4.829   8.020  0.1255  0.0042  0.2570
  972loPI    C114869  13.426   0.687   5.702 -0.0067  0.0278  0.1323
  972loPI    C214870  13.762   0.604   5.502 -0.0763  0.1875 -0.0546
  972loPI    C314871  13.418   0.650   5.303 -0.1746  0.2041  0.1178
  972loPI   PO414872  13.471   0.794   5.946 -0.0712  0.0121  0.3204
  972loPI   GL114873  13.570   1.117   6.185  0.2141 -0.0743 -0.0563
  972loPI   GL214874  13.824   1.287   6.194  0.2486  0.0568  0.1446
  972loPI   C1A14875  13.617   0.921   6.672  0.1267 -0.1164 -0.3018
  972loPI   C2A14876  13.634   0.895   7.078 -0.0163 -0.4694 -0.1498
  972loPI   C3A14877  13.522   0.948   7.556 -0.2070  0.1820  0.1942
  972loPI   C4A14878  13.394   0.987   8.047 -0.0236 -0.0546  0.3577
  972loPI   C5A14879  13.537   1.204   8.364  0.1192  0.0312 -0.1218
  972loPI   C6A14880  13.600   1.439   8.700  0.0937 -0.2603 -0.1798
  972loPI   C1B14881  13.800   1.394   6.589  0.0670 -0.1599  0.0143
  972loPI   C2B14882  13.712   1.418   6.919 -0.0269 -0.2378  0.1939
  972loPI   C3B14883  13.693   1.486   7.379 -0.0090 -0.0167  0.0279
  972loPI   C4B14884  13.635   1.431   7.876 -0.4639 -0.2627  0.0215
  973loPI    C114885   3.451   1.652   5.622  0.1176 -0.0601  0.2541
  973loPI    C214886   3.299   2.022   5.633 -0.2904 -0.1918 -0.3883
  973loPI    C314887   3.671   1.962   5.497 -0.1455 -0.0029 -0.0847
  973loPI   PO414888   3.430   1.577   5.834 -0.1734 -0.1933  0.0684
  973loPI   GL114889   3.263   1.450   6.198 -0.2093  0.3954  0.0898
  973loPI   GL214890   3.423   1.670   6.308 -0.0173  0.0751 -0.0483
  973loPI   C1A14891   2.783   1.641   6.434 -0.0208  0.4528 -0.3987
  973loPI   C2A14892   2.784   1.767   6.814 -0.1641  0.0617  0.1057
  973loPI   C3A14893   2.733   1.665   7.156 -0.0312 -0.2599  0.0650
  973loPI   C4A14894   2.834   1.659   7.579  0.0234  0.0250  0.4458
  973loPI   C5A14895   2.721   1.581   7.954  0.1463  0.0284 -0.1707
  973loPI   C6A14896   2.588   1.638   8.359  0.1155 -0.6094  0.2165
  973loPI   C1B14897   3.359   1.781   6.699  0.0274  0.0500  0.0369
  973loPI   C2B14898   3.233   1.806   7.118 -0.1452  0.0949 -0.3347
  973loPI   C3B14899   3.289   1.782   7.509 -0.3375 -0.0953  0.0381
  973loPI   C4B14900   3.393   1.585   7.852  0.1199 -0.3375  0.0241
  974loPI    C114901  14.277   0.615   5.629 -0.0480 -0.1122 -0.0617
  974loPI    C214902  14.215   0.532   5.243 -0.1151  0.0443 -0.0853
  974loPI    C314903  14.179   0.907   5.375 -0.3216 -0.0441  0.1175
  974loPI   PO414904  14.164   0.426   5.789  0.1336  0.2083  0.2794
  974loPI   GL114905  14.221   0.271   6.136 -0.2371 -0.0605  0.2722
  974loPI   GL214906  13.921   0.093   6.337 -0.1302  0.3125  0.0978
  974loPI   C1A14907  14.353   0.168   6.565  0.2371  0.2326 -0.1313
  974loPI   C2A14908  14.304   0.100   7.007 -0.0811 -0.0965 -0.1315
  974loPI   C3A14909  14.300   0.233   7.432  0.0337  0.1217  0.0380
  974loPI   C4A14910  14.240   0.249   7.935  0.0969  0.1725 -0.3128
  974loPI   C5A14911  14.090   0.148   8.236  0.1809 -0.0244 -0.1970
  974loPI   C6A14912  13.709   0.259   8.459 -0.1017  0.2483 -0.0364
  974loPI   C1B14913  13.888   0.041   6.776  0.1133 -0.1294  0.0727
  974loPI   C2B14914  13.757   0.044   7.174  0.0071 -0.0083 -0.3568
  974loPI   C3B14915  13.714   0.052   7.621  0.0012 -0.0703 -0.0010
  974loPI   C4B14916  13.644   0.057   7.967 -0.0469  0.2494  0.0397
  975loPI    C114917   8.029  10.803   5.676  0.1488 -0.1461  0.0522
  975loPI    C214918   8.258  10.666   5.378  0.1557  0.4126 -0.2124
  975loPI    C314919   7.860  10.649   5.347  0.1538  0.0338 -0.0360
  975loPI   PO414920   8.121  10.742   5.939 -0.0755  0.0349  0.0974
  975loPI   GL114921   7.943  11.010   6.298 -0.2160 -0.2647 -0.1124
  975loPI   GL214922   7.753  11.198   6.323 -0.2471  0.1816 -0.0500
  975loPI   C1A14923   7.852  10.819   6.760 -0.0179 -0.2906  0.0299
  975loPI   C2A14924   7.795  10.812   7.244 -0.0340  0.1910  0.0456
  975loPI   C3A14925   7.835  10.767   7.710  0.5348 -0.0589 -0.1071
  975loPI   C4A14926   7.943  10.812   8.157 -0.0139  0.1108  0.0331
  975loPI   C5A14927   8.066  11.135   8.299  0.1052  0.1309 -0.2297
  975loPI   C6A14928   8.322  11.504   8.531  0.0177 -0.0126  0.0781
  975loPI   C1B14929   7.951  11.340   6.678 -0.1366 -0.3648 -0.0018
  975loPI   C2B14930   7.976  11.255   7.030  0.0634  0.1209 -0.1757
  975loPI   C3B14931   7.978  11.248   7.459 -0.3149 -0.0979  0.1890
  975loPI   C4B14932   8.044  11.217   7.820  0.1655 -0.1174  0.0150
  976loPI    C114933  13.401   4.526   6.018  0.0887 -0.3104  0.1792
  976loPI    C214934  13.160   4.374   5.737  0.0243  0.0812  0.0163
  976loPI    C314935  13.492   4.571   5.632  0.1629 -0.0364  0.2263
  976loPI   PO414936  13.357   4.485   6.180 -0.0347 -0.1629  0.2432
  976loPI   GL114937  13.107   4.439   6.510  0.0804  0.0335 -0.0039
  976loPI   GL214938  12.783   4.291   6.458  0.2969 -0.0822 -0.0006
  976loPI   C1A14939  13.047   4.669   6.890 -0.4146 -0.0151 -0.1788
  976loPI   C2A14940  13.232   4.591   7.223  0.0640  0.2333 -0.2320
  976loPI   C3A14941  13.260   4.649   7.669  0.0823  0.1188  0.0534
  976loPI   C4A14942  13.241   4.449   8.055 -0.0390  0.2020  0.0309
  976loPI   C5A14943  13.380   4.455   8.458  0.2208 -0.0120  0.0032
  976loPI   C6A14944  13.564   4.329   8.798  0.1179  0.2252 -0.0037
  976loPI   C1B14945  12.654   4.477   6.901  0.4944 -0.0116  0.0177
  976loPI   C2B14946  12.682   4.583   7.324 -0.1402  0.1495  0.1625
  976loPI   C3B14947  12.736   4.512   7.819 -0.0371 -0.0785  0.0671
  976loPI   C4B14948  12.740   4.308   8.165  0.1035 -0.0288 -0.1931
  977loPI    C114949  16.818  12.796   5.636  0.0316 -0.2205 -0.0292
  977loPI    C214950  17.098  13.042   5.491 -0.0314 -0.0544  0.1288
  977loPI    C314951  16.821  12.889   5.247  0.0646 -0.0441  0.0125
  977loPI   PO414952  16.686  12.875   5.838 -0.1393  0.4047  0.1933
  977loPI   GL114953  16.860  12.873   6.300 -0.1364 -0.3219 -0.0028
  977loPI   GL214954  16.712  12.626   6.299  0.2206 -0.1398 -0.1705
  977loPI   C1A14955  16.964  12.959   6.743 -0.2370 -0.0268 -0.0531
  977loPI   C2A14956  16.976  12.993   7.163  0.2184  0.0620  0.3223
  977loPI   C3A14957  17.031  12.911   7.557 -0.2403 -0.0602 -0.1012
  977loPI   C4A14958  17.156  12.909   8.024  0.3322  0.2661 -0.1718
  977loPI   C5A14959  17.200  12.531   8.299  0.1674 -0.0661  0.0451
  977loPI   C6A14960  17.388  12.100   8.169  0.0011 -0.5103 -0.0431
  977loPI   C1B14961  16.673  12.526   6.668 -0.0743 -0.0285 -0.2356
  977loPI   C2B14962  16.517  12.683   6.973  0.0980  0.0164 -0.2408
  977loPI   C3B14963  16.530  12.769   7.382 -0.0049 -0.0101 -0.0785
  977loPI   C4B14964  16.691  12.661   7.806 -0.0440  0.2874 -0.0712
  978loPI    C114965  10.741  15.421   5.682 -0.2325 -0.1348  0.0562
  978loPI    C214966  10.578  15.110   5.490 -0.0575 -0.1345 -0.0957
  978loPI    C314967  10.774  15.392   5.285  0.1831 -0.1638  0.0883
  978loPI   PO414968  10.644  15.454   5.881 -0.1124 -0.0924  0.0163
  978loPI   GL114969  10.633  15.333   6.301 -0.0392  0.0945  0.0596
  978loPI   GL214970  10.357  15.569   6.348 -0.2111  0.2896 -0.1964
  978loPI   C1A14971  10.810  15.599   6.642 -0.0768 -0.1499 -0.3085
  978loPI   C2A14972  10.689  15.547   7.071 -0.3792  0.0410 -0.0520
  978loPI   C3A14973  10.687  15.648   7.572  0.1339 -0.0736  0.0301
  978loPI   C4A14974  10.682  15.575   7.977 -0.0045 -0.0172 -0.2828
  978loPI   C5A14975  10.700  15.656   8.399 -0.0607 -0.1849  0.2947
  978loPI   C6A14976  10.712  15.987   8.724 -0.3005  0.0487 -0.0653
  978loPI   C1B14977  10.277  15.428   6.733 -0.3180  0.0097 -0.1246
  978loPI   C2B14978  10.178  15.400   7.170 -0.0996 -0.1072 -0.0916
  978loPI   C3B14979  10.210  15.380   7.527  0.0620 -0.0682 -0.2749
  978loPI   C4B14980  10.092  15.559   7.918  0.1666 -0.2586 -0.1615
  979loPI    C114981  15.408  15.391   5.730  0.0265 -0.1871  0.2481
  979loPI    C214982  15.590  15.193   5.433 -0.0534 -0.0640  0.1155
  979loPI    C314983  15.489  15.001   5.770 -0.2398 -0.2785 -0.0593
  979loPI   PO414984  15.581  15.614   5.749 -0.1142 -0.1323 -0.2877
  979loPI   GL114985  15.661  15.783   6.118 -0.0732 -0.0051 -0.0950
  979loPI   GL214986  15.874  15.943   6.181 -0.2505 -0.3314  0.1385
  979loPI   C1A14987  15.509  15.743   6.573  0.1641  0.0185  0.2304
  979loPI   C2A14988  15.617  15.827   7.078 -0.1669 -0.0770  0.2705
  979loPI   C3A14989  15.554  15.818   7.489 -0.0486 -0.3640  0.0712
  979loPI   C4A14990  15.675  15.868   7.965 -0.1185  0.4432  0.1927
  979loPI   C5A14991  15.922  16.032   8.311 -0.4093 -0.0558  0.1443
  979loPI   C6A14992  16.087  16.426   8.486 -0.1557  0.1097  0.3438
  979loPI   C1B14993  15.986  15.915   6.639 -0.1065  0.0237 -0.1221
  979loPI   C2B14994  16.102  15.856   7.079  0.1628  0.0538  0.0832
  979loPI   C3B14995  16.040  15.947   7.502  0.0218 -0.0043 -0.0097
  979loPI   C4B14996  16.174  15.954   7.881  0.1852 -0.4115 -0.0583
  980loPI    C114997  11.521   5.155   5.753 -0.1459  0.0926  0.1473
  980loPI    C214998  11.693   4.807   5.657 -0.1083  0.0300  0.4345
  980loPI    C314999  11.318   4.883   5.542  0.0510  0.1025 -0.0586
  980loPI   PO415000  11.600   5.194   6.036  0.2017  0.1909  0.1155
  980loPI   GL115001  11.453   5.294   6.355  0.0493 -0.0174  0.1118
  980loPI   GL215002  11.416   4.999   6.539 -0.2553 -0.1016 -0.1203
  980loPI   C1A15003  11.646   5.538   6.752  0.0788  0.0099  0.2297
  980loPI   C2A15004  11.562   5.632   7.141 -0.1838 -0.1917  0.0273
  980loPI   C3A15005  11.663   5.631   7.553 -0.0428 -0.3545 -0.0245
  980loPI   C4A15006  11.696   5.589   7.919 -0.3542  0.0575  0.1289
  980loPI   C5A15007  11.602   5.600   8.293  0.0767  0.0927 -0.0251
  980loPI   C6A15008  11.583   5.484   8.744  0.0872  0.1746  0.2752
  980loPI   C1B15009  11.484   5.083   7.023 -0.1190 -0.1611  0.2286
  980loPI   C2B15010  11.404   5.142   7.479  0.0862 -0.0019  0.1250
  980loPI   C3B15011  11.491   5.019   7.986 -0.0832  0.0503 -0.1978
  980loPI   C4B15012  11.293   5.227   8.410  0.0423  0.2182 -0.0887
  981loPI    C115013  11.052   7.591   6.029 -0.0646  0.2404  0.0317
  981loPI    C215014  11.086   7.349   5.713  0.0063  0.1755  0.0886
  981loPI    C315015  10.855   7.675   5.692 -0.0405  0.1364 -0.0086
  981loPI   PO415016  10.975   7.556   6.206 -0.1421 -0.0880 -0.0129
  981loPI   GL115017  10.893   7.743   6.606  0.0808 -0.2271  0.1762
  981loPI   GL215018  11.091   7.478   6.765 -0.1902  0.1896  0.1038
  981loPI   C1A15019  10.760   7.709   6.976 -0.1790 -0.2004  0.0096
  981loPI   C2A15020  10.767   7.666   7.472 -0.0540 -0.0017 -0.1124
  981loPI   C3A15021  10.861   7.761   7.894  0.0661  0.0194  0.1730
  981loPI   C4A15022  10.786   7.658   8.380  0.1010  0.1590 -0.4396
  981loPI   C5A15023  10.684   7.455   8.776  0.1565  0.2426 -0.0741
  981loPI   C6A15024  10.637   7.432   9.146  0.1924  0.0066  0.0910
  981loPI   C1B15025  11.107   7.403   7.176 -0.0392 -0.1841  0.0793
  981loPI   C2B15026  11.093   7.201   7.500 -0.3639 -0.0584  0.0646
  981loPI   C3B15027  11.227   7.332   7.855 -0.3721 -0.1071  0.2422
  981loPI   C4B15028  11.206   7.205   8.255 -0.1013 -0.3145 -0.0972
  982loPI    C115029   4.906   0.763   5.781  0.0324 -0.0418  0.0135
  982loPI    C215030   4.617   0.937   5.565 -0.0058  0.0834  0.1634
  982loPI    C315031   4.987   1.091   5.567  0.1211 -0.2011 -0.2006
  982loPI   PO415032   4.827   0.781   6.040  0.0940  0.2522  0.1458
  982loPI   GL115033   4.839   0.490   6.335  0.0694  0.3055 -0.1523
  982loPI   GL215034   4.879   0.728   6.587  0.2407 -0.2184  0.0535
  982loPI   C1A15035   4.718   0.284   6.724 -0.0524 -0.1407  0.1360
  982loPI   C2A15036   4.731   0.244   7.169  0.3188 -0.0163  0.0046
  982loPI   C3A15037   4.773   0.328   7.545  0.1499  0.0643 -0.0088
  982loPI   C4A15038   4.877   0.150   7.976  0.1779 -0.2198 -0.0971
  982loPI   C5A15039   4.776   0.225   8.475  0.2011  0.2112 -0.2269
  982loPI   C6A15040   4.981   0.450   8.822 -0.1491  0.0729 -0.4165
  982loPI   C1B15041   4.926   0.765   6.979 -0.1359 -0.0454 -0.3049
  982loPI   C2B15042   4.962   0.780   7.398 -0.2104  0.0363  0.0023
  982loPI   C3B15043   4.926   0.714   7.786 -0.3885 -0.1364  0.0744
  982loPI   C4B15044   5.095   0.741   8.297  0.2846  0.0069 -0.1597
  983loPI    C115045   7.068   3.701   5.721 -0.0382 -0.1935  0.0284
  983loPI    C215046   7.369   3.730   5.459 -0.1138  0.2425 -0.0175
  983loPI    C315047   7.001   3.635   5.332 -0.0620  0.0213 -0.0053
  983loPI   PO415048   7.139   3.815   5.943 -0.1428 -0.6467 -0.0683
  983loPI   GL115049   6.917   3.837   6.298  0.0865 -0.1645  0.1742
  983loPI   GL215050   7.275   3.742   6.432  0.0522 -0.0663  0.1363
  983loPI   C1A15051   6.839   4.010   6.688  0.1681  0.1248  0.0399
  983loPI   C2A15052   6.781   3.957   7.096  0.0162  0.1606 -0.0520
  983loPI   C3A15053   6.839   3.983   7.503 -0.0170  0.0512 -0.1793
  983loPI   C4A15054   6.760   3.895   7.907  0.0328  0.0288  0.0762
  983loPI   C5A15055   6.788   4.047   8.353 -0.2505 -0.0999 -0.0704
  983loPI   C6A15056   6.935   4.119   8.748 -0.0086 -0.0694 -0.0778
  983loPI   C1B15057   7.361   3.995   6.694 -0.1202  0.1735  0.0992
  983loPI   C2B15058   7.389   4.017   7.130  0.4009  0.0322  0.0810
  983loPI   C3B15059   7.359   4.104   7.679  0.1735 -0.0979 -0.0261
  983loPI   C4B15060   7.259   4.096   8.153 -0.1817  0.4424  0.0664
  984loPI    C115061  15.984   7.697   5.552 -0.0498  0.1455 -0.2844
  984loPI    C215062  15.873   7.356   5.373  0.0661 -0.0125 -0.0610
  984loPI    C315063  15.856   7.703   5.173 -0.1859 -0.1283 -0.2454
  984loPI   PO415064  16.196   7.591   5.740  0.0435 -0.0483  0.1023
  984loPI   GL115065  16.188   7.412   6.165  0.0735  0.3104  0.0252
  984loPI   GL215066  15.916   7.505   6.492  0.0203 -0.1153 -0.1013
  984loPI   C1A15067  16.288   7.196   6.534 -0.1588 -0.0532 -0.1026
  984loPI   C2A15068  16.371   7.143   6.899 -0.1961 -0.0003 -0.0086
  984loPI   C3A15069  16.373   7.177   7.308 -0.1338 -0.2643  0.3360
  984loPI   C4A15070  16.403   7.208   7.729  0.2900  0.0767 -0.0962
  984loPI   C5A15071  16.455   7.291   8.113 -0.0438  0.0277 -0.1870
  984loPI   C6A15072  16.199   7.085   8.390 -0.1066 -0.0609 -0.0131
  984loPI   C1B15073  16.076   7.536   6.922  0.1527 -0.4708  0.0699
  984loPI   C2B15074  16.013   7.520   7.350  0.1631  0.1065  0.1618
  984loPI   C3B15075  16.035   7.581   7.804 -0.2506  0.1668  0.1129
  984loPI   C4B15076  16.041   7.588   8.220  0.0256  0.0711 -0.1000
  985loPI    C115077   8.414   3.764   5.921  0.3288  0.1868 -0.0444
  985loPI    C215078   8.660   3.500   5.746 -0.0298 -0.1882  0.0004
  985loPI    C315079   8.314   3.597   5.571  0.0624  0.2005  0.0236
  985loPI   PO415080   8.511   3.711   6.196 -0.2704  0.1802  0.1158
  985loPI   GL115081   8.535   3.382   6.501  0.0837 -0.0400 -0.2022
  985loPI   GL215082   8.360   3.187   6.307  0.1470 -0.0441 -0.2148
  985loPI   C1A15083   8.700   3.295   6.790 -0.1444  0.3637 -0.3066
  985loPI   C2A15084   8.639   3.447   7.203  0.1373  0.2305 -0.2377
  985loPI   C3A15085   8.584   3.496   7.668  0.1701 -0.0955  0.3814
  985loPI   C4A15086   8.686   3.579   8.049  0.1457  0.1577 -0.3728
  985loPI   C5A15087   8.502   3.451   8.441  0.1734  0.3205  0.1281
  985loPI   C6A15088   8.274   3.671   8.643  0.3650  0.0604  0.0780
  985loPI   C1B15089   8.117   3.265   6.769  0.2431 -0.0964 -0.3645
  985loPI   C2B15090   8.085   3.257   7.219 -0.2956  0.0018  0.0403
  985loPI   C3B15091   8.091   3.340   7.722 -0.0202 -0.1962 -0.4209
  985loPI   C4B15092   8.124   3.433   8.064 -0.3519 -0.0692 -0.3644
  986loPI    C115093  12.606   0.095   5.763  0.2265 -0.0135  0.0686
  986loPI    C215094  12.867  -0.036   5.491  0.0488 -0.2781  0.0219
  986loPI    C315095  12.561   0.195   5.379  0.2965  0.0890  0.0868
  986loPI   PO415096  12.725   0.186   5.972 -0.1250 -0.0138 -0.2625
  986loPI   GL115097  12.805   0.495   6.255 -0.0500  0.1307  0.3261
  986loPI   GL215098  12.716   0.785   6.417  0.0060 -0.0420 -0.2059
  986loPI   C1A15099  12.986   0.285   6.665 -0.3080  0.0967  0.2289
  986loPI   C2A15100  13.026   0.299   7.097  0.0531  0.1550 -0.0098
  986loPI   C3A15101  13.019   0.246   7.502  0.1427 -0.1058  0.0619
  986loPI   C4A15102  12.829   0.246   7.937 -0.1433  0.1024  0.0943
  986loPI   C5A15103  12.864   0.118   8.372  0.2404 -0.2299  0.0288
  986loPI   C6A15104  12.981  -0.341   8.521  0.2041 -0.1996  0.0822
  986loPI   C1B15105  12.668   0.592   6.797  0.2213  0.0689 -0.1047
  986loPI   C2B15106  12.620   0.682   7.188 -0.0542 -0.0064  0.2496
  986loPI   C3B15107  12.501   0.708   7.654 -0.2877 -0.1259  0.0449
  986loPI   C4B15108  12.351   0.713   8.057  0.3552 -0.1037  0.5351
  987loPI    C115109   8.791  17.571   5.532  0.0968 -0.1072  0.0086
  987loPI    C215110   8.894  17.817   5.234  0.0619 -0.0080  0.0776
  987loPI    C315111   8.864  17.423   5.168  0.1297  0.0045 -0.0306
  987loPI   PO415112   8.964  17.745   5.738  0.1759  0.1920 -0.3931
  987loPI   GL115113   9.114  17.711   6.185 -0.1833 -0.1547  0.1336
  987loPI   GL215114   9.324  17.491   6.433 -0.0603 -0.1183  0.2704
  987loPI   C1A15115   9.218  17.891   6.670  0.2749  0.1071  0.1049
  987loPI   C2A15116   9.139  17.896   7.155 -0.1339 -0.1217  0.0644
  987loPI   C3A15117   9.061  17.950   7.537 -0.0324  0.1806 -0.1254
  987loPI   C4A15118   8.965  17.885   7.896 -0.3067 -0.1080  0.0231
  987loPI   C5A15119   9.012  17.982   8.383  0.1041  0.4439 -0.2091
  987loPI   C6A15120   9.152  17.941   8.764 -0.0227  0.0202 -0.2899
  987loPI   C1B15121   9.147  17.463   6.934  0.0684 -0.4269 -0.0615
  987loPI   C2B15122   8.951  17.475   7.287 -0.3060  0.0896 -0.1861
  987loPI   C3B15123   8.852  17.434   7.694  0.3908  0.0075  0.2119
  987loPI   C4B15124   8.861  17.377   8.167  0.1308 -0.2087  0.0122
  988loPI    C115125  16.268   3.449   5.445  0.0063 -0.0456 -0.0543
  988loPI    C215126  16.471   3.550   5.116  0.1121 -0.2906 -0.0662
  988loPI    C315127  16.263   3.209   5.126 -0.0427 -0.1941  0.0572
  988loPI   PO415128  16.499   3.393   5.650 -0.2433 -0.0769  0.1634
  988loPI   GL115129  16.436   3.180   6.004 -0.2406 -0.1218 -0.0532
  988loPI   GL215130  16.651   3.173   6.181 -0.1592 -0.1320 -0.1170
  988loPI   C1A15131  16.248   3.440   6.318  0.1839  0.3020 -0.1506
  988loPI   C2A15132  16.181   3.413   6.758  0.1188  0.1808  0.1297
  988loPI   C3A15133  16.238   3.351   7.225  0.0651  0.2662  0.0348
  988loPI   C4A15134  16.210   3.414   7.622  0.0994  0.3196 -0.0749
  988loPI   C5A15135  16.205   3.455   8.130  0.2409 -0.0532  0.2243
  988loPI   C6A15136  16.101   3.670   8.563  0.0833  0.0344  0.1891
  988loPI   C1B15137  16.510   3.019   6.520 -0.1601 -0.2787 -0.3901
  988loPI   C2B15138  16.535   3.007   6.956 -0.3058  0.1172  0.0815
  988loPI   C3B15139  16.553   3.017   7.410  0.0531 -0.0408 -0.0012
  988loPI   C4B15140  16.476   3.056   7.859  0.3199  0.1290  0.1638
  989loPI    C115141   8.961  15.196   5.814  0.1246  0.0081  0.1720
  989loPI    C215142   9.265  15.019   5.623  0.0212 -0.0058  0.0187
  989loPI    C315143   9.055  15.308   5.441 -0.0667 -0.0063  0.1185
  989loPI   PO415144   9.003  15.055   6.114  0.1689  0.1163 -0.2599
  989loPI   GL115145   8.608  14.941   6.356 -0.0687  0.0190  0.1993
  989loPI   GL215146   8.312  15.023   6.361  0.1362  0.1837  0.0076
  989loPI   C1A15147   8.660  15.133   6.710 -0.0216 -0.0956  0.1994
  989loPI   C2A15148   8.802  15.060   7.170 -0.2980  0.2734  0.0162
  989loPI   C3A15149   8.646  14.993   7.507 -0.0413  0.2980 -0.2050
  989loPI   C4A15150   8.689  15.084   7.933  0.1213  0.0623 -0.2652
  989loPI   C5A15151   8.673  15.224   8.276  0.1160 -0.6483 -0.1520
  989loPI   C6A15152   9.048  15.314   8.540 -0.2848  0.0422  0.3346
  989loPI   C1B15153   8.243  14.944   6.833  0.0333  0.0415 -0.0675
  989loPI   C2B15154   8.240  14.940   7.228 -0.2709  0.0680  0.3007
  989loPI   C3B15155   8.132  15.002   7.689 -0.0303 -0.1553 -0.2862
  989loPI   C4B15156   8.222  14.966   8.115 -0.0036 -0.0050  0.2369
  990loPI    C115157  13.335   2.605   5.725 -0.2801 -0.2583  0.1175
  990loPI    C215158  13.327   2.756   5.355 -0.1094 -0.0186  0.2090
  990loPI    C315159  13.527   2.418   5.428  0.2477  0.1787  0.1672
  990loPI   PO415160  13.348   2.921   5.826  0.0096  0.2583  0.0172
  990loPI   GL115161  13.381   2.999   6.321  0.1437  0.2056  0.0504
  990loPI   GL215162  13.366   3.332   6.524 -0.3816 -0.1336  0.2863
  990loPI   C1A15163  13.295   2.887   6.692  0.1239  0.2351  0.0870
  990loPI   C2A15164  13.269   2.787   7.114 -0.1946  0.1216 -0.1395
  990loPI   C3A15165  13.128   2.712   7.592 -0.0454 -0.0507  0.4842
  990loPI   C4A15166  13.072   2.634   8.024  0.1607  0.3557  0.1053
  990loPI   C5A15167  13.070   2.646   8.443  0.2328 -0.1037  0.0839
  990loPI   C6A15168  13.243   2.394   8.741  0.1896  0.0071 -0.1493
  990loPI   C1B15169  13.427   3.278   6.988  0.1263  0.1045  0.0561
  990loPI   C2B15170  13.371   3.218   7.425 -0.2717 -0.1881  0.0200
  990loPI   C3B15171  13.290   3.180   7.828 -0.1310  0.1735  0.1776
  990loPI   C4B15172  13.274   3.025   8.203  0.2916  0.1790  0.0567
  991loPI    C115173  11.542  10.430   5.482 -0.1021 -0.2921  0.1551
  991loPI    C215174  11.880  10.412   5.269 -0.2330 -0.0260 -0.0811
  991loPI    C315175  11.554  10.218   5.143 -0.2660  0.0018 -0.0383
  991loPI   PO415176  11.635  10.576   5.779  0.1839  0.2341  0.1160
  991loPI   GL115177  11.889  10.392   6.159 -0.0694 -0.1270 -0.0642
  991loPI   GL215178  11.541  10.470   6.266 -0.3571 -0.2382 -0.1258
  991loPI   C1A15179  12.213  10.457   6.428 -0.1673 -0.1320 -0.2960
  991loPI   C2A15180  12.152  10.618   6.812 -0.1183 -0.4086  0.0272
  991loPI   C3A15181  12.071  10.808   7.310 -0.4512  0.3330  0.3616
  991loPI   C4A15182  12.174  10.831   7.750 -0.0464  0.0179  0.0862
  991loPI   C5A15183  12.098  11.019   8.210 -0.2885 -0.1270  0.0045
  991loPI   C6A15184  12.533  11.278   8.362 -0.3905 -0.1267 -0.0482
  991loPI   C1B15185  11.599  10.616   6.658 -0.1397  0.1127  0.1787
  991loPI   C2B15186  11.672  10.745   7.011 -0.0361  0.2750  0.0686
  991loPI   C3B15187  11.645  10.754   7.532 -0.1448 -0.0827 -0.1283
  991loPI   C4B15188  11.743  10.777   8.001  0.0292  0.1260  0.0484
  992loPI    C115189  14.388  13.863   5.675  0.0570  0.1439  0.0145
  992loPI    C215190  13.994  13.795   5.666  0.0654  0.1099 -0.1422
  992loPI    C315191  14.172  13.978   5.358  0.1653  0.1658 -0.0522
  992loPI   PO415192  14.430  13.941   5.984 -0.1436 -0.0897  0.1722
  992loPI   GL115193  14.445  14.080   6.409 -0.1903  0.1519  0.3007
  992loPI   GL215194  14.362  13.697   6.396  0.0137 -0.0082 -0.3715
  992loPI   C1A15195  14.606  14.100   6.806 -0.2023  0.0994 -0.2129
  992loPI   C2A15196  14.711  14.171   7.188 -0.2566  0.0785 -0.1170
  992loPI   C3A15197  14.680  14.174   7.565 -0.1001 -0.1038 -0.1279
  992loPI   C4A15198  14.772  14.251   7.943  0.2110 -0.0427 -0.0343
  992loPI   C5A15199  15.071  14.184   8.262  0.0436  0.1991 -0.2072
  992loPI   C6A15200  15.274  14.336   8.662  0.3589 -0.1151 -0.0083
  992loPI   C1B15201  14.470  13.626   6.791  0.2261  0.1893  0.2621
  992loPI   C2B15202  14.479  13.667   7.276 -0.3498  0.0315  0.3770
  992loPI   C3B15203  14.544  13.744   7.770 -0.1212 -0.2382 -0.3665
  992loPI   C4B15204  14.489  13.772   8.241  0.2033 -0.2745 -0.0373
  993loPI    C115205  11.098  14.985   5.721  0.0593  0.1505  0.0993
  993loPI    C215206  11.237  15.287   5.499  0.3358 -0.3531 -0.4391
  993loPI    C315207  11.486  15.081   5.735  0.0544  0.1435  0.3295
  993loPI   PO415208  10.949  15.033   5.947 -0.2682  0.0196 -0.1289
  993loPI   GL115209  10.756  14.769   6.224  0.3768 -0.0260 -0.1950
  993loPI   GL215210  11.049  14.644   6.459  0.2853 -0.0935  0.2023
  993loPI   C1A15211  10.626  14.943   6.590 -0.3417  0.1453 -0.0527
  993loPI   C2A15212  10.656  15.050   6.999 -0.0718 -0.0530  0.0961
  993loPI   C3A15213  10.573  15.131   7.370  0.0850  0.2223  0.0175
  993loPI   C4A15214  10.615  15.114   7.819 -0.0127  0.0745  0.2312
  993loPI   C5A15215  10.394  15.269   8.218 -0.1581  0.0148  0.1399
  993loPI   C6A15216  10.066  15.567   8.433  0.2348  0.1696 -0.0588
  993loPI   C1B15217  10.986  14.607   6.922  0.0360  0.0072  0.1308
  993loPI   C2B15218  11.125  14.586   7.263 -0.0537  0.1000  0.1094
  993loPI   C3B15219  11.080  14.597   7.596  0.1091 -0.0274 -0.0611
  993loPI   C4B15220  11.008  14.725   7.941  0.0566  0.1950 -0.0335
  994loPI    C115221   7.605   9.589   5.766 -0.1502 -0.1925 -0.0883
  994loPI    C215222   7.998   9.553   5.699 -0.1137  0.1200 -0.0531
  994loPI    C315223   7.745   9.594   5.391 -0.0965  0.1247 -0.0666
  994loPI   PO415224   7.564   9.364   5.955 -0.0821  0.0088  0.2742
  994loPI   GL115225   7.699   9.558   6.385  0.1947 -0.0164  0.1537
  994loPI   GL215226   7.975   9.640   6.178 -0.0386 -0.1434  0.0443
  994loPI   C1A15227   7.862   9.467   6.728  0.3245  0.1166 -0.2820
  994loPI   C2A15228   7.877   9.381   7.150  0.2918  0.1794 -0.1439
  994loPI   C3A15229   7.928   9.435   7.544 -0.2272  0.2253 -0.0947
  994loPI   C4A15230   8.022   9.431   7.925 -0.1572 -0.3557 -0.2338
  994loPI   C5A15231   8.147   9.522   8.256  0.0189  0.0023  0.0471
  994loPI   C6A15232   8.218   9.660   8.720 -0.1003  0.0505 -0.2498
  994loPI   C1B15233   8.275   9.621   6.599 -0.1581  0.1449  0.2171
  994loPI   C2B15234   8.417   9.535   7.007 -0.1299 -0.0435  0.0018
  994loPI   C3B15235   8.489   9.499   7.488 -0.0223 -0.2022  0.1081
  994loPI   C4B15236   8.563   9.461   7.954  0.0940 -0.1978  0.1989
  995loPI    C115237   8.236   4.781   5.680 -0.1005  0.0974  0.1043
  995loPI    C215238   7.990   4.542   5.475  0.1143 -0.0503  0.0148
  995loPI    C315239   8.061   4.914   5.346 -0.4114  0.1548  0.2862
  995loPI   PO415240   8.170   4.789   5.896  0.1579  0.1439 -0.1419
  995loPI   GL115241   8.382   4.936   6.240 -0.4595  0.0093  0.0764
  995loPI   GL215242   8.659   4.770   6.322 -0.0873  0.0255 -0.1121
  995loPI   C1A15243   8.711   5.173   6.623  0.0826 -0.0368  0.1937
  995loPI   C2A15244   8.689   5.294   7.017 -0.1735  0.2091  0.1705
  995loPI   C3A15245   8.754   5.293   7.438  0.2326  0.1045 -0.1708
  995loPI   C4A15246   8.735   5.370   7.922 -0.1880  0.0785 -0.0131
  995loPI   C5A15247   8.810   5.113   8.363 -0.0750 -0.1384 -0.0753
  995loPI   C6A15248   8.578   4.734   8.375 -0.2534  0.0569  0.1628
  995loPI   C1B15249   8.461   4.740   6.742 -0.0746 -0.0840  0.2491
  995loPI   C2B15250   8.597   4.826   7.050  0.0865  0.2452 -0.1561
  995loPI   C3B15251   8.504   4.793   7.515 -0.2825  0.3868  0.1854
  995loPI   C4B15252   8.583   4.923   7.901 -0.0027  0.1648  0.1041
  996loPI    C115253  15.306   1.204   5.652 -0.0864  0.1402 -0.2731
  996loPI    C215254  15.086   0.939   5.448  0.2318 -0.1625 -0.2328
  996loPI    C315255  15.043   0.972   5.845  0.3196 -0.2855 -0.2124
  996loPI   PO415256  15.538   1.091   5.606  0.0763 -0.0686 -0.1034
  996loPI   GL115257  15.868   1.070   5.899  0.1596 -0.1760 -0.2397
  996loPI   GL215258  15.673   1.415   5.924  0.3806 -0.0049 -0.2512
  996loPI   C1A15259  15.942   1.059   6.301 -0.0327 -0.0028 -0.2031
  996loPI   C2A15260  15.935   1.023   6.643  0.1628  0.1535 -0.0953
  996loPI   C3A15261  15.958   1.031   7.089  0.1426 -0.0128 -0.1438
  996loPI   C4A15262  15.905   1.145   7.480 -0.0118  0.2387 -0.1635
  996loPI   C5A15263  15.897   1.139   7.937 -0.2596  0.3185  0.0147
  996loPI   C6A15264  15.996   1.148   8.403  0.0839  0.0328  0.1813
  996loPI   C1B15265  15.673   1.444   6.391 -0.1474 -0.1110  0.3259
  996loPI   C2B15266  15.634   1.343   6.804  0.1131 -0.2290  0.1612
  996loPI   C3B15267  15.574   1.416   7.269  0.1448  0.1728 -0.2158
  996loPI   C4B15268  15.541   1.393   7.762 -0.1685  0.0773  0.0186
  997loPI    C115269  16.506   4.790   5.605  0.2929 -0.1799  0.2614
  997loPI    C215270  16.696   5.136   5.540 -0.0786 -0.0670 -0.3047
  997loPI    C315271  16.855   4.793   5.410  0.1623 -0.0846  0.0236
  997loPI   PO415272  16.488   4.718   5.835 -0.0412 -0.1442  0.3674
  997loPI   GL115273  16.381   4.742   6.184  0.2957  0.0256  0.2224
  997loPI   GL215274  16.035   4.761   6.328  0.1655  0.1289  0.1053
  997loPI   C1A15275  16.378   4.443   6.456 -0.1000  0.0439 -0.0057
  997loPI   C2A15276  16.460   4.393   6.771 -0.2529 -0.1965 -0.0512
  997loPI   C3A15277  16.542   4.360   7.145  0.0673 -0.1355 -0.1279
  997loPI   C4A15278  16.513   4.345   7.541  0.3490  0.3643  0.1256
  997loPI   C5A15279  16.392   4.357   7.922  0.2557 -0.0508 -0.0819
  997loPI   C6A15280  16.277   4.188   8.262  0.1239 -0.0727 -0.2646
  997loPI   C1B15281  16.052   4.742   6.725  0.6562  0.0598 -0.1189
  997loPI   C2B15282  16.176   4.713   7.173 -0.2169 -0.0346 -0.0334
  997loPI   C3B15283  16.102   4.715   7.606 -0.0083  0.0588 -0.2106
  997loPI   C4B15284  16.056   4.783   8.029 -0.1525 -0.4665  0.0180
  998loPI    C115285   0.967   6.092   5.832  0.1047  0.1642  0.0784
  998loPI    C215286   0.662   6.253   5.629  0.1254  0.1188  0.0107
  998loPI    C315287   0.632   5.881   5.772  0.0650  0.1933  0.1955
  998loPI   PO415288   1.074   6.224   5.992  0.2616  0.1327 -0.1285
  998loPI   GL115289   1.117   6.326   6.402 -0.0574  0.0137 -0.0038
  998loPI   GL215290   0.879   6.451   6.599 -0.1935 -0.1980  0.0836
  998loPI   C1A15291   1.460   6.326   6.768 -0.1217 -0.2087 -0.0619
  998loPI   C2A15292   1.393   6.299   7.237 -0.3111 -0.0495 -0.1932
  998loPI   C3A15293   1.485   6.251   7.609  0.2138  0.3116  0.1005
  998loPI   C4A15294   1.367   6.272   8.017 -0.0706 -0.3273  0.0418
  998loPI   C5A15295   1.283   6.359   8.476 -0.1011 -0.0475  0.1199
  998loPI   C6A15296   0.974   6.173   8.694 -0.1289 -0.1917 -0.1315
  998loPI   C1B15297   1.005   6.323   6.930  0.2152  0.0140 -0.2171
  998loPI   C2B15298   0.948   6.169   7.373 -0.3461 -0.0327  0.1876
  998loPI   C3B15299   0.911   6.193   7.771  0.2316  0.0319 -0.0772
  998loPI   C4B15300   0.858   6.237   8.229 -0.3257 -0.1415 -0.2206
  999loPI    C115301  14.255  16.725   5.397  0.0468  0.0094  0.2423
  999loPI    C215302  13.942  16.872   5.196  0.2789  0.2690  0.0619
  999loPI    C315303  14.117  16.534   5.074  0.2327  0.2648  0.0064
  999loPI   PO415304  14.153  16.679   5.732 -0.1903 -0.1689 -0.0318
  999loPI   GL115305  14.188  16.528   6.112  0.0294  0.0959  0.0482
  999loPI   GL215306  14.505  16.459   6.189  0.1144 -0.0632 -0.0913
  999loPI   C1A15307  13.991  16.827   6.494  0.0927  0.1289 -0.1992
  999loPI   C2A15308  14.055  16.731   6.810  0.1981  0.0954  0.0669
  999loPI   C3A15309  13.909  16.733   7.268  0.0230  0.2304 -0.1419
  999loPI   C4A15310  14.017  16.813   7.742 -0.0045 -0.1333 -0.3803
  999loPI   C5A15311  14.161  16.823   8.184  0.0392 -0.3688 -0.0784
  999loPI   C6A15312  13.879  16.902   8.584  0.0249  0.2916  0.2101
  999loPI   C1B15313  14.378  16.437   6.614 -0.3353 -0.0183  0.2656
  999loPI   C2B15314  14.348  16.454   7.121 -0.2429 -0.0857  0.0737
  999loPI   C3B15315  14.336  16.464   7.516  0.2516  0.1059 -0.4537
  999loPI   C4B15316  14.357  16.412   8.017  0.1573  0.1563 -0.3032
 1000loPI    C115317  15.796  12.062   5.777  0.0683 -0.0506 -0.0688
 1000loPI    C215318  16.023  12.133   5.455 -0.0481 -0.1591 -0.1760
 1000loPI    C315319  15.653  11.989   5.410 -0.0979 -0.0891  0.0032
 1000loPI   PO415320  15.932  12.069   5.991 -0.2830  0.1395  0.1289
 1000loPI   GL115321  16.123  12.128   6.342  0.3837  0.0462 -0.1719
 1000loPI   GL215322  16.432  12.176   6.319 -0.2573 -0.1307  0.1331
 1000loPI   C1A15323  15.903  12.144   6.703 -0.0011 -0.4382 -0.1372
 1000loPI   C2A15324  16.031  12.179   7.121 -0.1807 -0.3029  0.0999
 1000loPI   C3A15325  15.931  12.245   7.523  0.0895  0.0706  0.1185
 1000loPI   C4A15326  15.862  12.197   7.928 -0.0937 -0.0090 -0.0769
 1000loPI   C5A15327  15.833  12.002   8.295  0.3242 -0.0680  0.0868
 1000loPI   C6A15328  15.654  12.009   8.724 -0.2343  0.1212  0.1582
 1000loPI   C1B15329  16.383  12.079   6.767  0.0978  0.0414  0.2819
 1000loPI   C2B15330  16.519  12.141   7.174  0.1682  0.1545  0.0349
 1000loPI   C3B15331  16.400  12.323   7.625  0.0795  0.2826 -0.3145
 1000loPI   C4B15332  16.338  12.383   8.067  0.0598 -0.3076 -0.0199
 1001loPI    C115333   8.268  16.098   5.549 -0.2241  0.1917 -0.0461
 1001loPI    C215334   8.562  16.015   5.291 -0.2880  0.0178 -0.0646
 1001loPI    C315335   8.199  16.113   5.155 -0.2047  0.3696 -0.0435
 1001loPI   PO415336   8.245  15.904   5.851 -0.0092 -0.0735  0.0664
 1001loPI   GL115337   8.309  15.955   6.264  0.1589 -0.2078  0.1699
 1001loPI   GL215338   8.037  15.859   6.450  0.1271 -0.3334  0.3260
 1001loPI   C1A15339   8.555  15.948   6.642  0.1150  0.0640  0.4252
 1001loPI   C2A15340   8.562  15.989   7.017 -0.0387  0.0401 -0.1217
 1001loPI   C3A15341   8.496  15.947   7.455  0.1961  0.1327  0.0882
 1001loPI   C4A15342   8.395  16.042   7.899 -0.0188  0.1183  0.0803
 1001loPI   C5A15343   8.370  16.005   8.325  0.1685  0.0524 -0.2014
 1001loPI   C6A15344   8.409  15.936   8.754  0.0978  0.2301  0.0438
 1001loPI   C1B15345   8.103  15.839   6.847 -0.2209 -0.2035  0.0081
 1001loPI   C2B15346   8.044  15.745   7.268  0.0731  0.2284  0.1791
 1001loPI   C3B15347   8.013  15.797   7.699  0.0650  0.0737 -0.1630
 1001loPI   C4B15348   7.925  15.907   8.082 -0.1092 -0.1870  0.1977
 1002loPI    C115349   0.487  11.565   5.961 -0.0585 -0.1811 -0.0342
 1002loPI    C215350   0.318  11.448   5.619  0.0398 -0.3500 -0.0259
 1002loPI    C315351   0.711  11.398   5.675  0.1265  0.1820 -0.1081
 1002loPI   PO415352   0.499  11.795   6.030 -0.1553  0.0564 -0.0056
 1002loPI   GL115353   0.524  12.020   6.370 -0.3231 -0.2119 -0.2648
 1002loPI   GL215354   0.367  11.819   6.490 -0.0276 -0.0663 -0.0230
 1002loPI   C1A15355   0.475  12.283   6.777 -0.1567 -0.1732 -0.0788
 1002loPI   C2A15356   0.514  12.187   7.187 -0.1483 -0.0009 -0.2983
 1002loPI   C3A15357   0.721  12.234   7.513 -0.0248 -0.2407  0.0702
 1002loPI   C4A15358   0.559  12.318   7.876 -0.2350 -0.0288  0.0483
 1002loPI   C5A15359   0.322  12.196   8.179 -0.3556  0.0364 -0.3623
 1002loPI   C6A15360   0.023  12.388   8.556 -0.5319  0.0500  0.0852
 1002loPI   C1B15361   0.284  11.836   6.959 -0.1365  0.3438 -0.2570
 1002loPI   C2B15362   0.453  11.761   7.442 -0.1587 -0.2530  0.1809
 1002loPI   C3B15363   0.479  11.750   7.837  0.3308 -0.1565 -0.0270
 1002loPI   C4B15364   0.329  11.732   8.281  0.2496  0.4642 -0.0419
 1003loPI    C115365   0.250  16.779   5.533  0.1428 -0.0327  0.0426
 1003loPI    C215366   0.191  16.414   5.380  0.0287  0.0935 -0.2217
 1003loPI    C315367  -0.023  16.724   5.245  0.0687  0.2455  0.0567
 1003loPI   PO415368   0.272  16.772   5.816 -0.0613  0.0998 -0.1743
 1003loPI   GL115369   0.387  16.954   6.182  0.0386  0.0508 -0.0500
 1003loPI   GL215370   0.539  17.223   6.261  0.0358 -0.1109  0.1136
 1003loPI   C1A15371   0.297  16.764   6.500  0.0304  0.0549  0.0576
 1003loPI   C2A15372   0.072  16.598   6.888 -0.0950 -0.1138 -0.1290
 1003loPI   C3A15373   0.165  16.741   7.273 -0.1866 -0.2512  0.1816
 1003loPI   C4A15374   0.153  16.812   7.732 -0.3354 -0.4435  0.0474
 1003loPI   C5A15375   0.119  16.844   8.163  0.0227  0.1617  0.1437
 1003loPI   C6A15376   0.028  16.612   8.575  0.2179 -0.3807 -0.0017
 1003loPI   C1B15377   0.444  17.274   6.728  0.0825 -0.1396 -0.0135
 1003loPI   C2B15378   0.336  17.139   7.138  0.1745 -0.0866 -0.1931
 1003loPI   C3B15379   0.322  17.343   7.577  0.0764  0.1009 -0.1356
 1003loPI   C4B15380   0.289  17.356   7.955  0.1057  0.3641  0.0757
 1004loPI    C115381   3.459  11.268   6.157  0.1500  0.2360  0.0062
 1004loPI    C215382   3.152  11.524   6.140  0.0091  0.0593 -0.1634
 1004loPI    C315383   3.452  11.554   5.878  0.1677  0.2676  0.0381
 1004loPI   PO415384   3.367  11.037   6.128  0.0161  0.3025  0.0345
 1004loPI   GL115385   3.198  10.872   6.479 -0.0035 -0.0709 -0.0133
 1004loPI   GL215386   3.370  10.635   6.674 -0.2345 -0.0404  0.0750
 1004loPI   C1A15387   2.979  10.832   6.833  0.1718  0.2071 -0.1657
 1004loPI   C2A15388   3.110  10.927   7.275 -0.0590 -0.0725 -0.0407
 1004loPI   C3A15389   3.152  10.990   7.714 -0.1643 -0.0124  0.3044
 1004loPI   C4A15390   3.071  10.936   8.245  0.1339  0.0216  0.3078
 1004loPI   C5A15391   2.822  10.784   8.613 -0.0682  0.0537 -0.4551
 1004loPI   C6A15392   2.501  10.768   8.848 -0.0408  0.0602 -0.1047
 1004loPI   C1B15393   3.439  10.655   7.070  0.0566  0.1823 -0.0448
 1004loPI   C2B15394   3.493  10.627   7.480 -0.0511  0.0526  0.2682
 1004loPI   C3B15395   3.530  10.631   7.966 -0.0429  0.0546 -0.0151
 1004loPI   C4B15396   3.541  10.620   8.326  0.0441 -0.1725 -0.2888
 1005loPI    C115397   4.899   8.290   5.934  0.0096  0.0547 -0.1799
 1005loPI    C215398   4.567   8.102   5.815 -0.1179  0.1092  0.0822
 1005loPI    C315399   4.692   8.428   5.621 -0.3690  0.2460  0.1455
 1005loPI   PO415400   4.860   8.303   6.185 -0.0786  0.2791  0.2450
 1005loPI   GL115401   5.079   8.398   6.537 -0.0758  0.0609  0.1199
 1005loPI   GL215402   5.348   8.558   6.417 -0.0659  0.1580 -0.0631
 1005loPI   C1A15403   5.342   8.249   6.904 -0.2767 -0.2374 -0.2204
 1005loPI   C2A15404   5.292   8.090   7.332 -0.2240  0.2210 -0.2735
 1005loPI   C3A15405   5.359   8.171   7.734 -0.1427  0.0185 -0.2477
 1005loPI   C4A15406   5.231   8.249   8.144  0.1288 -0.3408 -0.0449
 1005loPI   C5A15407   5.406   8.498   8.509 -0.0285 -0.2181 -0.1383
 1005loPI   C6A15408   5.348   8.633   8.963  0.2372  0.2246 -0.1359
 1005loPI   C1B15409   5.340   8.743   6.798 -0.5004  0.0687  0.0138
 1005loPI   C2B15410   5.490   8.787   7.179 -0.1072  0.1205  0.3210
 1005loPI   C3B15411   5.470   8.665   7.706  0.1736  0.1037 -0.0047
 1005loPI   C4B15412   5.351   8.731   8.084  0.1799 -0.1928 -0.2108
 1006loPI    C115413  11.214  14.204   5.706 -0.3096  0.0629 -0.1195
 1006loPI    C215414  11.068  13.854   5.580 -0.2121 -0.0097 -0.0330
 1006loPI    C315415  11.270  14.088   5.328 -0.0442 -0.1405 -0.0215
 1006loPI   PO415416  11.238  14.115   5.991 -0.0815 -0.3934 -0.0234
 1006loPI   GL115417  11.331  14.246   6.446 -0.1295  0.0074  0.0760
 1006loPI   GL215418  11.557  14.340   6.344 -0.0589  0.0349 -0.0474
 1006loPI   C1A15419  11.411  14.296   6.855  0.0246  0.2342 -0.2176
 1006loPI   C2A15420  11.483  14.219   7.345  0.2607  0.1899  0.3449
 1006loPI   C3A15421  11.405  14.207   7.730 -0.2475 -0.0821  0.1594
 1006loPI   C4A15422  11.340  14.297   8.173 -0.0938  0.0664 -0.2608
 1006loPI   C5A15423  11.621  14.404   8.413 -0.1792 -0.1069  0.2703
 1006loPI   C6A15424  11.624  14.671   8.724 -0.0005 -0.0647 -0.1487
 1006loPI   C1B15425  11.921  14.437   6.610 -0.1059  0.0158 -0.0787
 1006loPI   C2B15426  11.922  14.365   7.023  0.3223 -0.2016 -0.2476
 1006loPI   C3B15427  11.936  14.452   7.491 -0.0401  0.2682  0.1918
 1006loPI   C4B15428  11.789  14.385   7.930 -0.1919  0.2458 -0.0317
 1007loPI    C115429  16.442   8.389   6.008 -0.1884 -0.2698  0.1809
 1007loPI    C215430  16.266   8.122   5.768 -0.1057 -0.0398 -0.1420
 1007loPI    C315431  16.469   8.429   5.611  0.3003 -0.1118  0.2240
 1007loPI   PO415432  16.336   8.369   6.267  0.4349  0.1895 -0.1147
 1007loPI   GL115433  16.416   8.051   6.565  0.0769  0.2925 -0.1500
 1007loPI   GL215434  16.422   7.685   6.570  0.1520  0.0231  0.0652
 1007loPI   C1A15435  16.254   8.002   6.952  0.0677  0.0188 -0.0807
 1007loPI   C2A15436  16.133   8.088   7.356 -0.0252 -0.3838  0.0949
 1007loPI   C3A15437  16.181   8.132   7.757 -0.0499 -0.1476 -0.2835
 1007loPI   C4A15438  16.270   8.129   8.220 -0.0598 -0.0186 -0.2834
 1007loPI   C5A15439  16.485   7.827   8.413 -0.3860  0.2463  0.0886
 1007loPI   C6A15440  16.682   7.865   8.817 -0.1197  0.0172 -0.1234
 1007loPI   C1B15441  16.526   7.593   7.072 -0.2165  0.0401  0.1488
 1007loPI   C2B15442  16.462   7.693   7.525 -0.0738  0.1481 -0.1321
 1007loPI   C3B15443  16.543   7.785   7.923 -0.0933 -0.1266 -0.2180
 1007loPI   C4B15444  16.807   7.992   8.110 -0.3525 -0.2395 -0.1762
 1008loPI    C115445   5.578   7.649   5.889  0.0208 -0.2680  0.1005
 1008loPI    C215446   5.873   7.631   5.619  0.0359  0.1056  0.0862
 1008loPI    C315447   5.511   7.485   5.530  0.0737  0.1177 -0.0910
 1008loPI   PO415448   5.684   7.623   6.045  0.0909 -0.1307  0.0983
 1008loPI   GL115449   5.727   7.466   6.392  0.0447  0.2324  0.0714
 1008loPI   GL215450   6.061   7.381   6.487 -0.0634 -0.1319  0.2860
 1008loPI   C1A15451   5.505   7.383   6.716 -0.1323  0.2271  0.1738
 1008loPI   C2A15452   5.408   7.247   7.191  0.1480 -0.0893  0.0448
 1008loPI   C3A15453   5.447   7.294   7.690 -0.0767  0.1222  0.2782
 1008loPI   C4A15454   5.430   7.300   8.093 -0.0975 -0.1523 -0.2833
 1008loPI   C5A15455   5.765   7.173   8.369 -0.3194 -0.0646 -0.1122
 1008loPI   C6A15456   5.895   7.096   8.817  0.2424  0.2173  0.3040
 1008loPI   C1B15457   5.993   7.501   6.903  0.4442 -0.0149 -0.0534
 1008loPI   C2B15458   6.017   7.470   7.251  0.0255 -0.1435 -0.1696
 1008loPI   C3B15459   6.068   7.551   7.641 -0.2758  0.1695  0.2451
 1008loPI   C4B15460   6.066   7.482   8.082 -0.2909 -0.0596 -0.2246
 1009loPI    C115461  13.394   9.917   5.995 -0.0055 -0.1182 -0.0943
 1009loPI    C215462  13.496  10.238   5.779 -0.0531  0.0617  0.1465
 1009loPI    C315463  13.352   9.912   5.597  0.1385  0.1193 -0.1145
 1009loPI   PO415464  13.431  10.040   6.295 -0.0385 -0.0159  0.2062
 1009loPI   GL115465  13.457   9.955   6.749  0.0312  0.3683 -0.0460
 1009loPI   GL215466  13.103  10.062   6.722  0.1462 -0.0094 -0.3595
 1009loPI   C1A15467  13.568  10.166   7.148  0.1789  0.0957  0.0646
 1009loPI   C2A15468  13.417  10.221   7.542  0.0773 -0.0116 -0.2784
 1009loPI   C3A15469  13.349  10.151   7.981  0.1078  0.1262  0.1699
 1009loPI   C4A15470  13.665  10.329   8.282 -0.1340  0.0671  0.0465
 1009loPI   C5A15471  13.805  10.096   8.723  0.2714 -0.0234  0.2436
 1009loPI   C6A15472  13.967   9.641   8.851 -0.1352  0.0151  0.0407
 1009loPI   C1B15473  13.067  10.241   7.155 -0.1523 -0.0195 -0.0221
 1009loPI   C2B15474  12.917  10.095   7.542  0.0574  0.3668 -0.1680
 1009loPI   C3B15475  12.794  10.104   8.024 -0.0321 -0.1566  0.1142
 1009loPI   C4B15476  12.761  10.006   8.447 -0.0072 -0.1324 -0.1583
 1010loPI    C115477   4.284  15.263   5.878 -0.1413 -0.0549 -0.0506
 1010loPI    C215478   4.021  15.138   5.604 -0.0320 -0.1020 -0.1349
 1010loPI    C315479   4.388  15.249   5.492 -0.1428  0.3475 -0.0696
 1010loPI   PO415480   4.201  15.416   5.996  0.6449  0.1490  0.1859
 1010loPI   GL115481   4.061  15.595   6.312 -0.2619  0.0724  0.1486
 1010loPI   GL215482   3.970  15.216   6.418  0.1336  0.1501 -0.2869
 1010loPI   C1A15483   4.288  15.522   6.711  0.0207  0.1343  0.0864
 1010loPI   C2A15484   4.532  15.536   7.066 -0.0303 -0.0557  0.3217
 1010loPI   C3A15485   4.525  15.432   7.458  0.0727 -0.3507  0.0131
 1010loPI   C4A15486   4.474  15.437   7.885 -0.4183  0.1081 -0.0323
 1010loPI   C5A15487   4.374  15.551   8.270  0.1846  0.1917  0.1582
 1010loPI   C6A15488   4.232  15.552   8.643  0.2123  0.1353  0.0174
 1010loPI   C1B15489   3.956  15.168   6.841 -0.1670 -0.2915  0.0715
 1010loPI   C2B15490   4.052  15.385   7.304  0.0131 -0.1311  0.3531
 1010loPI   C3B15491   3.973  15.290   7.644  0.1316  0.0455  0.0031
 1010loPI   C4B15492   4.003  15.513   8.009  0.5117 -0.1049  0.0508
 1011loPI    C115493   3.842  16.912   5.772  0.0011  0.1566  0.1481
 1011loPI    C215494   4.230  16.830   5.829  0.0180  0.0886 -0.0593
 1011loPI    C315495   4.121  17.123   5.579 -0.0689 -0.0642 -0.2024
 1011loPI   PO415496   3.733  16.749   6.014 -0.0254 -0.2355 -0.3759
 1011loPI   GL115497   3.568  16.714   6.322 -0.2083 -0.2577  0.1248
 1011loPI   GL215498   3.960  16.748   6.490 -0.1689  0.1076  0.0669
 1011loPI   C1A15499   3.407  16.642   6.793  0.2743  0.2169  0.2104
 1011loPI   C2A15500   3.400  16.599   7.172  0.0894 -0.2966 -0.0936
 1011loPI   C3A15501   3.520  16.597   7.607  0.1422  0.0407  0.1703
 1011loPI   C4A15502   3.439  16.731   8.042  0.1973  0.0406 -0.0606
 1011loPI   C5A15503   3.521  16.942   8.375  0.4415  0.0523 -0.0479
 1011loPI   C6A15504   3.328  16.902   8.830 -0.0948  0.0790 -0.1058
 1011loPI   C1B15505   3.900  16.690   6.858  0.0078  0.4146  0.0727
 1011loPI   C2B15506   3.886  16.807   7.251  0.1242  0.0315  0.1771
 1011loPI   C3B15507   4.012  16.772   7.705 -0.2602  0.1606 -0.0843
 1011loPI   C4B15508   3.964  16.944   8.120  0.3029 -0.2212  0.1219
 1012loPI    C115509  16.083  15.449   5.349 -0.1505 -0.1101  0.1167
 1012loPI    C215510  16.081  15.057   5.272 -0.0254 -0.0780 -0.0586
 1012loPI    C315511  16.259  15.309   5.018 -0.0397  0.0850  0.0911
 1012loPI   PO415512  16.026  15.383   5.629  0.2025 -0.2569  0.0725
 1012loPI   GL115513  15.783  15.317   6.049  0.0679  0.0908 -0.1203
 1012loPI   GL215514  15.499  15.313   6.228  0.0114 -0.1703  0.0102
 1012loPI   C1A15515  15.868  15.427   6.464 -0.1330 -0.0909  0.0224
 1012loPI   C2A15516  15.914  15.399   6.859  0.3637 -0.2490 -0.0922
 1012loPI   C3A15517  15.928  15.453   7.289 -0.1425  0.0597 -0.4353
 1012loPI   C4A15518  15.923  15.496   7.801 -0.2286 -0.2005 -0.3006
 1012loPI   C5A15519  15.791  15.360   8.147  0.2857  0.1915  0.0277
 1012loPI   C6A15520  15.503  15.233   8.426  0.0642 -0.1238 -0.0032
 1012loPI   C1B15521  15.349  15.258   6.628 -0.1636  0.1011 -0.1709
 1012loPI   C2B15522  15.428  15.330   7.023  0.0500 -0.0130  0.0012
 1012loPI   C3B15523  15.408  15.353   7.395 -0.1391  0.1878 -0.0814
 1012loPI   C4B15524  15.397  15.393   7.834  0.0807  0.0698 -0.0003
 1013loPI    C115525  11.828   3.719   6.144  0.0366 -0.0855 -0.0065
 1013loPI    C215526  11.913   3.554   5.790 -0.0055 -0.0040 -0.0545
 1013loPI    C315527  11.827   3.944   5.814 -0.0359 -0.0164  0.0406
 1013loPI   PO415528  12.022   3.627   6.269  0.3610 -0.1313  0.0489
 1013loPI   GL115529  12.223   3.659   6.542  0.0837  0.0289 -0.0414
 1013loPI   GL215530  12.516   3.797   6.580 -0.0557 -0.0024  0.1703
 1013loPI   C1A15531  12.005   3.810   6.932 -0.2729 -0.0314  0.3610
 1013loPI   C2A15532  12.019   3.820   7.412  0.1501 -0.0297  0.0749
 1013loPI   C3A15533  12.113   3.789   7.808 -0.1381 -0.1135  0.0047
 1013loPI   C4A15534  12.126   3.783   8.179 -0.2327 -0.2381  0.1319
 1013loPI   C5A15535  12.141   3.802   8.656 -0.1512 -0.2289 -0.1595
 1013loPI   C6A15536  11.951   4.123   8.885 -0.0359  0.0925  0.3460
 1013loPI   C1B15537  12.633   3.854   6.919  0.1323 -0.0149  0.1145
 1013loPI   C2B15538  12.540   3.962   7.371  0.2901 -0.3503  0.2677
 1013loPI   C3B15539  12.566   3.944   7.849  0.0406  0.1263 -0.0046
 1013loPI   C4B15540  12.633   3.795   8.240  0.1873  0.2496 -0.2871
 1014loPI    C115541   0.110   0.371   5.328 -0.0848 -0.0125  0.1256
 1014loPI    C215542  -0.105   0.666   5.491  0.1576  0.1029  0.2413
 1014loPI    C315543  -0.141   0.585   5.101 -0.1718  0.0501  0.2791
 1014loPI   PO415544   0.002   0.134   5.521  0.0036  0.4349 -0.0010
 1014loPI   GL115545  -0.183  -0.065   5.986 -0.1504  0.2719 -0.0950
 1014loPI   GL215546  -0.406  -0.162   6.228  0.1284  0.3195  0.0543
 1014loPI   C1A15547   0.016  -0.021   6.396 -0.2489 -0.0359 -0.0461
 1014loPI   C2A15548  -0.008   0.028   6.785  0.3736  0.0250 -0.1601
 1014loPI   C3A15549  -0.096  -0.010   7.259 -0.0660  0.1536  0.2846
 1014loPI   C4A15550  -0.082   0.001   7.726 -0.0943  0.3577 -0.1143
 1014loPI   C5A15551  -0.027   0.036   8.238  0.3207  0.0981  0.1563
 1014loPI   C6A15552  -0.233   0.033   8.590  0.1846 -0.0293 -0.0145
 1014loPI   C1B15553  -0.464  -0.205   6.622  0.1906 -0.1179 -0.3493
 1014loPI   C2B15554  -0.530  -0.076   6.968  0.1773  0.1669  0.0090
 1014loPI   C3B15555  -0.675  -0.008   7.406 -0.1382 -0.0847  0.2820
 1014loPI   C4B15556  -0.664  -0.064   7.740  0.0252  0.1684 -0.1985
 1015loPI    C115557   0.937  10.097   5.996  0.1122 -0.0688  0.0515
 1015loPI    C215558   1.233  10.159   5.733  0.1307  0.2027  0.1336
 1015loPI    C315559   1.060   9.799   5.759  0.3903  0.0678  0.0201
 1015loPI   PO415560   1.134  10.142   6.232  0.2124  0.0488  0.3144
 1015loPI   GL115561   1.342  10.076   6.583  0.1285 -0.1049  0.2128
 1015loPI   GL215562   1.046  10.053   6.674 -0.1189 -0.2801 -0.0729
 1015loPI   C1A15563   1.602   9.994   6.856  0.4753 -0.0748 -0.1585
 1015loPI   C2A15564   1.713   9.774   7.182  0.1682 -0.1554  0.2070
 1015loPI   C3A15565   1.707   9.800   7.594 -0.5383  0.0956  0.0881
 1015loPI   C4A15566   1.742   9.619   8.009 -0.3631  0.1009 -0.0761
 1015loPI   C5A15567   1.653   9.506   8.397 -0.0671 -0.1808  0.0273
 1015loPI   C6A15568   1.781   9.625   8.737  0.3649  0.2392  0.0493
 1015loPI   C1B15569   1.207  10.156   7.074 -0.0636  0.0154  0.2690
 1015loPI   C2B15570   1.556  10.251   7.407  0.0721  0.2735 -0.0056
 1015loPI   C3B15571   1.760  10.328   7.870  0.3309 -0.1110 -0.1343
 1015loPI   C4B15572   1.955  10.257   8.263  0.1292  0.2742 -0.0951
 1016loPI    C115573  13.194   4.949   5.670  0.4897  0.0559  0.0152
 1016loPI    C215574  13.431   4.946   5.348  0.2875  0.1386 -0.1364
 1016loPI    C315575  13.135   5.214   5.376  0.2146  0.0399  0.0531
 1016loPI   PO415576  13.299   4.967   5.908  0.1161  0.0509 -0.1874
 1016loPI   GL115577  13.266   4.982   6.436 -0.1163 -0.1143  0.2032
 1016loPI   GL215578  13.261   5.204   6.540  0.1654 -0.0885 -0.2899
 1016loPI   C1A15579  13.556   4.794   6.734 -0.2089  0.1625 -0.2053
 1016loPI   C2A15580  13.680   4.767   7.121 -0.1980 -0.0771 -0.0236
 1016loPI   C3A15581  13.765   4.653   7.476 -0.1843  0.2010 -0.2943
 1016loPI   C4A15582  13.741   4.565   7.989 -0.0584  0.1462 -0.0993
 1016loPI   C5A15583  13.981   4.581   8.351  0.2920  0.1069  0.1072
 1016loPI   C6A15584  13.829   4.758   8.706 -0.0003  0.1957 -0.0105
 1016loPI   C1B15585  13.308   5.123   7.027  0.2038 -0.1023 -0.2155
 1016loPI   C2B15586  13.355   5.075   7.485  0.2293  0.0661 -0.1683
 1016loPI   C3B15587  13.422   5.082   7.844 -0.0997 -0.1691 -0.1806
 1016loPI   C4B15588  13.540   4.977   8.285 -0.1814 -0.0575 -0.0854
 1017loPI    C115589  15.303  12.254   5.654  0.1885 -0.1817 -0.1224
 1017loPI    C215590  14.959  12.176   5.466 -0.0374  0.2120  0.1137
 1017loPI    C315591  15.248  12.380   5.279  0.0905 -0.1572 -0.1001
 1017loPI   PO415592  15.312  12.432   5.891  0.2108 -0.2698  0.0784
 1017loPI   GL115593  15.268  12.644   6.244  0.1347  0.3084 -0.1522
 1017loPI   GL215594  15.051  12.361   6.398  0.0832  0.0879  0.0745
 1017loPI   C1A15595  15.214  12.858   6.568  0.1306 -0.1267 -0.1271
 1017loPI   C2A15596  15.146  12.897   6.931  0.1001  0.1963 -0.0957
 1017loPI   C3A15597  15.100  12.955   7.375 -0.0368 -0.2182  0.3531
 1017loPI   C4A15598  15.202  12.881   7.747  0.1892  0.2282  0.1490
 1017loPI   C5A15599  15.182  13.008   8.073  0.0769  0.2966  0.0428
 1017loPI   C6A15600  15.081  13.138   8.541 -0.1110  0.1261  0.1963
 1017loPI   C1B15601  15.053  12.382   6.795  0.2539 -0.3787  0.1359
 1017loPI   C2B15602  14.935  12.466   7.128 -0.0195 -0.0883  0.0485
 1017loPI   C3B15603  14.987  12.408   7.628  0.0949  0.0857 -0.0577
 1017loPI   C4B15604  14.898  12.388   7.998 -0.0674 -0.2999 -0.2594
 1018loPI    C115605   0.406   5.146   5.515  0.0526  0.1234 -0.1353
 1018loPI    C215606   0.600   4.828   5.370  0.1616  0.1089  0.0395
 1018loPI    C315607   0.216   4.888   5.276  0.1359 -0.0826  0.0180
 1018loPI   PO415608   0.447   5.138   5.805 -0.1980 -0.0496  0.1786
 1018loPI   GL115609   0.714   5.012   6.225 -0.2019  0.2980 -0.1213
 1018loPI   GL215610   0.336   4.953   6.244  0.1409 -0.0812  0.4746
 1018loPI   C1A15611   0.936   4.950   6.686  0.5091 -0.0551 -0.0505
 1018loPI   C2A15612   0.975   4.843   7.202  0.0189  0.0204  0.0203
 1018loPI   C3A15613   0.896   4.857   7.636 -0.0165 -0.0662 -0.1800
 1018loPI   C4A15614   0.844   4.754   7.957 -0.0810  0.2825  0.1326
 1018loPI   C5A15615   0.471   4.718   8.175  0.1846  0.1093  0.1679
 1018loPI   C6A15616   0.170   4.556   8.485 -0.3017  0.5609  0.1904
 1018loPI   C1B15617   0.426   4.780   6.574  0.2953 -0.1902 -0.0665
 1018loPI   C2B15618   0.510   4.724   7.022 -0.0632  0.2077  0.2354
 1018loPI   C3B15619   0.440   4.772   7.419 -0.1043  0.0784  0.0543
 1018loPI   C4B15620   0.273   4.583   7.769 -0.0612  0.0694 -0.2141
 1019loPI    C115621   7.072   1.314   5.943 -0.1871 -0.0350 -0.1359
 1019loPI    C215622   7.083   1.603   5.666 -0.0121  0.0870 -0.0038
 1019loPI    C315623   7.172   1.226   5.565  0.2111  0.1590 -0.0802
 1019loPI   PO415624   7.239   1.461   6.180  0.1643  0.0151  0.0908
 1019loPI   GL115625   7.072   1.669   6.509 -0.0947  0.0020  0.0006
 1019loPI   GL215626   6.834   1.882   6.384 -0.1838  0.1364 -0.0876
 1019loPI   C1A15627   7.157   1.732   6.992  0.0477 -0.2548 -0.0278
 1019loPI   C2A15628   7.196   1.794   7.445 -0.2561  0.4077  0.2927
 1019loPI   C3A15629   7.083   1.702   7.914 -0.0790 -0.3241 -0.2286
 1019loPI   C4A15630   7.094   1.653   8.244  0.1743 -0.1021 -0.0557
 1019loPI   C5A15631   7.369   1.742   8.576  0.0670  0.4853 -0.0320
 1019loPI   C6A15632   7.542   1.919   8.928 -0.1713  0.2161  0.2932
 1019loPI   C1B15633   6.844   2.093   6.738 -0.0426  0.0075 -0.0756
 1019loPI   C2B15634   6.834   2.104   7.179  0.1059  0.1638  0.0047
 1019loPI   C3B15635   6.796   2.095   7.633  0.2787 -0.4897 -0.0996
 1019loPI   C4B15636   6.720   2.097   8.045  0.1008 -0.1735  0.2603
 1020loPI    C115637   6.987  11.833   5.809 -0.0043 -0.0882 -0.1090
 1020loPI    C215638   6.747  12.063   5.587  0.1103  0.0640 -0.0774
 1020loPI    C315639   6.876  11.712   5.445  0.1014  0.1139 -0.2104
 1020loPI   PO415640   6.905  11.902   6.070 -0.0894 -0.0835 -0.1906
 1020loPI   GL115641   6.684  12.003   6.441 -0.1408  0.1237 -0.1368
 1020loPI   GL215642   6.926  12.061   6.730  0.3944 -0.4885  0.0293
 1020loPI   C1A15643   6.591  11.598   6.808  0.0847  0.0267  0.1485
 1020loPI   C2A15644   6.607  11.474   7.185  0.1266  0.0517 -0.2121
 1020loPI   C3A15645   6.684  11.388   7.656  0.3417  0.0358 -0.0292
 1020loPI   C4A15646   6.643  11.395   8.129 -0.2207 -0.0254  0.4044
 1020loPI   C5A15647   6.666  11.444   8.602  0.0955 -0.0290 -0.2068
 1020loPI   C6A15648   6.919  11.472   9.019 -0.1319 -0.2207 -0.0370
 1020loPI   C1B15649   6.775  11.980   7.119  0.1071 -0.0176 -0.3906
 1020loPI   C2B15650   6.844  11.906   7.478 -0.0711  0.1202  0.2277
 1020loPI   C3B15651   6.786  11.786   7.908  0.0477  0.1028  0.0951
 1020loPI   C4B15652   6.718  11.902   8.307  0.0640  0.0917  0.1894
 1021loPI    C115653  15.681   8.507   6.174  0.0026 -0.1883 -0.1489
 1021loPI    C215654  15.941   8.519   5.871  0.1540  0.1366 -0.0102
 1021loPI    C315655  15.703   8.833   5.943 -0.1341 -0.0785 -0.0094
 1021loPI   PO415656  15.798   8.363   6.314 -0.0939  0.0378 -0.2300
 1021loPI   GL115657  15.970   8.269   6.667 -0.0784 -0.1824  0.2822
 1021loPI   GL215658  16.286   8.477   6.863 -0.2008  0.3294  0.1400
 1021loPI   C1A15659  15.876   8.470   7.129  0.1021  0.0817  0.0343
 1021loPI   C2A15660  15.774   8.417   7.568 -0.1188  0.0615 -0.0551
 1021loPI   C3A15661  15.789   8.430   8.077 -0.0673 -0.1223  0.3996
 1021loPI   C4A15662  15.862   8.249   8.447 -0.1045 -0.0694  0.0963
 1021loPI   C5A15663  16.013   7.996   8.662  0.0649  0.1201  0.1800
 1021loPI   C6A15664  16.163   7.649   8.726  0.0198  0.1197 -0.0737
 1021loPI   C1B15665  16.530   8.307   7.180 -0.1398  0.0192  0.0981
 1021loPI   C2B15666  16.703   8.318   7.660 -0.0187 -0.2373  0.2625
 1021loPI   C3B15667  16.746   8.474   8.029  0.0090 -0.1602  0.3046
 1021loPI   C4B15668  16.740   8.737   8.399  0.2577  0.3885 -0.1306
 1022loPI    C115669   5.868   9.915   5.668 -0.3091  0.0250  0.2087
 1022loPI    C215670   5.803   9.575   5.468 -0.0299 -0.0295  0.2063
 1022loPI    C315671   5.839   9.920   5.269 -0.3028  0.0026  0.2080
 1022loPI   PO415672   5.690   9.853   5.907 -0.1826 -0.1691 -0.0849
 1022loPI   GL115673   5.847   9.921   6.268 -0.0638  0.4844 -0.1085
 1022loPI   GL215674   5.594  10.100   6.334  0.0844  0.1549 -0.2220
 1022loPI   C1A15675   6.079   9.863   6.605 -0.0468  0.0781  0.0140
 1022loPI   C2A15676   6.217  10.033   6.998 -0.0795 -0.0121 -0.0298
 1022loPI   C3A15677   6.284  10.018   7.464  0.2347 -0.0808 -0.0704
 1022loPI   C4A15678   6.171   9.797   7.879 -0.3062  0.1371  0.3746
 1022loPI   C5A15679   6.345   9.858   8.285  0.1399  0.1373  0.3360
 1022loPI   C6A15680   6.516   9.771   8.732  0.0915 -0.0812 -0.0145
 1022loPI   C1B15681   5.828  10.278   6.749 -0.0199 -0.0408  0.3054
 1022loPI   C2B15682   5.823  10.276   7.217 -0.3189 -0.1477  0.0609
 1022loPI   C3B15683   5.746  10.286   7.649 -0.3531  0.0905 -0.0082
 1022loPI   C4B15684   5.813  10.265   8.067 -0.1765  0.3621 -0.3225
 1023loPI    C115685   8.943   5.167   5.561 -0.1255  0.3994  0.2512
 1023loPI    C215686   9.221   5.192   5.274 -0.1122  0.2586  0.2511
 1023loPI    C315687   8.840   5.282   5.191 -0.1386  0.0536  0.1443
 1023loPI   PO415688   9.172   5.110   5.837  0.1968 -0.2527 -0.1942
 1023loPI   GL115689   9.114   5.005   6.256  0.1484  0.2119 -0.0465
 1023loPI   GL215690   9.292   5.173   6.429 -0.0877 -0.1946  0.3431
 1023loPI   C1A15691   9.033   4.805   6.704 -0.0333  0.1408 -0.0834
 1023loPI   C2A15692   9.078   4.986   7.169  0.0845  0.2575  0.2987
 1023loPI   C3A15693   9.102   5.000   7.660 -0.0353  0.2423 -0.4089
 1023loPI   C4A15694   9.130   4.964   8.055 -0.0376 -0.1688 -0.0443
 1023loPI   C5A15695   9.327   4.930   8.534  0.0743  0.0452 -0.2852
 1023loPI   C6A15696   9.633   4.674   8.684 -0.1396  0.1492  0.0541
 1023loPI   C1B15697   9.515   5.108   6.792  0.1286  0.0159 -0.0681
 1023loPI   C2B15698   9.596   5.047   7.216  0.0474  0.0328  0.1482
 1023loPI   C3B15699   9.608   5.122   7.618  0.0862  0.2860  0.0618
 1023loPI   C4B15700   9.587   5.049   8.073 -0.2122 -0.2783 -0.2509
 1024loPI    C115701   4.108  12.163   5.614  0.1811 -0.2824 -0.0496
 1024loPI    C215702   3.966  12.463   5.391 -0.0038 -0.0931  0.3134
 1024loPI    C315703   3.885  12.084   5.292 -0.4328  0.0003  0.2890
 1024loPI   PO415704   4.129  12.242   5.804 -0.1003  0.0671  0.2672
 1024loPI   GL115705   4.148  12.376   6.199  0.0202  0.1803  0.0696
 1024loPI   GL215706   4.398  12.571   6.329  0.1904 -0.2553  0.1300
 1024loPI   C1A15707   4.024  12.488   6.617  0.0117  0.1073  0.0137
 1024loPI   C2A15708   4.070  12.666   7.063  0.2573  0.0810  0.3041
 1024loPI   C3A15709   4.127  12.589   7.539  0.0962  0.1727  0.3958
 1024loPI   C4A15710   4.095  12.558   7.927  0.1595  0.0086  0.1264
 1024loPI   C5A15711   4.048  12.573   8.348  0.1437 -0.3377  0.0381
 1024loPI   C6A15712   3.842  12.286   8.613  0.0926 -0.1090 -0.3790
 1024loPI   C1B15713   4.600  12.722   6.750  0.0304  0.2153 -0.2718
 1024loPI   C2B15714   4.632  12.769   7.258  0.0808 -0.1100 -0.0570
 1024loPI   C3B15715   4.644  12.653   7.641  0.0355  0.1914 -0.1056
 1024loPI   C4B15716   4.744  12.760   8.031  0.0882 -0.1695 -0.1071
 1025loPI    C115717   5.573   2.826   5.901  0.3083 -0.2915  0.0837
 1025loPI    C215718   5.761   3.175   5.948 -0.0731 -0.0967  0.2076
 1025loPI    C315719   5.797   2.973   5.605  0.1301  0.0751  0.1256
 1025loPI   PO415720   5.553   2.784   6.170  0.2917  0.4563 -0.2553
 1025loPI   GL115721   5.796   3.005   6.406  0.0425  0.4323 -0.1110
 1025loPI   GL215722   6.029   2.892   6.325 -0.0613 -0.0499 -0.1503
 1025loPI   C1A15723   5.797   3.161   6.780 -0.0491 -0.0152  0.2636
 1025loPI   C2A15724   5.705   3.185   7.096 -0.0513  0.1321  0.0594
 1025loPI   C3A15725   5.701   3.173   7.592  0.2877  0.1181  0.4059
 1025loPI   C4A15726   5.664   3.105   8.031 -0.0312 -0.1900 -0.1102
 1025loPI   C5A15727   5.372   3.256   8.371 -0.1060 -0.2962 -0.4819
 1025loPI   C6A15728   4.962   3.357   8.496 -0.1011  0.2423 -0.2854
 1025loPI   C1B15729   6.145   2.837   6.797 -0.2807  0.2695  0.1581
 1025loPI   C2B15730   6.053   2.864   7.228 -0.4258  0.0418  0.0703
 1025loPI   C3B15731   6.103   2.829   7.682  0.2168 -0.0435  0.1220
 1025loPI   C4B15732   5.983   2.739   8.061 -0.0562 -0.4047  0.0330
 1026loPI    C115733  13.011  10.264   5.732 -0.1657 -0.0329 -0.1719
 1026loPI    C215734  12.664  10.443   5.645 -0.0883  0.1811 -0.0473
 1026loPI    C315735  12.671  10.052   5.728 -0.2803  0.1487 -0.1758
 1026loPI   PO415736  13.084  10.510   5.931  0.0848  0.2766  0.0986
 1026loPI   GL115737  13.180  10.471   6.373  0.1046 -0.1742  0.1897
 1026loPI   GL215738  12.914  10.447   6.498  0.1209  0.3283 -0.1566
 1026loPI   C1A15739  13.516  10.550   6.768  0.1821  0.2179 -0.1178
 1026loPI   C2A15740  13.452  10.638   7.217 -0.0533 -0.0325 -0.1347
 1026loPI   C3A15741  13.617  10.679   7.605  0.1404  0.1322 -0.0418
 1026loPI   C4A15742  13.530  10.744   8.030 -0.0727  0.0910 -0.0354
 1026loPI   C5A15743  13.624  10.798   8.491 -0.0170  0.3006  0.1218
 1026loPI   C6A15744  13.311  10.843   8.860 -0.0412  0.0383 -0.1000
 1026loPI   C1B15745  12.576  10.335   6.874 -0.0136  0.2205 -0.1950
 1026loPI   C2B15746  12.466  10.462   7.351 -0.0808 -0.1262  0.1904
 1026loPI   C3B15747  12.536  10.509   7.722 -0.1264 -0.1334  0.4193
 1026loPI   C4B15748  12.519  10.555   8.149  0.1738  0.3110 -0.0090
 1027loPI    C115749   1.110   2.546   5.384 -0.2920  0.2595  0.3201
 1027loPI    C215750   1.122   2.839   5.113 -0.1788  0.1107  0.1622
 1027loPI    C315751   1.461   2.664   5.232 -0.2795 -0.2668 -0.0886
 1027loPI   PO415752   0.979   2.655   5.616  0.2048 -0.0867  0.1489
 1027loPI   GL115753   0.787   2.478   5.895 -0.1635 -0.3110 -0.0787
 1027loPI   GL215754   0.697   2.227   5.921 -0.0972  0.1933 -0.0547
 1027loPI   C1A15755   0.743   2.672   6.300 -0.3449  0.1092 -0.1260
 1027loPI   C2A15756   0.656   2.561   6.812  0.1633 -0.0351  0.1537
 1027loPI   C3A15757   0.700   2.480   7.196 -0.1026 -0.0369  0.2007
 1027loPI   C4A15758   0.657   2.425   7.652  0.0731 -0.2393  0.0716
 1027loPI   C5A15759   0.661   2.443   8.129 -0.1051 -0.0820  0.1722
 1027loPI   C6A15760   0.477   2.439   8.531 -0.0811 -0.1288 -0.0637
 1027loPI   C1B15761   0.313   2.371   6.303 -0.1214  0.1699  0.3012
 1027loPI   C2B15762   0.212   2.336   6.676 -0.2184  0.2138  0.1692
 1027loPI   C3B15763   0.181   2.376   7.161 -0.3816  0.0617 -0.1813
 1027loPI   C4B15764   0.121   2.398   7.615 -0.0628 -0.0040 -0.1172
 1028loPI    C115765  16.920  15.344   5.415  0.2516 -0.3503  0.2367
 1028loPI    C215766  16.557  15.179   5.393  0.0928  0.0193 -0.0281
 1028loPI    C315767  16.833  15.090   5.118  0.1570 -0.1489  0.0892
 1028loPI   PO415768  16.961  15.293   5.730 -0.0302  0.1278  0.0320
 1028loPI   GL115769  16.901  15.154   6.104 -0.0127  0.1376  0.2093
 1028loPI   GL215770  17.010  14.827   6.298  0.0747  0.1292  0.2838
 1028loPI   C1A15771  16.737  15.142   6.648  0.0287 -0.2691 -0.0720
 1028loPI   C2A15772  16.748  15.093   7.075  0.0986  0.0553 -0.1000
 1028loPI   C3A15773  16.754  15.162   7.564 -0.1537  0.0640 -0.1699
 1028loPI   C4A15774  16.776  15.160   7.911  0.0129 -0.2886 -0.0190
 1028loPI   C5A15775  16.537  15.286   8.352  0.1897 -0.1332  0.1100
 1028loPI   C6A15776  16.691  15.252   8.695 -0.2803  0.1557 -0.0485
 1028loPI   C1B15777  17.177  14.748   6.799  0.2859  0.1651 -0.0337
 1028loPI   C2B15778  17.124  14.735   7.153  0.1317 -0.4189  0.1815
 1028loPI   C3B15779  17.099  14.761   7.550 -0.1283  0.1178  0.0471
 1028loPI   C4B15780  17.140  14.751   7.978 -0.1734 -0.1377 -0.1003
 1029loPI    C115781   7.908  13.979   5.602  0.1063  0.1489  0.0089
 1029loPI    C215782   8.280  13.987   5.455  0.1243  0.1742  0.0558
 1029loPI    C315783   7.987  14.183   5.267  0.0930 -0.0139 -0.0947
 1029loPI   PO415784   7.927  14.043   5.849 -0.2115 -0.1939 -0.0431
 1029loPI   GL115785   8.078  13.962   6.321  0.0922 -0.2838  0.1336
 1029loPI   GL215786   7.758  13.841   6.308  0.0605 -0.0404 -0.0840
 1029loPI   C1A15787   8.282  13.613   6.559 -0.1005  0.0626  0.0903
 1029loPI   C2A15788   8.212  13.608   6.938 -0.1517 -0.0286 -0.2042
 1029loPI   C3A15789   8.210  13.659   7.381  0.4622  0.2005  0.1985
 1029loPI   C4A15790   8.331  13.613   7.809 -0.1028 -0.1419 -0.2222
 1029loPI   C5A15791   8.358  13.602   8.246  0.0215 -0.2300  0.0153
 1029loPI   C6A15792   8.272  13.421   8.630  0.0897 -0.0833  0.1669
 1029loPI   C1B15793   7.800  14.004   6.718 -0.1370 -0.0179  0.4098
 1029loPI   C2B15794   7.838  13.966   7.161  0.0462 -0.0803 -0.1808
 1029loPI   C3B15795   7.853  13.995   7.615 -0.2660  0.4980 -0.2497
 1029loPI   C4B15796   8.006  13.972   8.046  0.2500 -0.0622 -0.5349
 1030loPI    C115797  14.647  14.531   5.577  0.0725  0.0622  0.0946
 1030loPI    C215798  14.716  14.162   5.441 -0.0569  0.0358  0.0993
 1030loPI    C315799  14.788  14.478   5.207 -0.0896  0.0002  0.0411
 1030loPI   PO415800  14.674  14.416   5.872 -0.0634 -0.2696  0.0459
 1030loPI   GL115801  15.137  14.334   6.105 -0.0224  0.1336 -0.2662
 1030loPI   GL215802  14.916  14.233   6.286 -0.2202 -0.0920  0.1447
 1030loPI   C1A15803  15.494  14.291   6.499  0.0617  0.2453 -0.1457
 1030loPI   C2A15804  15.605  14.496   6.751  0.2642 -0.1717  0.1371
 1030loPI   C3A15805  15.660  14.470   7.236 -0.0972  0.0963 -0.1370
 1030loPI   C4A15806  15.684  14.483   7.640 -0.1263 -0.0587  0.2851
 1030loPI   C5A15807  15.668  14.422   8.021  0.0268 -0.2078 -0.3111
 1030loPI   C6A15808  15.930  14.158   8.280 -0.3714  0.1104  0.1643
 1030loPI   C1B15809  15.015  14.290   6.624 -0.2215 -0.1653  0.1767
 1030loPI   C2B15810  15.156  14.239   6.974  0.1241  0.1392 -0.2694
 1030loPI   C3B15811  15.144  14.302   7.415 -0.2383 -0.4206 -0.2813
 1030loPI   C4B15812  15.229  14.400   7.849 -0.0919  0.4262  0.1411
 1031loPI    C115813  14.609   2.917   5.539  0.0151  0.0034 -0.2649
 1031loPI    C215814  14.505   3.138   5.222 -0.1391 -0.0696 -0.2661
 1031loPI    C315815  14.245   2.876   5.377 -0.0001 -0.1640 -0.1905
 1031loPI   PO415816  14.683   2.999   5.662  0.3196 -0.1855  0.1350
 1031loPI   GL115817  14.648   3.090   6.114 -0.0558 -0.0177  0.1979
 1031loPI   GL215818  15.063   2.996   5.978 -0.2761  0.1183 -0.1673
 1031loPI   C1A15819  14.751   3.051   6.627  0.2899 -0.1782 -0.0893
 1031loPI   C2A15820  14.699   3.075   7.108 -0.0415 -0.3730 -0.2425
 1031loPI   C3A15821  14.702   3.045   7.517  0.1152  0.0895  0.0958
 1031loPI   C4A15822  14.653   3.043   7.924  0.1215 -0.0899 -0.0794
 1031loPI   C5A15823  14.276   3.325   8.121  0.0847 -0.0060 -0.2576
 1031loPI   C6A15824  13.961   3.518   8.406  0.2031  0.0276 -0.4414
 1031loPI   C1B15825  15.169   3.195   6.355  0.0241  0.0563  0.1499
 1031loPI   C2B15826  15.209   3.162   6.858 -0.2269  0.3169 -0.1641
 1031loPI   C3B15827  15.178   3.164   7.260 -0.2296  0.3299  0.0846
 1031loPI   C4B15828  15.127   3.205   7.729 -0.2302 -0.0982 -0.0477
 1032loPI    C115829   1.080   3.215   5.426 -0.2022 -0.0782 -0.1282
 1032loPI    C215830   1.124   3.600   5.528  0.0757 -0.1166 -0.0933
 1032loPI    C315831   0.763   3.428   5.542 -0.0070  0.0719  0.1410
 1032loPI   PO415832   1.285   3.063   5.653 -0.2390 -0.2014  0.1776
 1032loPI   GL115833   1.247   2.794   6.024  0.0049  0.1598 -0.1209
 1032loPI   GL215834   1.408   3.068   6.159  0.3271  0.1157 -0.0533
 1032loPI   C1A15835   1.271   2.624   6.493 -0.0341  0.0744 -0.1700
 1032loPI   C2A15836   1.180   2.704   6.880  0.1109 -0.1314 -0.1873
 1032loPI   C3A15837   1.106   2.502   7.406  0.0759 -0.0563 -0.5691
 1032loPI   C4A15838   1.110   2.634   7.907  0.1466  0.2079 -0.1674
 1032loPI   C5A15839   1.113   2.614   8.358  0.0020 -0.0487 -0.1424
 1032loPI   C6A15840   1.009   2.887   8.695  0.1834  0.3229  0.0938
 1032loPI   C1B15841   1.327   3.127   6.631  0.1953  0.4199  0.1910
 1032loPI   C2B15842   1.273   3.167   7.063 -0.2843  0.0829  0.0831
 1032loPI   C3B15843   1.279   2.982   7.442 -0.1657  0.0172 -0.0884
 1032loPI   C4B15844   1.402   3.156   7.862 -0.0638  0.2730 -0.0146
 1033loPI    C115845  11.848  14.646   5.828 -0.0396 -0.0685 -0.0598
 1033loPI    C215846  11.595  14.555   5.532  0.0922 -0.3515 -0.0883
 1033loPI    C315847  11.699  14.276   5.800  0.0652 -0.1288  0.1580
 1033loPI   PO415848  11.809  14.799   5.957 -0.0601 -0.0012 -0.0273
 1033loPI   GL115849  11.501  14.897   6.230 -0.1146 -0.4040 -0.0081
 1033loPI   GL215850  11.526  15.193   6.204 -0.2484 -0.0362 -0.0958
 1033loPI   C1A15851  11.533  14.757   6.643 -0.2564  0.1709 -0.0208
 1033loPI   C2A15852  11.619  14.739   7.150  0.1144 -0.0603 -0.0177
 1033loPI   C3A15853  11.532  14.769   7.586  0.1275 -0.0760  0.0235
 1033loPI   C4A15854  11.484  14.873   8.024 -0.4987  0.0758  0.0181
 1033loPI   C5A15855  11.234  14.694   8.439  0.2647  0.0819  0.0603
 1033loPI   C6A15856  10.978  14.414   8.602  0.2987  0.1301  0.2876
 1033loPI   C1B15857  11.678  15.284   6.548 -0.0472  0.0736  0.0141
 1033loPI   C2B15858  11.728  15.316   6.970  0.1185 -0.0167  0.2168
 1033loPI   C3B15859  11.683  15.322   7.359  0.2770  0.1175 -0.1619
 1033loPI   C4B15860  11.640  15.288   7.823  0.0737  0.0641 -0.2042
 1034loPI    C115861  14.943   9.858   5.791 -0.1060  0.0384  0.0162
 1034loPI    C215862  15.303   9.714   5.693 -0.0802 -0.0214  0.1951
 1034loPI    C315863  15.070   9.877   5.412  0.0388 -0.0858  0.0574
 1034loPI   PO415864  15.061  10.063   6.118  0.0246  0.0402  0.2560
 1034loPI   GL115865  15.372  10.071   6.464 -0.0012  0.4406 -0.2118
 1034loPI   GL215866  15.427   9.675   6.681 -0.0365 -0.0528 -0.0751
 1034loPI   C1A15867  15.102  10.078   6.820  0.0416  0.0357  0.1524
 1034loPI   C2A15868  15.204  10.100   7.304  0.0334  0.1041  0.0513
 1034loPI   C3A15869  15.339   9.824   7.588  0.0500  0.4115 -0.1395
 1034loPI   C4A15870  15.194   9.577   7.872 -0.0545  0.0663 -0.0334
 1034loPI   C5A15871  14.937   9.306   8.178 -0.0502  0.2365  0.3091
 1034loPI   C6A15872  14.668   9.100   8.489  0.2360  0.0703  0.0459
 1034loPI   C1B15873  15.376   9.618   7.121 -0.2547  0.2458 -0.0608
 1034loPI   C2B15874  15.244   9.253   7.364  0.0512 -0.2086 -0.0297
 1034loPI   C3B15875  15.268   9.111   7.837 -0.2892  0.1421  0.2603
 1034loPI   C4B15876  15.351   8.735   8.000 -0.1792 -0.3609 -0.1330
 1035loPI    C115877   6.651   1.302   5.616  0.1657 -0.3137  0.0449
 1035loPI    C215878   6.667   1.665   5.449  0.1885 -0.2174  0.2528
 1035loPI    C315879   6.494   1.362   5.254 -0.0101 -0.0479  0.1623
 1035loPI   PO415880   6.565   1.315   5.856 -0.0106  0.1329  0.1846
 1035loPI   GL115881   6.606   1.450   6.232  0.0661  0.2824  0.1282
 1035loPI   GL215882   6.567   1.074   6.316  0.1682 -0.0279 -0.0012
 1035loPI   C1A15883   6.583   1.535   6.628 -0.2708 -0.0559  0.1742
 1035loPI   C2A15884   6.588   1.616   6.999  0.1269 -0.1355 -0.2644
 1035loPI   C3A15885   6.647   1.697   7.440  0.0149 -0.1327 -0.1359
 1035loPI   C4A15886   6.571   1.655   7.780 -0.0066  0.2664  0.0268
 1035loPI   C5A15887   6.593   1.587   8.200 -0.1056  0.1289 -0.3399
 1035loPI   C6A15888   6.757   1.539   8.592 -0.1118  0.1005 -0.1724
 1035loPI   C1B15889   6.319   1.153   6.564 -0.0709  0.0330 -0.2693
 1035loPI   C2B15890   6.381   1.100   7.036  0.2528 -0.1282 -0.2681
 1035loPI   C3B15891   6.408   1.170   7.547 -0.0514  0.0729 -0.0403
 1035loPI   C4B15892   6.421   1.114   7.952  0.0068 -0.1309 -0.2630
 1036loPI    C115893   9.891   9.100   5.710 -0.1581  0.1539 -0.2000
 1036loPI    C215894  10.172   9.356   5.586 -0.0527  0.1503  0.0251
 1036loPI    C315895   9.925   9.186   5.321  0.1576  0.1520 -0.1755
 1036loPI   PO415896   9.809   9.271   5.937 -0.0754 -0.1391 -0.1107
 1036loPI   GL115897   9.757   9.535   6.214  0.0459 -0.4251 -0.1914
 1036loPI   GL215898   9.978   9.757   6.379  0.1799  0.0684 -0.0513
 1036loPI   C1A15899   9.732   9.336   6.627  0.0594 -0.1354  0.3953
 1036loPI   C2A15900   9.850   9.313   7.144  0.3324  0.2833  0.2996
 1036loPI   C3A15901   9.825   9.322   7.492 -0.0191  0.3406 -0.2839
 1036loPI   C4A15902   9.760   9.299   7.900 -0.0279 -0.0550  0.1126
 1036loPI   C5A15903   9.544   9.231   8.317 -0.1398 -0.2469 -0.0681
 1036loPI   C6A15904   9.749   9.072   8.735 -0.0542 -0.2252 -0.0200
 1036loPI   C1B15905   9.887   9.824   6.817  0.0618  0.0286  0.2129
 1036loPI   C2B15906   9.934   9.822   7.266  0.2111 -0.0263 -0.0580
 1036loPI   C3B15907   9.976   9.745   7.700 -0.0904  0.1651 -0.2440
 1036loPI   C4B15908   9.925   9.842   8.107  0.1131  0.0059  0.0003
 1037loPI    C115909   0.162   2.666   5.109 -0.0513  0.0996  0.0520
 1037loPI    C215910   0.260   2.278   5.094 -0.0761  0.0918  0.0921
 1037loPI    C315911  -0.057   2.412   4.891 -0.0514  0.0962  0.0561
 1037loPI   PO415912   0.062   2.800   5.430  0.1262  0.0663  0.2266
 1037loPI   GL115913   0.082   2.511   5.846  0.2766 -0.0075  0.0799
 1037loPI   GL215914  -0.251   2.330   5.926  0.1617  0.1982  0.1024
 1037loPI   C1A15915  -0.030   2.711   6.210  0.1734 -0.2502  0.1044
 1037loPI   C2A15916  -0.181   2.754   6.500  0.2153 -0.1204 -0.1396
 1037loPI   C3A15917  -0.141   2.760   6.980  0.2269  0.0185  0.3370
 1037loPI   C4A15918  -0.246   2.759   7.345  0.1322 -0.0315 -0.4099
 1037loPI   C5A15919  -0.229   2.736   7.801  0.2699 -0.0259 -0.0534
 1037loPI   C6A15920  -0.413   2.869   8.196  0.4728  0.2740 -0.2221
 1037loPI   C1B15921  -0.289   2.206   6.343  0.3737  0.0594  0.1018
 1037loPI   C2B15922  -0.318   2.291   6.707  0.2019 -0.1860  0.1030
 1037loPI   C3B15923  -0.346   2.262   7.172 -0.2974 -0.1591  0.5755
 1037loPI   C4B15924  -0.385   2.337   7.628  0.4365  0.0149  0.0994
 1038loPI    C115925   5.146   4.141   5.917 -0.1844  0.1965  0.0057
 1038loPI    C215926   5.119   4.106   5.520  0.3030  0.0385 -0.0205
 1038loPI    C315927   5.190   3.783   5.744 -0.0367  0.1161  0.2055
 1038loPI   PO415928   5.030   4.299   5.987 -0.0532 -0.0165 -0.2172
 1038loPI   GL115929   5.012   4.289   6.439  0.0873  0.1744 -0.1020
 1038loPI   GL215930   4.648   4.315   6.592 -0.1887 -0.0238  0.0414
 1038loPI   C1A15931   5.126   4.423   6.730 -0.1855  0.0123 -0.0402
 1038loPI   C2A15932   5.108   4.450   7.222  0.0254 -0.1019  0.0474
 1038loPI   C3A15933   5.216   4.399   7.647  0.3822 -0.0804 -0.0728
 1038loPI   C4A15934   4.912   4.477   7.952 -0.2101  0.0503 -0.1588
 1038loPI   C5A15935   4.836   4.610   8.377  0.0782 -0.4301 -0.2833
 1038loPI   C6A15936   4.796   4.885   8.664 -0.0871  0.1270  0.0875
 1038loPI   C1B15937   4.566   4.326   7.078 -0.1264 -0.3314  0.1053
 1038loPI   C2B15938   4.652   4.309   7.591  0.0998 -0.0756  0.3193
 1038loPI   C3B15939   4.450   4.402   8.035 -0.0626 -0.0234  0.4215
 1038loPI   C4B15940   4.320   4.697   8.345  0.1790 -0.3680  0.0258
 1039loPI    C115941   2.212  12.011   5.823 -0.1836 -0.1864  0.0203
 1039loPI    C215942   2.234  11.638   5.966  0.0399 -0.1436  0.1024
 1039loPI    C315943   2.439  11.738   5.637  0.0268 -0.0779  0.1141
 1039loPI   PO415944   2.330  12.194   5.963 -0.1213 -0.1817 -0.0176
 1039loPI   GL115945   2.415  12.090   6.405  0.0916  0.3346 -0.2538
 1039loPI   GL215946   2.173  12.310   6.414 -0.1692  0.1986  0.0355
 1039loPI   C1A15947   2.526  12.065   6.758 -0.0938  0.0681 -0.0533
 1039loPI   C2A15948   2.578  12.212   7.292  0.0735  0.0291  0.0487
 1039loPI   C3A15949   2.583  12.280   7.717  0.3297 -0.4464 -0.0975
 1039loPI   C4A15950   2.572  12.230   8.112 -0.3998 -0.0071  0.1631
 1039loPI   C5A15951   2.399  12.014   8.392  0.2159  0.0532  0.1149
 1039loPI   C6A15952   2.043  12.012   8.689 -0.0218 -0.1201  0.0738
 1039loPI   C1B15953   2.199  12.513   6.799  0.1197  0.1165 -0.0770
 1039loPI   C2B15954   2.098  12.599   7.213  0.0500  0.1792  0.1102
 1039loPI   C3B15955   2.145  12.672   7.615 -0.3222 -0.2257 -0.0383
 1039loPI   C4B15956   2.295  12.685   8.025  0.2251  0.2941  0.0175
 1040loPI    C115957  10.078   3.554   5.830  0.1684 -0.1649  0.0580
 1040loPI    C215958   9.967   3.247   5.599  0.0599 -0.2168  0.1777
 1040loPI    C315959   9.835   3.616   5.519  0.3293 -0.1701 -0.0705
 1040loPI   PO415960  10.078   3.485   6.088 -0.0702  0.2325 -0.0291
 1040loPI   GL115961   9.833   3.434   6.420 -0.0099 -0.0913  0.0484
 1040loPI   GL215962  10.092   3.338   6.534  0.1270 -0.0632 -0.1897
 1040loPI   C1A15963   9.699   3.683   6.783 -0.1580  0.2528  0.0399
 1040loPI   C2A15964   9.533   3.696   7.148 -0.0337  0.0725 -0.2384
 1040loPI   C3A15965   9.613   3.733   7.603  0.0686  0.1508  0.0239
 1040loPI   C4A15966   9.627   3.853   7.980 -0.2260  0.0432 -0.2619
 1040loPI   C5A15967   9.653   3.716   8.444  0.0991  0.1897 -0.1787
 1040loPI   C6A15968   9.954   3.749   8.837  0.2229  0.2769  0.0536
 1040loPI   C1B15969  10.053   3.317   7.014  0.1480 -0.0191 -0.4774
 1040loPI   C2B15970   9.960   3.387   7.416  0.0193  0.1172 -0.0799
 1040loPI   C3B15971   9.988   3.400   7.792  0.1391 -0.1227 -0.2410
 1040loPI   C4B15972   9.990   3.378   8.212 -0.0001  0.1283  0.0516
 1041loPI    C115973   7.756  11.285   5.723  0.1494 -0.0157 -0.0240
 1041loPI    C215974   7.973  11.223   5.393  0.0881 -0.0102 -0.0652
 1041loPI    C315975   7.594  11.094   5.412  0.0603  0.0749 -0.0339
 1041loPI   PO415976   7.875  11.595   5.831  0.0206  0.2946  0.0513
 1041loPI   GL115977   8.036  11.695   6.252  0.1926 -0.2275 -0.0070
 1041loPI   GL215978   7.739  11.773   6.428 -0.0304 -0.0452 -0.2380
 1041loPI   C1A15979   8.154  11.776   6.732  0.1032  0.0705 -0.1066
 1041loPI   C2A15980   8.155  11.731   7.211 -0.1873 -0.4149  0.2533
 1041loPI   C3A15981   8.222  11.671   7.652  0.1770  0.0409 -0.2501
 1041loPI   C4A15982   8.310  11.631   8.073 -0.0494  0.0834  0.2619
 1041loPI   C5A15983   8.183  11.975   8.290 -0.0010  0.1934  0.3376
 1041loPI   C6A15984   8.393  12.038   8.687  0.2473  0.0975  0.1655
 1041loPI   C1B15985   7.686  11.664   6.926  0.0954 -0.2151  0.0213
 1041loPI   C2B15986   7.684  11.664   7.335  0.0906  0.1156  0.0409
 1041loPI   C3B15987   7.665  11.579   7.772 -0.2888 -0.0111 -0.0301
 1041loPI   C4B15988   7.861  11.597   8.159 -0.1352 -0.1654 -0.0919
 1042loPI    C115989  13.089  12.681   5.754 -0.1489 -0.2531  0.2087
 1042loPI    C215990  13.008  12.702   5.363 -0.1538 -0.0780  0.2182
 1042loPI    C315991  13.376  12.782   5.495 -0.0308 -0.5860  0.2050
 1042loPI   PO415992  13.045  12.466   5.798 -0.0430  0.0503 -0.0548
 1042loPI   GL115993  13.214  12.325   6.213  0.0082  0.0237 -0.1580
 1042loPI   GL215994  13.260  12.690   6.197 -0.1456  0.0617 -0.0265
 1042loPI   C1A15995  13.089  12.384   6.556  0.1799  0.0999 -0.1292
 1042loPI   C2A15996  13.092  12.351   7.008 -0.1938 -0.1218 -0.0840
 1042loPI   C3A15997  13.133  12.455   7.442 -0.1476  0.0686  0.1549
 1042loPI   C4A15998  13.119  12.468   7.840  0.1356  0.1068  0.0480
 1042loPI   C5A15999  12.994  12.596   8.183  0.2279 -0.1928 -0.2373
 1042loPI   C6A16000  12.662  12.840   8.337  0.2390  0.0751 -0.0105
 1042loPI   C1B16001  13.209  12.919   6.554  0.2104 -0.0915  0.1287
 1042loPI   C2B16002  13.317  12.880   7.006 -0.2292  0.2333  0.2511
 1042loPI   C3B16003  13.369  12.968   7.499 -0.0973  0.0428  0.1269
 1042loPI   C4B16004  13.326  12.958   7.944 -0.4634  0.0257  0.0336
 1043loPI    C116005   7.498   5.107   5.782  0.1295  0.1270 -0.2604
 1043loPI    C216006   7.207   4.878   5.630  0.2614 -0.1538 -0.0974
 1043loPI    C316007   7.530   4.963   5.410  0.1705 -0.0467 -0.1905
 1043loPI   PO416008   7.376   5.254   5.919 -0.0495 -0.1573 -0.2099
 1043loPI   GL116009   7.312   5.184   6.343  0.0158 -0.3565  0.0036
 1043loPI   GL216010   7.070   5.031   6.555  0.1801 -0.0153 -0.0957
 1043loPI   C1A16011   7.534   5.149   6.770  0.3063  0.0162  0.1554
 1043loPI   C2A16012   7.589   5.065   7.271 -0.1493  0.2267 -0.0532
 1043loPI   C3A16013   7.674   5.038   7.643 -0.1680 -0.0859  0.2796
 1043loPI   C4A16014   7.700   5.020   8.045 -0.3412 -0.1468 -0.1531
 1043loPI   C5A16015   7.575   4.770   8.371 -0.0101  0.1874 -0.1598
 1043loPI   C6A16016   7.473   4.402   8.533  0.2902 -0.1562 -0.4886
 1043loPI   C1B16017   7.146   4.887   6.949  0.1289 -0.1273  0.1550
 1043loPI   C2B16018   7.083   4.884   7.268 -0.3892  0.1819 -0.0565
 1043loPI   C3B16019   7.101   5.002   7.693 -0.2447  0.2047 -0.1063
 1043loPI   C4B16020   7.170   4.956   8.132 -0.0791  0.2674  0.0301
 1044loPI    C116021   8.054   3.465   6.043  0.0987 -0.0201  0.0518
 1044loPI    C216022   7.935   3.297   5.699 -0.1508  0.0641  0.0949
 1044loPI    C316023   7.964   3.075   6.031 -0.2006  0.0455  0.0870
 1044loPI   PO416024   7.939   3.680   6.076  0.0208 -0.0971 -0.1610
 1044loPI   GL116025   7.838   3.932   6.421  0.2804  0.2025  0.1192
 1044loPI   GL216026   8.100   3.716   6.531  0.2131  0.0137  0.1128
 1044loPI   C1A16027   7.773   4.139   6.844 -0.1299  0.0526  0.3106
 1044loPI   C2A16028   7.921   4.181   7.176 -0.1445  0.0746 -0.5690
 1044loPI   C3A16029   7.801   4.219   7.586 -0.0219 -0.0768  0.1636
 1044loPI   C4A16030   7.845   4.336   8.072 -0.2046  0.4412  0.3221
 1044loPI   C5A16031   8.011   4.495   8.493 -0.0008 -0.0030  0.3145
 1044loPI   C6A16032   8.437   4.234   8.702  0.2795 -0.4141 -0.3630
 1044loPI   C1B16033   8.274   3.743   7.013 -0.1097  0.0247 -0.1006
 1044loPI   C2B16034   8.274   3.841   7.392 -0.2722  0.0420 -0.0420
 1044loPI   C3B16035   8.123   3.896   7.779 -0.0332  0.0485 -0.0831
 1044loPI   C4B16036   8.233   3.899   8.216 -0.0020  0.1725 -0.2135
 1045loPI    C116037   4.806  15.254   6.071 -0.0248 -0.1848 -0.1729
 1045loPI    C216038   4.833  15.265   5.672 -0.2465 -0.0613 -0.1858
 1045loPI    C316039   4.757  15.600   5.877  0.2048 -0.0593 -0.0112
 1045loPI   PO416040   5.058  15.072   6.176 -0.1903 -0.0146  0.1422
 1045loPI   GL116041   5.183  14.793   6.408  0.1024  0.0724 -0.0924
 1045loPI   GL216042   5.221  14.485   6.528 -0.0975 -0.2174 -0.1789
 1045loPI   C1A16043   5.330  14.868   6.857  0.1701  0.3219  0.3849
 1045loPI   C2A16044   5.223  14.749   7.307 -0.2940 -0.1543 -0.0012
 1045loPI   C3A16045   5.292  14.708   7.777  0.1466 -0.1188  0.0862
 1045loPI   C4A16046   5.370  14.526   8.222  0.3731 -0.0260 -0.0001
 1045loPI   C5A16047   5.474  14.246   8.584  0.0286  0.1207  0.0343
 1045loPI   C6A16048   5.254  13.956   8.827 -0.0616  0.4459  0.1345
 1045loPI   C1B16049   5.102  14.291   6.931 -0.2954 -0.1067  0.0918
 1045loPI   C2B16050   5.105  14.295   7.330 -0.2242 -0.4260  0.0870
 1045loPI   C3B16051   5.176  14.257   7.803  0.0642 -0.0467 -0.0497
 1045loPI   C4B16052   5.177  14.071   8.209 -0.0778  0.0698 -0.0407
 1046loPI    C116053  11.748  16.292   5.455 -0.2174  0.1514 -0.1017
 1046loPI    C216054  12.126  16.188   5.537 -0.2966  0.1523  0.2806
 1046loPI    C316055  12.011  16.240   5.157  0.1123  0.2518  0.1656
 1046loPI   PO416056  11.706  16.523   5.628 -0.0343  0.0953 -0.2067
 1046loPI   GL116057  11.955  16.522   5.934  0.2938  0.3771 -0.0656
 1046loPI   GL216058  11.839  16.536   6.219 -0.0445 -0.0775 -0.0025
 1046loPI   C1A16059  12.323  16.446   6.188  0.0145 -0.0349 -0.0207
 1046loPI   C2A16060  12.510  16.421   6.572  0.2698  0.1224  0.0911
 1046loPI   C3A16061  12.458  16.328   7.042 -0.0737  0.3609  0.1810
 1046loPI   C4A16062  12.478  16.384   7.398 -0.1270 -0.3195 -0.0452
 1046loPI   C5A16063  12.564  16.472   7.741 -0.0572 -0.2599 -0.0550
 1046loPI   C6A16064  12.302  16.443   8.064 -0.0940 -0.0651 -0.0771
 1046loPI   C1B16065  11.918  16.263   6.558 -0.0903 -0.0591 -0.0812
 1046loPI   C2B16066  11.947  16.201   7.011  0.0116  0.1852 -0.1310
 1046loPI   C3B16067  11.997  16.264   7.499 -0.0751 -0.2432  0.1174
 1046loPI   C4B16068  11.889  16.192   7.947 -0.0609 -0.3764  0.0693
 1047loPI    C116069  10.257  17.032   5.815 -0.2495  0.0634 -0.0248
 1047loPI    C216070  10.152  17.077   5.432  0.0381  0.3193 -0.0777
 1047loPI    C316071  10.502  17.220   5.561  0.0720 -0.0173  0.2191
 1047loPI   PO416072  10.094  17.117   5.973  0.1973  0.1793  0.1118
 1047loPI   GL116073  10.077  17.194   6.464 -0.1070 -0.0289 -0.1182
 1047loPI   GL216074  10.362  17.370   6.616 -0.3113  0.0105 -0.3135
 1047loPI   C1A16075   9.914  17.119   6.875 -0.0825 -0.2362  0.0809
 1047loPI   C2A16076   9.888  17.142   7.334 -0.1270 -0.1038  0.2253
 1047loPI   C3A16077   9.730  17.205   7.665  0.1809 -0.1120 -0.1083
 1047loPI   C4A16078   9.766  17.073   8.005 -0.0699  0.1511  0.0530
 1047loPI   C5A16079   9.717  17.133   8.522  0.0197 -0.2211  0.0906
 1047loPI   C6A16080   9.897  16.954   8.809 -0.0440 -0.1201  0.3488
 1047loPI   C1B16081  10.401  17.224   6.887 -0.1473 -0.2302 -0.1854
 1047loPI   C2B16082  10.352  17.240   7.317 -0.2212 -0.2801  0.0106
 1047loPI   C3B16083  10.303  17.263   7.752 -0.2226 -0.2876  0.0174
 1047loPI   C4B16084  10.382  17.278   8.136 -0.3886  0.2907 -0.5535
 1048loPI    C116085  13.882   3.040   5.602  0.0799  0.1646  0.0693
 1048loPI    C216086  13.579   3.207   5.401 -0.0981 -0.0051  0.1916
 1048loPI    C316087  13.954   3.244   5.266 -0.1795  0.1509  0.0029
 1048loPI   PO416088  13.804   2.783   5.640  0.3424  0.0237  0.0737
 1048loPI   GL116089  13.754   2.759   6.072 -0.2870  0.1988  0.0869
 1048loPI   GL216090  13.570   2.523   6.254 -0.3098  0.1795 -0.1040
 1048loPI   C1A16091  13.853   2.840   6.539  0.3948  0.0315  0.0204
 1048loPI   C2A16092  13.831   2.779   6.942  0.2510  0.1524  0.1449
 1048loPI   C3A16093  13.775   2.862   7.382 -0.2562 -0.1196  0.1054
 1048loPI   C4A16094  13.616   2.752   7.747 -0.1649  0.0660 -0.2033
 1048loPI   C5A16095  13.644   2.676   8.160  0.3115  0.2595  0.0161
 1048loPI   C6A16096  13.577   2.679   8.569  0.1899 -0.1297  0.1153
 1048loPI   C1B16097  13.591   2.381   6.682 -0.2091 -0.1089  0.0777
 1048loPI   C2B16098  13.621   2.318   6.956  0.0295  0.0822  0.0278
 1048loPI   C3B16099  13.587   2.397   7.305  0.0509 -0.1713 -0.2093
 1048loPI   C4B16100  13.456   2.300   7.770 -0.0102  0.0302  0.2485
 1049loPI    C116101  10.887   0.733   5.774 -0.0433  0.0278 -0.0134
 1049loPI    C216102  10.548   0.737   5.562 -0.2420 -0.1657  0.2918
 1049loPI    C316103  10.877   0.569   5.409 -0.2939 -0.0223  0.0139
 1049loPI   PO416104  10.844   0.702   6.054 -0.2746  0.2865  0.0619
 1049loPI   GL116105  10.759   0.513   6.273  0.1102  0.0204 -0.1110
 1049loPI   GL216106  10.637   0.261   6.420  0.0340  0.2352  0.1330
 1049loPI   C1A16107  10.701   0.587   6.774  0.3501  0.0422  0.1012
 1049loPI   C2A16108  10.679   0.697   7.238 -0.3021 -0.0074 -0.1191
 1049loPI   C3A16109  10.639   0.742   7.672 -0.2533 -0.2437 -0.2871
 1049loPI   C4A16110  10.524   0.705   8.121 -0.2189 -0.0123  0.1306
 1049loPI   C5A16111  10.268   0.683   8.533  0.3419 -0.3514 -0.3005
 1049loPI   C6A16112   9.887   1.017   8.870  0.1618 -0.0431 -0.2542
 1049loPI   C1B16113  10.600   0.147   6.828  0.0323  0.0910  0.1435
 1049loPI   C2B16114  10.610   0.109   7.292  0.0815 -0.1057 -0.1191
 1049loPI   C3B16115  10.406   0.135   7.736 -0.0565 -0.0469 -0.0833
 1049loPI   C4B16116  10.396   0.211   8.105 -0.0323  0.4107  0.0196
 1050loPI    C116117   7.331   2.407   5.848 -0.1295  0.0030 -0.1067
 1050loPI    C216118   7.165   2.663   5.589  0.2975  0.2284 -0.1675
 1050loPI    C316119   7.517   2.493   5.504  0.2344 -0.0321  0.0766
 1050loPI   PO416120   7.289   2.440   6.111 -0.2615 -0.2373 -0.0086
 1050loPI   GL116121   7.216   2.288   6.528 -0.2473 -0.2439  0.1598
 1050loPI   GL216122   7.060   2.508   6.525  0.2375 -0.0218  0.5399
 1050loPI   C1A16123   7.341   2.203   6.946 -0.0319  0.1198  0.0740
 1050loPI   C2A16124   7.337   2.310   7.366 -0.3143  0.0596 -0.0022
 1050loPI   C3A16125   7.291   2.167   7.810 -0.0880  0.2494 -0.1191
 1050loPI   C4A16126   7.142   2.255   8.217  0.0689  0.3272  0.4580
 1050loPI   C5A16127   7.313   2.343   8.614  0.0071 -0.1575 -0.0340
 1050loPI   C6A16128   7.346   2.846   8.656  0.1666  0.0905  0.0307
 1050loPI   C1B16129   7.003   2.624   6.952 -0.0712 -0.1608  0.0520
 1050loPI   C2B16130   6.888   2.591   7.442 -0.2516  0.0552  0.1680
 1050loPI   C3B16131   7.021   2.528   7.737 -0.1447 -0.0776  0.1837
 1050loPI   C4B16132   6.811   2.562   8.061  0.2149  0.0942  0.2720
 1051loPI    C116133   3.204  11.994   5.800  0.2182 -0.2448  0.1790
 1051loPI    C216134   3.004  11.672   5.674 -0.0188  0.0467 -0.2126
 1051loPI    C316135   3.269  11.850   5.433  0.1980  0.0779  0.0447
 1051loPI   PO416136   3.195  12.022   6.010 -0.1364 -0.2069  0.0646
 1051loPI   GL116137   3.475  11.891   6.265 -0.1358  0.2363  0.0743
 1051loPI   GL216138   3.765  12.013   6.382 -0.2089 -0.4279  0.0250
 1051loPI   C1A16139   3.645  11.515   6.595  0.1206 -0.0245  0.0269
 1051loPI   C2A16140   3.700  11.578   6.960 -0.2494  0.2320  0.0446
 1051loPI   C3A16141   3.818  11.564   7.358  0.0233 -0.1657  0.1724
 1051loPI   C4A16142   3.772  11.530   7.771  0.2795 -0.0225 -0.5334
 1051loPI   C5A16143   3.799  11.642   8.166 -0.2487 -0.0383  0.0908
 1051loPI   C6A16144   3.713  11.836   8.491  0.1359 -0.0160 -0.1627
 1051loPI   C1B16145   3.806  12.040   6.808 -0.0734  0.0303  0.0136
 1051loPI   C2B16146   3.868  12.113   7.223  0.1676 -0.1052  0.0488
 1051loPI   C3B16147   3.973  12.059   7.691 -0.0018 -0.1559 -0.1776
 1051loPI   C4B16148   3.865  12.138   8.148  0.0012 -0.0262  0.0136
 1052loPI    C116149   9.709   6.351   5.678  0.1599  0.0385 -0.1078
 1052loPI    C216150   9.876   6.060   5.461 -0.0772  0.0341 -0.2875
 1052loPI    C316151   9.478   6.073   5.506 -0.0330  0.0465  0.1326
 1052loPI   PO416152   9.763   6.312   5.938 -0.1811  0.1040  0.1761
 1052loPI   GL116153   9.891   6.204   6.428  0.1604 -0.0204  0.2791
 1052loPI   GL216154   9.806   6.521   6.402 -0.0832 -0.4708 -0.2644
 1052loPI   C1A16155   9.884   6.074   6.923 -0.0034  0.0484  0.0707
 1052loPI   C2A16156   9.961   6.008   7.299  0.1131 -0.0252  0.1425
 1052loPI   C3A16157   9.890   6.039   7.695 -0.2481  0.2835  0.0793
 1052loPI   C4A16158   9.947   6.122   8.146 -0.0733  0.1692 -0.1405
 1052loPI   C5A16159   9.978   6.327   8.483  0.0685  0.0363  0.1001
 1052loPI   C6A16160  10.244   6.737   8.572 -0.1270  0.2290  0.0873
 1052loPI   C1B16161   9.926   6.602   6.784 -0.3951 -0.2026 -0.1222
 1052loPI   C2B16162   9.981   6.577   7.259  0.0739  0.1139  0.3404
 1052loPI   C3B16163   9.999   6.609   7.643  0.5143 -0.0268 -0.2710
 1052loPI   C4B16164  10.060   6.599   8.018  0.0058 -0.1507  0.0392
 1053loPI    C116165   7.280   8.855   5.559 -0.1130  0.0082 -0.0917
 1053loPI    C216166   6.956   8.940   5.340  0.0539  0.4014 -0.1965
 1053loPI    C316167   7.295   8.829   5.160  0.0279  0.1525 -0.0970
 1053loPI   PO416168   7.270   9.003   5.793 -0.0917  0.0875 -0.2466
 1053loPI   GL116169   7.091   9.084   6.156  0.1950  0.3041 -0.2607
 1053loPI   GL216170   6.919   8.793   6.282  0.2864  0.2132 -0.2039
 1053loPI   C1A16171   6.892   9.077   6.645  0.1823  0.0881  0.1195
 1053loPI   C2A16172   7.002   9.078   7.112  0.1260 -0.1646 -0.2793
 1053loPI   C3A16173   6.894   9.107   7.541 -0.2499 -0.1116  0.3924
 1053loPI   C4A16174   6.934   9.117   7.954 -0.4096  0.2706 -0.0091
 1053loPI   C5A16175   6.877   9.165   8.373  0.0762 -0.1244  0.2301
 1053loPI   C6A16176   6.650   9.457   8.332 -0.0557  0.1817  0.2386
 1053loPI   C1B16177   7.201   8.663   6.525 -0.0831 -0.1656  0.0659
 1053loPI   C2B16178   7.294   8.634   6.985  0.0604 -0.0753 -0.1000
 1053loPI   C3B16179   7.203   8.724   7.457 -0.0766  0.0161 -0.1970
 1053loPI   C4B16180   7.320   8.793   7.944 -0.0177 -0.0535 -0.0719
 1054loPI    C116181   2.545   6.635   5.961  0.1342 -0.2375  0.1921
 1054loPI    C216182   2.736   6.412   5.689 -0.1027 -0.4060  0.1609
 1054loPI    C316183   2.731   6.811   5.654  0.2126 -0.4008  0.1447
 1054loPI   PO416184   2.604   6.516   6.252  0.0730 -0.1350  0.2464
 1054loPI   GL116185   2.362   6.572   6.595 -0.1736 -0.0675  0.0446
 1054loPI   GL216186   2.553   6.791   6.681 -0.1094  0.1298  0.0630
 1054loPI   C1A16187   2.464   6.453   7.041 -0.0750 -0.0566 -0.1725
 1054loPI   C2A16188   2.435   6.514   7.506 -0.1220 -0.2794 -0.1372
 1054loPI   C3A16189   2.398   6.518   7.895 -0.2084  0.0076 -0.0067
 1054loPI   C4A16190   2.238   6.631   8.210  0.3592  0.1250 -0.0133
 1054loPI   C5A16191   2.344   6.791   8.657  0.1968  0.0372 -0.1005
 1054loPI   C6A16192   2.584   6.648   9.048 -0.0616 -0.1734  0.4891
 1054loPI   C1B16193   2.587   7.075   7.088  0.0631  0.1624  0.0627
 1054loPI   C2B16194   2.485   7.041   7.559 -0.1937 -0.0233  0.1074
 1054loPI   C3B16195   2.546   7.068   7.960 -0.1405 -0.0969  0.0543
 1054loPI   C4B16196   2.463   7.203   8.451 -0.1317  0.2490  0.2135
 1055loPI    C116197   2.146  15.910   5.886  0.0126 -0.1101 -0.2174
 1055loPI    C216198   2.001  16.153   5.604 -0.1543  0.0443 -0.0022
 1055loPI    C316199   2.396  16.131   5.666 -0.1256  0.1099 -0.1567
 1055loPI   PO416200   1.938  15.954   6.060 -0.0022  0.1472  0.0790
 1055loPI   GL116201   1.851  15.901   6.439  0.1627 -0.1041  0.2172
 1055loPI   GL216202   1.907  16.245   6.509  0.0045 -0.2622 -0.0049
 1055loPI   C1A16203   1.752  15.749   6.756 -0.0970  0.0310  0.1607
 1055loPI   C2A16204   1.762  15.802   7.219  0.0679 -0.0421  0.0266
 1055loPI   C3A16205   1.745  15.807   7.647 -0.1565  0.0418  0.4632
 1055loPI   C4A16206   1.773  15.674   8.073 -0.0956 -0.0613 -0.0598
 1055loPI   C5A16207   1.655  15.754   8.421 -0.0018  0.2455 -0.1353
 1055loPI   C6A16208   1.476  15.870   8.826  0.0614 -0.2960  0.3779
 1055loPI   C1B16209   1.876  16.257   7.012 -0.2257  0.1405 -0.0106
 1055loPI   C2B16210   1.948  16.260   7.420  0.2359  0.2400 -0.2562
 1055loPI   C3B16211   1.911  16.240   7.907  0.0146 -0.1870  0.1459
 1055loPI   C4B16212   2.001  16.074   8.322 -0.2670 -0.1626 -0.0360
 1056loPI    C116213   2.593   1.748   5.763  0.0782 -0.0894  0.1860
 1056loPI    C216214   2.605   1.823   5.370  0.1561  0.2785  0.2547
 1056loPI    C316215   2.929   1.681   5.557  0.0119 -0.2440  0.1261
 1056loPI   PO416216   2.453   1.957   5.852  0.1086  0.0746 -0.0329
 1056loPI   GL116217   2.676   2.241   6.113  0.1838 -0.0855  0.0123
 1056loPI   GL216218   2.509   2.146   6.356 -0.0206 -0.2512  0.1700
 1056loPI   C1A16219   2.987   2.176   6.451 -0.0080  0.1128  0.0664
 1056loPI   C2A16220   2.976   2.231   6.955  0.2162 -0.2294 -0.1173
 1056loPI   C3A16221   2.914   2.156   7.386  0.1623  0.1827 -0.0669
 1056loPI   C4A16222   2.991   2.086   7.783 -0.2450  0.0937  0.0684
 1056loPI   C5A16223   2.917   2.050   8.196 -0.0145 -0.1486 -0.2251
 1056loPI   C6A16224   2.943   2.020   8.588 -0.0999  0.1506  0.3301
 1056loPI   C1B16225   2.420   2.081   6.786 -0.2014  0.0770 -0.1765
 1056loPI   C2B16226   2.414   2.110   7.237  0.1991 -0.0495  0.3655
 1056loPI   C3B16227   2.475   2.030   7.605 -0.1624 -0.1286 -0.0673
 1056loPI   C4B16228   2.409   1.976   8.043  0.1204 -0.0488  0.1168
 1057loPI    C116229   2.218   3.562   5.590 -0.1951  0.0304  0.1531
 1057loPI    C216230   2.590   3.697   5.533 -0.1113 -0.0597  0.4638
 1057loPI    C316231   2.395   3.515   5.235  0.0845  0.0066  0.2931
 1057loPI   PO416232   2.252   3.408   5.834 -0.2630 -0.1494  0.0561
 1057loPI   GL116233   2.323   3.395   6.263  0.1079 -0.0669 -0.0269
 1057loPI   GL216234   2.068   3.636   6.244  0.0764 -0.0024 -0.1167
 1057loPI   C1A16235   2.330   3.339   6.621 -0.0649 -0.0197  0.1748
 1057loPI   C2A16236   2.389   3.283   7.033 -0.0152 -0.0808  0.4521
 1057loPI   C3A16237   2.391   3.432   7.482 -0.2217  0.2270 -0.3474
 1057loPI   C4A16238   2.356   3.406   7.963  0.0114  0.0502 -0.1271
 1057loPI   C5A16239   2.446   3.300   8.390  0.2867 -0.0880  0.1117
 1057loPI   C6A16240   2.567   3.423   8.709 -0.0533  0.0725 -0.0635
 1057loPI   C1B16241   2.023   3.701   6.671 -0.0125  0.1144 -0.0208
 1057loPI   C2B16242   2.031   3.799   7.148 -0.1593 -0.1539 -0.0407
 1057loPI   C3B16243   1.954   3.777   7.615  0.0239 -0.1364 -0.2350
 1057loPI   C4B16244   1.876   3.703   8.020  0.1651 -0.0886  0.1065
 1058loPI    C116245   5.050   9.482   5.572  0.0396  0.1142  0.0573
 1058loPI    C216246   5.298   9.262   5.348 -0.2399 -0.2124  0.0612
 1058loPI    C316247   5.150   9.605   5.204  0.1546 -0.0486  0.0332
 1058loPI   PO416248   5.167   9.598   5.782 -0.2666  0.0531 -0.2740
 1058loPI   GL116249   5.375   9.649   6.234  0.0735  0.0212  0.2216
 1058loPI   GL216250   5.193   9.401   6.306  0.3070  0.1290 -0.2369
 1058loPI   C1A16251   5.499   9.752   6.639  0.3786 -0.0054 -0.1198
 1058loPI   C2A16252   5.749   9.808   6.961  0.4124  0.2740  0.0687
 1058loPI   C3A16253   5.652   9.725   7.473 -0.1510  0.1914 -0.4171
 1058loPI   C4A16254   5.678   9.796   7.964  0.1537  0.4167 -0.0618
 1058loPI   C5A16255   5.860   9.876   8.356 -0.2408 -0.1487  0.0731
 1058loPI   C6A16256   6.057   9.602   8.689  0.0328 -0.0173  0.0703
 1058loPI   C1B16257   5.055   9.111   6.611  0.2050  0.2637  0.2101
 1058loPI   C2B16258   5.082   9.109   7.039 -0.2528  0.2772 -0.2855
 1058loPI   C3B16259   5.148   9.039   7.481  0.0533  0.1105 -0.2298
 1058loPI   C4B16260   5.077   9.133   7.825 -0.0086 -0.0483 -0.0404
 1059loPI    C116261  13.755   1.176   5.705  0.2074 -0.2684 -0.1548
 1059loPI    C216262  13.717   1.069   5.322 -0.1177 -0.0387 -0.1917
 1059loPI    C316263  13.628   1.442   5.434 -0.0711 -0.1180  0.1168
 1059loPI   PO416264  13.951   0.972   5.822  0.1932 -0.1608 -0.1008
 1059loPI   GL116265  14.211   0.921   6.148  0.1530  0.3156 -0.0251
 1059loPI   GL216266  13.857   0.707   6.202  0.2819  0.0521 -0.2615
 1059loPI   C1A16267  14.125   1.022   6.616  0.0139  0.2292  0.0733
 1059loPI   C2A16268  14.160   0.935   7.045  0.0294  0.0498  0.0042
 1059loPI   C3A16269  13.999   1.063   7.427 -0.0661  0.0637  0.0860
 1059loPI   C4A16270  13.949   1.024   7.827 -0.0296 -0.1930 -0.2016
 1059loPI   C5A16271  14.136   1.047   8.187  0.3202 -0.2183  0.1045
 1059loPI   C6A16272  14.098   1.262   8.546 -0.0142 -0.2487  0.1720
 1059loPI   C1B16273  13.994   0.524   6.631 -0.1690  0.3339 -0.0208
 1059loPI   C2B16274  13.983   0.484   7.058 -0.3203 -0.2311 -0.1078
 1059loPI   C3B16275  13.892   0.563   7.533  0.0575  0.2907  0.2866
 1059loPI   C4B16276  13.881   0.550   8.047  0.2703 -0.0735 -0.0501
 1060loPI    C116277  15.138   7.921   5.968  0.2880 -0.0544 -0.1016
 1060loPI    C216278  14.971   7.733   5.657 -0.2661  0.2328  0.0109
 1060loPI    C316279  15.128   8.098   5.610  0.0820  0.0820 -0.0296
 1060loPI   PO416280  14.953   7.770   6.178  0.4634 -0.0690 -0.0524
 1060loPI   GL116281  14.929   7.466   6.546  0.0491 -0.1353 -0.2186
 1060loPI   GL216282  14.656   7.468   6.617  0.0649 -0.1081 -0.1026
 1060loPI   C1A16283  14.950   7.357   7.077  0.1187 -0.3222 -0.0407
 1060loPI   C2A16284  15.063   7.255   7.388  0.0893 -0.1221  0.0771
 1060loPI   C3A16285  15.032   7.362   7.786 -0.0581 -0.4608 -0.1710
 1060loPI   C4A16286  14.968   7.344   8.229 -0.2101 -0.3430  0.3408
 1060loPI   C5A16287  15.171   7.264   8.559 -0.0779 -0.0861 -0.0026
 1060loPI   C6A16288  15.445   7.339   9.009  0.2181  0.0017 -0.0023
 1060loPI   C1B16289  14.423   7.334   7.010  0.1072 -0.0557  0.3116
 1060loPI   C2B16290  14.494   7.160   7.394  0.4056  0.0893 -0.0829
 1060loPI   C3B16291  14.549   7.158   7.831  0.0986 -0.0238  0.2557
 1060loPI   C4B16292  14.626   7.003   8.308  0.0040  0.0301 -0.0188
 1061loPI    C116293  11.011   4.229   5.948 -0.0062 -0.2180 -0.0955
 1061loPI    C216294  11.021   4.525   5.679  0.0985 -0.0158  0.1265
 1061loPI    C316295  10.688   4.308   5.726 -0.0336  0.1736  0.0752
 1061loPI   PO416296  11.123   4.309   6.117  0.1884  0.1179 -0.0419
 1061loPI   GL116297  10.981   4.539   6.514  0.0665  0.1137  0.5413
 1061loPI   GL216298  11.338   4.482   6.593  0.3370 -0.0472 -0.3771
 1061loPI   C1A16299  10.853   4.407   7.083  0.3672  0.1389  0.2290
 1061loPI   C2A16300  10.758   4.415   7.438  0.0875  0.0677  0.0759
 1061loPI   C3A16301  10.786   4.483   7.865  0.0575 -0.0513  0.2966
 1061loPI   C4A16302  10.815   4.507   8.300  0.3190  0.2665  0.1497
 1061loPI   C5A16303  11.054   4.645   8.695  0.2843 -0.2299  0.2692
 1061loPI   C6A16304  11.327   4.996   8.901  0.0630  0.0527  0.0399
 1061loPI   C1B16305  11.391   4.590   6.947  0.2093 -0.0696 -0.0163
 1061loPI   C2B16306  11.303   4.565   7.455  0.0234 -0.1638  0.0153
 1061loPI   C3B16307  11.281   4.593   7.813  0.0491  0.3132  0.1821
 1061loPI   C4B16308  11.416   4.534   8.307 -0.1971 -0.3340 -0.1319
 1062loPI    C116309  15.515   5.099   5.807 -0.2176 -0.1613 -0.0086
 1062loPI    C216310  15.482   5.368   5.513 -0.3060 -0.0023  0.1453
 1062loPI    C316311  15.163   5.153   5.624 -0.2560 -0.1112  0.0799
 1062loPI   PO416312  15.572   5.210   6.020  0.3192  0.0044  0.0554
 1062loPI   GL116313  15.290   5.353   6.416  0.2899  0.2823  0.2973
 1062loPI   GL216314  15.280   5.008   6.452 -0.0983  0.0741  0.1275
 1062loPI   C1A16315  15.486   5.666   6.625  0.3029 -0.1921  0.2007
 1062loPI   C2A16316  15.403   5.622   7.053 -0.2069  0.1484 -0.1279
 1062loPI   C3A16317  15.554   5.541   7.415 -0.1124 -0.2072 -0.1613
 1062loPI   C4A16318  15.403   5.516   7.767  0.0320  0.2160 -0.2743
 1062loPI   C5A16319  15.339   5.262   8.212 -0.1037 -0.1764  0.1538
 1062loPI   C6A16320  15.092   5.053   8.525 -0.0338  0.4463 -0.1308
 1062loPI   C1B16321  15.228   5.201   6.931  0.4022  0.4924  0.1813
 1062loPI   C2B16322  15.234   5.129   7.388 -0.3237 -0.2126 -0.1047
 1062loPI   C3B16323  15.150   4.965   7.816 -0.0119 -0.0452 -0.1783
 1062loPI   C4B16324  15.388   4.743   8.186 -0.0402 -0.0978  0.1202
 1063loPI    C116325   3.639   5.923   6.024  0.0798 -0.1704  0.1723
 1063loPI    C216326   3.984   6.107   6.110  0.0535 -0.1787  0.2968
 1063loPI    C316327   3.813   6.161   5.752  0.1170 -0.0712  0.2820
 1063loPI   PO416328   3.400   5.918   6.180 -0.0357  0.1902  0.0876
 1063loPI   GL116329   3.312   5.844   6.623 -0.4481  0.1733  0.0325
 1063loPI   GL216330   3.103   5.977   6.854  0.1548 -0.2621 -0.2829
 1063loPI   C1A16331   3.600   5.928   7.007 -0.2448  0.2593 -0.0211
 1063loPI   C2A16332   3.699   5.994   7.406  0.1714 -0.2113  0.3194
 1063loPI   C3A16333   3.705   5.921   7.868 -0.2329 -0.0468  0.2510
 1063loPI   C4A16334   3.770   5.917   8.347 -0.1101 -0.0358  0.0778
 1063loPI   C5A16335   3.507   6.165   8.641  0.2710 -0.1871  0.1034
 1063loPI   C6A16336   3.257   6.231   8.908 -0.0038 -0.1200  0.1097
 1063loPI   C1B16337   2.771   6.157   7.287 -0.0380 -0.1384  0.2546
 1063loPI   C2B16338   2.786   6.195   7.715 -0.0932 -0.1023 -0.1189
 1063loPI   C3B16339   2.680   6.318   8.261  0.0327 -0.0249 -0.3559
 1063loPI   C4B16340   2.836   6.222   8.688 -0.0683  0.3240  0.1569
 1064loPI    C116341   2.471  13.700   6.125 -0.4412 -0.0329  0.0751
 1064loPI    C216342   2.405  14.031   5.911  0.0368  0.1710  0.2290
 1064loPI    C316343   2.452  13.679   5.726  0.1683  0.2974  0.0172
 1064loPI   PO416344   2.649  13.762   6.294  0.4650 -0.3131  0.0814
 1064loPI   GL116345   2.803  14.110   6.520  0.0178 -0.0338 -0.0540
 1064loPI   GL216346   2.533  14.229   6.377  0.1698  0.0351 -0.0912
 1064loPI   C1A16347   2.612  14.079   6.960  0.0081  0.2075  0.0523
 1064loPI   C2A16348   2.566  14.071   7.283 -0.0661  0.0515  0.0443
 1064loPI   C3A16349   2.724  14.033   7.668 -0.1576 -0.2196  0.0157
 1064loPI   C4A16350   2.620  14.155   8.089  0.0211 -0.0763 -0.0453
 1064loPI   C5A16351   2.559  14.494   8.360  0.0776  0.3087 -0.0314
 1064loPI   C6A16352   2.221  14.549   8.536 -0.3856  0.2852  0.1058
 1064loPI   C1B16353   2.333  14.511   6.603 -0.1952 -0.1434 -0.1043
 1064loPI   C2B16354   2.309  14.455   7.084  0.0490 -0.1333 -0.1937
 1064loPI   C3B16355   2.332  14.435   7.515  0.0501  0.1522  0.1341
 1064loPI   C4B16356   2.388  14.503   7.844 -0.1161 -0.0176 -0.5718
 1065loPI    C116357   6.123   4.109   5.700 -0.1103  0.0255  0.1211
 1065loPI    C216358   6.126   3.856   5.390  0.1396  0.0509  0.1014
 1065loPI    C316359   6.098   4.250   5.326  0.1388  0.0527  0.1132
 1065loPI   PO416360   6.177   3.943   5.871  0.1965 -0.4276  0.3137
 1065loPI   GL116361   6.313   4.003   6.355  0.0972 -0.0322  0.2304
 1065loPI   GL216362   5.982   3.979   6.337  0.0388  0.1141 -0.0412
 1065loPI   C1A16363   6.295   3.836   6.833  0.1058  0.0377  0.0609
 1065loPI   C2A16364   6.305   3.820   7.235  0.1716  0.1742  0.2018
 1065loPI   C3A16365   6.267   3.796   7.688  0.0627  0.1295  0.4153
 1065loPI   C4A16366   6.217   3.752   8.096  0.1879 -0.1340 -0.0829
 1065loPI   C5A16367   6.127   4.074   8.337 -0.1001 -0.1223  0.1185
 1065loPI   C6A16368   5.877   4.362   8.479  0.0381 -0.3240  0.0637
 1065loPI   C1B16369   5.934   4.153   6.706 -0.0004  0.0027 -0.0781
 1065loPI   C2B16370   5.912   4.077   7.055  0.0422  0.1525  0.0815
 1065loPI   C3B16371   5.971   4.125   7.496 -0.3141  0.3752  0.2832
 1065loPI   C4B16372   5.870   4.093   7.923  0.1286  0.1150  0.1499
 1066loPI    C116373   5.508   4.496   5.789 -0.0964 -0.0705  0.0507
 1066loPI    C216374   5.655   4.549   5.421 -0.0614  0.0736  0.0845
 1066loPI    C316375   5.467   4.849   5.606  0.1273  0.0757  0.2762
 1066loPI   PO416376   5.699   4.312   5.948  0.0643  0.3891 -0.2555
 1066loPI   GL116377   5.501   4.334   6.322 -0.0140  0.1334  0.1035
 1066loPI   GL216378   5.485   4.003   6.365 -0.0900 -0.0879 -0.1475
 1066loPI   C1A16379   5.612   4.523   6.669 -0.0350 -0.1566  0.1348
 1066loPI   C2A16380   5.663   4.477   7.063 -0.0218 -0.3276 -0.0022
 1066loPI   C3A16381   5.654   4.502   7.501  0.1472 -0.0711 -0.1160
 1066loPI   C4A16382   5.478   4.616   7.981 -0.2351 -0.0713  0.3967
 1066loPI   C5A16383   5.379   4.693   8.394 -0.2052  0.1346 -0.0329
 1066loPI   C6A16384   5.342   4.979   8.646 -0.2309 -0.1002  0.2944
 1066loPI   C1B16385   5.387   4.009   6.754  0.0670 -0.0648  0.0088
 1066loPI   C2B16386   5.441   4.041   7.214 -0.1272  0.0545  0.0806
 1066loPI   C3B16387   5.484   3.971   7.668  0.2363 -0.4625  0.1707
 1066loPI   C4B16388   5.410   4.116   8.103  0.2128  0.1232  0.2529
 1067loPI    C116389   1.402   0.028   5.733 -0.1203 -0.2181  0.2157
 1067loPI    C216390   1.173   0.230   5.474  0.0853 -0.0927  0.1293
 1067loPI    C316391   1.288  -0.144   5.391  0.2910  0.0063 -0.0429
 1067loPI   PO416392   1.263   0.097   5.959  0.2630  0.3095 -0.1440
 1067loPI   GL116393   1.451   0.229   6.337  0.3088  0.4812 -0.0613
 1067loPI   GL216394   1.301   0.550   6.369  0.0179 -0.2874 -0.1640
 1067loPI   C1A16395   1.104   0.287   6.717  0.2005 -0.0455  0.2089
 1067loPI   C2A16396   0.929   0.265   7.168 -0.0890 -0.1144 -0.2410
 1067loPI   C3A16397   1.019   0.307   7.578  0.0195  0.0461 -0.3244
 1067loPI   C4A16398   0.928   0.312   7.956  0.0424 -0.0742  0.2424
 1067loPI   C5A16399   0.973   0.121   8.309  0.0752 -0.0685 -0.0394
 1067loPI   C6A16400   1.387   0.059   8.572  0.2366 -0.0367  0.2061
 1067loPI   C1B16401   1.482   0.468   6.917 -0.0584 -0.1289 -0.0045
 1067loPI   C2B16402   1.514   0.352   7.331  0.0293  0.0999 -0.1447
 1067loPI   C3B16403   1.440   0.392   7.791 -0.0104 -0.0140 -0.1178
 1067loPI   C4B16404   1.447   0.414   8.267 -0.3806  0.1443  0.0276
 1068loPI    C116405   1.836  12.682   5.969 -0.1717  0.0017  0.0441
 1068loPI    C216406   1.848  12.284   6.010 -0.0100 -0.0075 -0.0799
 1068loPI    C316407   1.980  12.454   5.673  0.1033  0.1642  0.0492
 1068loPI   PO416408   1.910  12.843   6.150  0.1249 -0.1532 -0.1308
 1068loPI   GL116409   1.832  12.907   6.481  0.1915  0.0437 -0.2808
 1068loPI   GL216410   2.272  12.919   6.488  0.3104 -0.1795  0.1633
 1068loPI   C1A16411   1.760  12.856   6.828 -0.1260 -0.0607 -0.0932
 1068loPI   C2A16412   1.804  13.037   7.221 -0.0027 -0.0802  0.1022
 1068loPI   C3A16413   1.893  13.062   7.646  0.0187 -0.1812  0.0603
 1068loPI   C4A16414   1.822  13.013   8.033  0.0023 -0.2395  0.0393
 1068loPI   C5A16415   1.919  13.001   8.432 -0.0419 -0.1783  0.2736
 1068loPI   C6A16416   1.762  12.813   8.853 -0.1673  0.1329 -0.0529
 1068loPI   C1B16417   2.248  13.048   6.955  0.0591  0.1007  0.1116
 1068loPI   C2B16418   2.355  13.114   7.454 -0.2451  0.2226 -0.0127
 1068loPI   C3B16419   2.382  13.136   7.838 -0.1831 -0.2345  0.0761
 1068loPI   C4B16420   2.457  13.183   8.258  0.1328 -0.0182 -0.1654
 1069loPI    C116421  16.235   1.112   5.592 -0.0466 -0.0933  0.2977
 1069loPI    C216422  15.984   1.031   5.291  0.2955 -0.2613  0.0513
 1069loPI    C316423  15.930   1.359   5.513 -0.1389 -0.2956  0.0042
 1069loPI   PO416424  16.294   0.898   5.710  0.0330  0.2905 -0.0919
 1069loPI   GL116425  16.299   0.802   6.119 -0.1402  0.0531  0.2161
 1069loPI   GL216426  16.090   0.566   6.088  0.2723 -0.0398 -0.0942
 1069loPI   C1A16427  16.340   0.600   6.575 -0.0585 -0.2679 -0.1427
 1069loPI   C2A16428  16.294   0.638   7.062  0.0114  0.0608  0.2193
 1069loPI   C3A16429  16.264   0.710   7.455 -0.1975  0.0830  0.0296
 1069loPI   C4A16430  16.258   0.760   7.897  0.0465  0.2072  0.1225
 1069loPI   C5A16431  16.259   0.716   8.240  0.2919  0.0535  0.0808
 1069loPI   C6A16432  16.513   0.755   8.611  0.0747  0.3155  0.2024
 1069loPI   C1B16433  15.795   0.607   6.393  0.1545 -0.0320  0.0804
 1069loPI   C2B16434  15.822   0.574   6.750 -0.2555 -0.1972 -0.1394
 1069loPI   C3B16435  15.797   0.474   7.277  0.0105  0.1539 -0.3496
 1069loPI   C4B16436  15.792   0.664   7.712  0.0696 -0.2018 -0.5181
 1070loPI    C116437  14.849   8.479   6.101 -0.0798 -0.0878 -0.0287
 1070loPI    C216438  14.677   8.135   5.990 -0.2490  0.0048 -0.0570
 1070loPI    C316439  14.748   8.420   5.718 -0.2866  0.0690  0.0003
 1070loPI   PO416440  14.786   8.455   6.411  0.3449  0.0466 -0.1729
 1070loPI   GL116441  14.466   8.465   6.743  0.0396  0.0455 -0.0266
 1070loPI   GL216442  14.744   8.359   6.899  0.1136 -0.1884  0.0673
 1070loPI   C1A16443  14.472   7.959   6.946  0.2129  0.0950  0.2680
 1070loPI   C2A16444  14.531   7.650   7.361  0.1582 -0.4068 -0.0292
 1070loPI   C3A16445  14.579   7.684   7.763  0.1546 -0.0652  0.3335
 1070loPI   C4A16446  14.592   7.680   8.173 -0.3181 -0.1008 -0.1531
 1070loPI   C5A16447  14.819   7.618   8.568  0.1744 -0.1154 -0.0892
 1070loPI   C6A16448  15.156   7.655   8.823 -0.3203 -0.4180  0.0228
 1070loPI   C1B16449  14.571   8.375   7.361  0.0137  0.3474 -0.0518
 1070loPI   C2B16450  14.712   8.274   7.713 -0.0064  0.1086 -0.0407
 1070loPI   C3B16451  14.691   8.273   8.156  0.1048 -0.2728  0.0430
 1070loPI   C4B16452  14.488   8.014   8.522 -0.0070  0.0857  0.3817
 1071loPI    C116453   5.849  12.546   5.998 -0.0249  0.2398  0.0359
 1071loPI    C216454   5.766  12.642   5.619  0.1088  0.0986 -0.0305
 1071loPI    C316455   5.636  12.295   5.770  0.0814  0.1411  0.0439
 1071loPI   PO416456   6.082  12.576   6.020 -0.1755  0.1049 -0.0382
 1071loPI   GL116457   6.431  12.596   6.260  0.1350  0.1898 -0.0556
 1071loPI   GL216458   6.453  12.869   6.529  0.0846 -0.3987  0.1148
 1071loPI   C1A16459   6.315  12.390   6.657 -0.3245 -0.1466 -0.2802
 1071loPI   C2A16460   6.321  12.380   7.092 -0.0460  0.2803  0.1764
 1071loPI   C3A16461   6.465  12.308   7.351 -0.0624  0.0531 -0.3208
 1071loPI   C4A16462   6.470  12.185   7.779 -0.0356 -0.0488 -0.1990
 1071loPI   C5A16463   6.345  12.206   8.177  0.1295 -0.2032 -0.0567
 1071loPI   C6A16464   6.228  11.894   8.529  0.0874 -0.3750 -0.0932
 1071loPI   C1B16465   6.383  12.808   6.880  0.0640 -0.0650 -0.5142
 1071loPI   C2B16466   6.570  12.825   7.268  0.0116 -0.4084 -0.0205
 1071loPI   C3B16467   6.597  12.739   7.719 -0.0920 -0.2678  0.0407
 1071loPI   C4B16468   6.578  12.636   8.284 -0.1506  0.1900 -0.1268
 1072loPI    C116469   4.802   2.922   6.098 -0.1541 -0.0187  0.0154
 1072loPI    C216470   4.966   2.944   5.734  0.0078 -0.0696  0.0842
 1072loPI    C316471   5.112   2.687   6.004  0.1932  0.2945  0.3399
 1072loPI   PO416472   4.546   3.038   6.081  0.0208 -0.0019  0.1779
 1072loPI   GL116473   4.262   3.185   6.321  0.0949 -0.0001 -0.0013
 1072loPI   GL216474   4.118   2.924   6.476 -0.0253  0.0508  0.0296
 1072loPI   C1A16475   4.241   3.362   6.729 -0.0087  0.0574  0.0739
 1072loPI   C2A16476   4.230   3.338   7.131  0.1289  0.1507  0.0876
 1072loPI   C3A16477   4.250   3.423   7.566  0.2168 -0.3024 -0.1016
 1072loPI   C4A16478   4.227   3.434   8.037 -0.0725  0.1870 -0.4930
 1072loPI   C5A16479   4.380   3.371   8.469  0.3619  0.3199  0.1201
 1072loPI   C6A16480   4.562   3.444   8.928 -0.2058  0.2129  0.0672
 1072loPI   C1B16481   4.125   2.877   6.888 -0.1293 -0.2113  0.2237
 1072loPI   C2B16482   4.091   2.897   7.437 -0.2131  0.0480  0.3130
 1072loPI   C3B16483   4.148   3.017   7.814  0.2182  0.3484 -0.1970
 1072loPI   C4B16484   4.205   2.777   8.123  0.1129 -0.0152 -0.0857
 1073loPI    C116485  14.863   5.942   5.720  0.1025 -0.0655 -0.0265
 1073loPI    C216486  14.976   5.628   5.501  0.1869 -0.0920  0.0544
 1073loPI    C316487  14.600   5.761   5.480  0.1347 -0.2366  0.0658
 1073loPI   PO416488  14.906   5.913   5.911  0.0916  0.0051 -0.0197
 1073loPI   GL116489  14.898   5.785   6.315  0.2355 -0.2103 -0.0147
 1073loPI   GL216490  15.130   5.844   6.347 -0.2427  0.2623  0.0351
 1073loPI   C1A16491  14.966   5.547   6.772 -0.2630 -0.3199  0.1024
 1073loPI   C2A16492  14.850   5.473   7.189 -0.0084 -0.1105 -0.1988
 1073loPI   C3A16493  14.876   5.407   7.591  0.3159  0.1588 -0.1382
 1073loPI   C4A16494  14.836   5.449   8.044 -0.2692  0.0897 -0.2195
 1073loPI   C5A16495  14.950   5.528   8.530  0.1385 -0.1374  0.2661
 1073loPI   C6A16496  14.716   5.647   8.916  0.1426 -0.2056 -0.0020
 1073loPI   C1B16497  15.025   6.030   6.753 -0.1781  0.0253 -0.0749
 1073loPI   C2B16498  15.036   5.978   7.131  0.1280 -0.2178  0.3972
 1073loPI   C3B16499  15.125   5.895   7.570  0.0207 -0.0003 -0.1550
 1073loPI   C4B16500  15.187   5.827   8.104  0.1959 -0.3351 -0.1859
 1074loPI    C116501   8.074   8.553   5.754  0.1834  0.0772 -0.2299
 1074loPI    C216502   7.689   8.568   5.647  0.1350 -0.1052 -0.0865
 1074loPI    C316503   7.957   8.391   5.408  0.1319  0.0286 -0.1899
 1074loPI   PO416504   7.929   8.476   6.055 -0.0874 -0.0094  0.1598
 1074loPI   GL116505   7.904   8.783   6.368 -0.0174  0.1006 -0.1469
 1074loPI   GL216506   7.578   8.876   6.225 -0.1021 -0.0505 -0.0692
 1074loPI   C1A16507   7.729   8.911   6.851 -0.0647 -0.1049  0.1324
 1074loPI   C2A16508   7.637   8.887   7.252  0.0459 -0.2392  0.1441
 1074loPI   C3A16509   7.869   8.921   7.718 -0.0005 -0.0008  0.0771
 1074loPI   C4A16510   7.792   8.918   8.181  0.1339  0.2215 -0.0750
 1074loPI   C5A16511   7.755   9.058   8.669  0.2161 -0.1484 -0.1253
 1074loPI   C6A16512   7.428   9.113   8.857 -0.0249 -0.2561  0.1063
 1074loPI   C1B16513   7.410   9.183   6.599  0.1046 -0.2048  0.3335
 1074loPI   C2B16514   7.404   9.327   7.058 -0.2374  0.1142 -0.1547
 1074loPI   C3B16515   7.464   9.230   7.539  0.0037 -0.0619  0.1818
 1074loPI   C4B16516   7.425   9.266   7.947 -0.2316 -0.0588 -0.1645
 1075loPI    C116517   2.983   3.225   5.829  0.3120 -0.1401 -0.0920
 1075loPI    C216518   3.035   3.072   5.463 -0.0581  0.0510 -0.2298
 1075loPI    C316519   2.687   3.244   5.560  0.0525  0.0427  0.1998
 1075loPI   PO416520   2.988   3.123   6.023 -0.2532  0.0789 -0.0053
 1075loPI   GL116521   2.790   3.206   6.377 -0.0272  0.1675  0.0644
 1075loPI   GL216522   2.991   3.455   6.399  0.2282  0.0534  0.0798
 1075loPI   C1A16523   2.714   3.001   6.867  0.0009 -0.2160 -0.0091
 1075loPI   C2A16524   2.758   3.053   7.362  0.0336 -0.3014  0.2634
 1075loPI   C3A16525   2.751   2.991   7.744 -0.0305 -0.1033 -0.0712
 1075loPI   C4A16526   2.847   2.979   8.199  0.3542  0.0644 -0.1221
 1075loPI   C5A16527   2.999   3.235   8.560  0.2603  0.2737 -0.1819
 1075loPI   C6A16528   3.217   3.264   8.929  0.0619  0.0928 -0.2241
 1075loPI   C1B16529   2.839   3.509   6.754 -0.1428 -0.0554 -0.3035
 1075loPI   C2B16530   2.870   3.507   7.210 -0.4927  0.2164 -0.0050
 1075loPI   C3B16531   2.907   3.545   7.610  0.2368 -0.3873  0.1724
 1075loPI   C4B16532   2.890   3.416   8.016  0.0570 -0.4912 -0.1370
 1076loPI    C116533  13.236  15.917   5.327 -0.0284 -0.0205 -0.3210
 1076loPI    C216534  13.321  16.307   5.356  0.0092 -0.0437 -0.1001
 1076loPI    C316535  13.239  16.146   4.999 -0.1594  0.1972 -0.1726
 1076loPI   PO416536  13.094  15.908   5.590 -0.3600 -0.0261 -0.1960
 1076loPI   GL116537  13.207  15.964   6.054  0.1686  0.1495 -0.0093
 1076loPI   GL216538  13.331  16.162   6.344  0.3044 -0.0584  0.0392
 1076loPI   C1A16539  13.162  15.673   6.465  0.0541  0.2749  0.0120
 1076loPI   C2A16540  13.228  15.686   6.955  0.0892  0.3134 -0.1537
 1076loPI   C3A16541  13.275  15.614   7.361  0.1546  0.2412  0.0143
 1076loPI   C4A16542  13.215  15.677   7.710  0.2944 -0.0525 -0.3853
 1076loPI   C5A16543  13.037  15.679   8.201 -0.0778  0.0581  0.0063
 1076loPI   C6A16544  12.801  15.621   8.587  0.1043  0.2238  0.2065
 1076loPI   C1B16545  13.287  16.113   6.743 -0.0609 -0.3000 -0.1032
 1076loPI   C2B16546  13.394  16.102   7.173 -0.1854  0.1587  0.1999
 1076loPI   C3B16547  13.404  16.155   7.616 -0.0757 -0.0033 -0.1969
 1076loPI   C4B16548  13.303  16.134   8.006 -0.0547  0.0558 -0.2818
 1077loPI    C116549  13.791  11.696   5.951  0.2159 -0.3128  0.1349
 1077loPI    C216550  13.673  11.862   5.607  0.0250 -0.0591  0.3190
 1077loPI    C316551  14.028  11.679   5.629  0.0891  0.0227  0.0198
 1077loPI   PO416552  13.695  11.867   6.094 -0.4142  0.1817 -0.0450
 1077loPI   GL116553  13.448  11.739   6.478 -0.0811  0.1472 -0.0146
 1077loPI   GL216554  13.455  12.028   6.683  0.2562 -0.0111  0.1466
 1077loPI   C1A16555  13.329  11.542   6.870  0.1588  0.1819 -0.2761
 1077loPI   C2A16556  13.297  11.546   7.296 -0.2589 -0.0134  0.0289
 1077loPI   C3A16557  13.256  11.532   7.753  0.1640  0.1627  0.2365
 1077loPI   C4A16558  13.118  11.521   8.235  0.1888 -0.1428  0.2536
 1077loPI   C5A16559  12.804  11.741   8.561  0.1681 -0.0290  0.0644
 1077loPI   C6A16560  12.494  11.511   8.793 -0.1380  0.1495  0.0030
 1077loPI   C1B16561  13.421  12.014   7.161  0.0659 -0.1264  0.1090
 1077loPI   C2B16562  13.526  11.965   7.535  0.0142 -0.1793 -0.0588
 1077loPI   C3B16563  13.486  12.088   7.990 -0.1162 -0.1621 -0.0979
 1077loPI   C4B16564  13.494  12.280   8.376  0.5258  0.0873  0.5726
 1078loPI    C116565   3.631   8.925   6.100  0.2020  0.2915 -0.3301
 1078loPI    C216566   3.331   8.991   5.844 -0.1938  0.0325  0.0530
 1078loPI    C316567   3.532   8.646   5.831 -0.1114  0.0823 -0.0063
 1078loPI   PO416568   3.608   8.963   6.321 -0.1760 -0.0408  0.0152
 1078loPI   GL116569   3.805   9.198   6.738  0.1685  0.1867  0.0371
 1078loPI   GL216570   3.917   8.799   6.741 -0.0563  0.2146  0.3035
 1078loPI   C1A16571   3.767   9.224   7.064 -0.0479 -0.3603 -0.1025
 1078loPI   C2A16572   3.712   9.193   7.501  0.2226  0.0291 -0.0158
 1078loPI   C3A16573   3.630   9.301   8.000  0.0502 -0.0066 -0.0736
 1078loPI   C4A16574   3.602   9.530   8.386 -0.1329  0.1992 -0.0342
 1078loPI   C5A16575   3.820   9.522   8.760  0.1198 -0.1826  0.1357
 1078loPI   C6A16576   3.582   9.467   9.116  0.0777  0.0590  0.1727
 1078loPI   C1B16577   4.035   8.875   7.167  0.0773  0.1462  0.4737
 1078loPI   C2B16578   4.124   8.904   7.595  0.0674  0.2017  0.0476
 1078loPI   C3B16579   4.012   8.991   8.026 -0.1526  0.1928  0.2126
 1078loPI   C4B16580   3.778   8.965   8.419 -0.3010  0.0008  0.2447
 1079loPI    C116581   9.088   3.757   5.834 -0.1147  0.2022 -0.2890
 1079loPI    C216582   9.321   4.026   6.016  0.1332 -0.0720 -0.1938
 1079loPI    C316583   9.427   3.878   5.660  0.0773 -0.1569 -0.1754
 1079loPI   PO416584   9.060   3.603   6.059  0.1076 -0.2421 -0.1966
 1079loPI   GL116585   8.870   3.721   6.536 -0.1551 -0.0191 -0.2123
 1079loPI   GL216586   8.624   3.883   6.655 -0.2127  0.1714 -0.0862
 1079loPI   C1A16587   9.125   3.551   6.920  0.0103  0.0709  0.2026
 1079loPI   C2A16588   9.115   3.623   7.387  0.2822  0.3066 -0.0537
 1079loPI   C3A16589   9.109   3.627   7.825  0.0565  0.3600  0.0928
 1079loPI   C4A16590   9.188   3.715   8.160  0.1740 -0.1221 -0.0486
 1079loPI   C5A16591   9.139   3.573   8.463 -0.3180  0.0962 -0.0087
 1079loPI   C6A16592   9.337   3.390   8.776 -0.0450 -0.0925  0.1704
 1079loPI   C1B16593   8.777   3.909   7.072 -0.0868 -0.1993  0.1344
 1079loPI   C2B16594   8.793   3.959   7.573 -0.0757  0.0593  0.1453
 1079loPI   C3B16595   8.849   4.033   7.954 -0.0889 -0.0132  0.0281
 1079loPI   C4B16596   8.814   3.954   8.447 -0.0806  0.0081 -0.1220
 1080loPI    C116597   4.669   9.755   5.748  0.0075  0.3385  0.0344
 1080loPI    C216598   4.933   9.957   5.525  0.1427  0.0088 -0.1109
 1080loPI    C316599   4.680   9.700   5.352  0.0787 -0.0645  0.0884
 1080loPI   PO416600   4.480   9.945   5.918  0.1611  0.3068  0.1052
 1080loPI   GL116601   4.409  10.004   6.401  0.1741  0.0850  0.0797
 1080loPI   GL216602   4.124   9.973   6.569  0.0971  0.0902 -0.0779
 1080loPI   C1A16603   4.674   9.932   6.789  0.1844 -0.0559  0.3393
 1080loPI   C2A16604   4.753   9.951   7.182  0.3192  0.3292  0.0929
 1080loPI   C3A16605   4.705   9.993   7.542  0.1986 -0.0433 -0.0227
 1080loPI   C4A16606   4.848   9.904   7.818  0.2833 -0.0546 -0.2196
 1080loPI   C5A16607   4.845  10.045   8.164  0.0712 -0.2076 -0.2390
 1080loPI   C6A16608   4.682  10.329   8.511  0.0545 -0.1055 -0.2589
 1080loPI   C1B16609   4.193   9.957   6.999  0.0769 -0.0402  0.0875
 1080loPI   C2B16610   4.191   9.900   7.544  0.0488  0.2179  0.2567
 1080loPI   C3B16611   4.349   9.856   7.947  0.1451 -0.0102  0.3265
 1080loPI   C4B16612   4.424   9.896   8.344  0.2983  0.2813  0.0793
 1081loPI    C116613   5.432   0.732   5.601 -0.0182 -0.1095 -0.0142
 1081loPI    C216614   5.160   0.512   5.407 -0.1890  0.0402  0.0532
 1081loPI    C316615   5.547   0.416   5.384 -0.2432 -0.1548 -0.0705
 1081loPI   PO416616   5.403   0.736   5.825 -0.0583  0.0826  0.0487
 1081loPI   GL116617   5.295   0.806   6.202 -0.0983  0.0422  0.3069
 1081loPI   GL216618   5.516   0.540   6.334  0.1976  0.1579 -0.2198
 1081loPI   C1A16619   5.327   0.939   6.611 -0.1347 -0.3458  0.2534
 1081loPI   C2A16620   5.397   0.939   6.978 -0.1410 -0.0079  0.4820
 1081loPI   C3A16621   5.453   0.881   7.401  0.1446  0.1844  0.0239
 1081loPI   C4A16622   5.483   0.842   7.775 -0.0649 -0.1265 -0.2764
 1081loPI   C5A16623   5.561   0.767   8.180  0.0360  0.2903 -0.3005
 1081loPI   C6A16624   5.817   0.460   8.303 -0.3795  0.2137 -0.2555
 1081loPI   C1B16625   5.260   0.439   6.725 -0.0395  0.3077  0.0994
 1081loPI   C2B16626   5.198   0.379   7.114 -0.0066  0.0435 -0.1143
 1081loPI   C3B16627   5.312   0.436   7.499 -0.1044  0.0971 -0.0419
 1081loPI   C4B16628   5.348   0.368   7.916  0.0249 -0.0662 -0.3139
 1082loPI    C116629   2.257   5.196   5.472 -0.2502  0.1109  0.2034
 1082loPI    C216630   2.057   5.098   5.140 -0.0394  0.1355  0.0678
 1082loPI    C316631   2.351   5.369   5.124  0.1071 -0.0107  0.2350
 1082loPI   PO416632   2.133   5.209   5.654 -0.0763  0.1969 -0.0886
 1082loPI   GL116633   2.259   5.111   6.044  0.1502  0.1158  0.3386
 1082loPI   GL216634   2.547   4.964   6.220  0.1292 -0.1376  0.0921
 1082loPI   C1A16635   2.113   5.152   6.459 -0.1121  0.3936  0.1079
 1082loPI   C2A16636   2.040   5.085   6.834 -0.3389  0.1995 -0.1765
 1082loPI   C3A16637   1.912   4.972   7.323 -0.3316  0.0612  0.1359
 1082loPI   C4A16638   1.885   5.034   7.750  0.1003  0.2002  0.0974
 1082loPI   C5A16639   1.831   4.974   8.190  0.0697 -0.3302  0.0759
 1082loPI   C6A16640   1.624   4.933   8.574 -0.0084  0.0981 -0.0816
 1082loPI   C1B16641   2.404   4.762   6.578 -0.1780 -0.0052  0.1666
 1082loPI   C2B16642   2.361   4.709   7.034  0.5628 -0.1054  0.1746
 1082loPI   C3B16643   2.301   4.754   7.473  0.0344  0.0279  0.0647
 1082loPI   C4B16644   2.335   4.924   7.903  0.0071 -0.1634 -0.2384
 1083loPI    C116645   2.777   4.089   5.748 -0.0386 -0.0729 -0.2287
 1083loPI    C216646   2.973   4.088   5.399  0.3295  0.1120 -0.0290
 1083loPI    C316647   2.753   4.405   5.505  0.1613  0.0276 -0.1200
 1083loPI   PO416648   2.940   3.989   5.939 -0.0352  0.0252 -0.2433
 1083loPI   GL116649   2.856   3.975   6.260  0.2813 -0.0459  0.3987
 1083loPI   GL216650   2.612   3.823   6.446  0.1614  0.0123 -0.1575
 1083loPI   C1A16651   3.047   3.991   6.666 -0.1030  0.0879  0.1742
 1083loPI   C2A16652   2.965   3.973   7.089  0.3741  0.0567 -0.1216
 1083loPI   C3A16653   3.000   3.987   7.419 -0.0513 -0.1435  0.1094
 1083loPI   C4A16654   3.086   3.987   7.876 -0.1863  0.2463  0.1727
 1083loPI   C5A16655   2.970   3.971   8.252  0.1536  0.2545 -0.0642
 1083loPI   C6A16656   2.806   4.185   8.511 -0.8026 -0.1019 -0.1420
 1083loPI   C1B16657   2.504   3.877   6.906 -0.2294  0.2150 -0.1311
 1083loPI   C2B16658   2.538   3.882   7.354  0.2836 -0.2433 -0.3295
 1083loPI   C3B16659   2.607   3.863   7.853  0.0848  0.2648  0.0394
 1083loPI   C4B16660   2.516   3.790   8.323 -0.3024 -0.0684 -0.2814
 1084loPI    C116661  16.502  15.677   5.421 -0.1933  0.0666  0.1045
 1084loPI    C216662  16.452  16.074   5.428  0.1749  0.1162  0.0801
 1084loPI    C316663  16.702  15.908   5.163 -0.2903 -0.1733 -0.1916
 1084loPI   PO416664  16.526  15.627   5.694 -0.0838 -0.0637 -0.1132
 1084loPI   GL116665  16.553  15.556   6.074 -0.0576  0.0973 -0.0995
 1084loPI   GL216666  16.198  15.588   6.077  0.0751 -0.1018 -0.0758
 1084loPI   C1A16667  16.858  15.568   6.338 -0.0043 -0.1339  0.2592
 1084loPI   C2A16668  16.949  15.643   6.770 -0.0128  0.0211 -0.0811
 1084loPI   C3A16669  16.882  15.634   7.182  0.2623  0.2092 -0.2016
 1084loPI   C4A16670  16.925  15.665   7.640 -0.0207  0.0843  0.0949
 1084loPI   C5A16671  16.867  15.630   8.079 -0.1457 -0.2032 -0.1380
 1084loPI   C6A16672  17.272  15.670   8.264 -0.1753  0.2218 -0.1260
 1084loPI   C1B16673  16.381  15.511   6.535  0.1265  0.3694  0.2897
 1084loPI   C2B16674  16.398  15.447   6.927  0.1722 -0.0671  0.2302
 1084loPI   C3B16675  16.426  15.543   7.351  0.3718 -0.0192  0.1919
 1084loPI   C4B16676  16.422  15.514   7.738  0.0353 -0.2111 -0.1803
 1085loPI    C116677  11.629   1.086   6.245 -0.0058  0.2203  0.0767
 1085loPI    C216678  11.413   1.422   6.259 -0.2106  0.1097 -0.3021
 1085loPI    C316679  11.634   1.340   5.936 -0.0209 -0.0358 -0.1373
 1085loPI   PO416680  11.771   1.112   6.458  0.2256  0.1994 -0.3044
 1085loPI   GL116681  11.535   1.155   6.799  0.0908  0.0808 -0.1236
 1085loPI   GL216682  11.728   0.988   6.958  0.0320  0.2320 -0.1368
 1085loPI   C1A16683  11.307   1.306   7.218 -0.0178 -0.2117 -0.0943
 1085loPI   C2A16684  11.280   1.320   7.628  0.1576 -0.3092  0.2453
 1085loPI   C3A16685  11.236   1.283   8.100  0.2702  0.0410 -0.0168
 1085loPI   C4A16686  11.244   1.297   8.462  0.1027 -0.0957 -0.1112
 1085loPI   C5A16687  11.241   1.650   8.685 -0.0715  0.0853 -0.3011
 1085loPI   C6A16688  11.084   2.007   8.951 -0.2970  0.0811  0.1800
 1085loPI   C1B16689  11.699   0.979   7.419  0.1466 -0.2607 -0.0330
 1085loPI   C2B16690  11.538   0.933   7.869  0.0542  0.0831 -0.2642
 1085loPI   C3B16691  11.513   0.792   8.325 -0.0549  0.2593 -0.2131
 1085loPI   C4B16692  11.291   0.646   8.751  0.2515  0.3463  0.0382
 1086loPI    C116693  14.104  15.735   5.538  0.2914  0.0492 -0.1600
 1086loPI    C216694  13.899  15.468   5.322 -0.1695  0.1206  0.1720
 1086loPI    C316695  14.186  15.687   5.149 -0.0949 -0.2631 -0.2097
 1086loPI   PO416696  14.048  15.628   5.835  0.2169  0.0192  0.2087
 1086loPI   GL116697  13.822  15.442   6.178  0.2110 -0.0101 -0.2298
 1086loPI   GL216698  13.509  15.511   6.144 -0.4499  0.0229 -0.5500
 1086loPI   C1A16699  14.008  15.474   6.503 -0.1388  0.1890  0.0774
 1086loPI   C2A16700  14.043  15.467   6.924 -0.0188  0.2869  0.1274
 1086loPI   C3A16701  14.096  15.371   7.256 -0.2187 -0.0038  0.0698
 1086loPI   C4A16702  14.061  15.412   7.669 -0.2133  0.1650 -0.2655
 1086loPI   C5A16703  13.933  15.544   8.108  0.0261 -0.0562  0.0002
 1086loPI   C6A16704  13.939  15.391   8.433  0.3942 -0.0081  0.3108
 1086loPI   C1B16705  13.518  15.341   6.564  0.0662  0.1210  0.1283
 1086loPI   C2B16706  13.579  15.292   6.992  0.0157  0.2159 -0.0122
 1086loPI   C3B16707  13.634  15.269   7.480  0.0843  0.2402  0.0392
 1086loPI   C4B16708  13.523  15.266   7.817 -0.2832 -0.1545 -0.1341
 1087loPI    C116709   2.437  15.457   5.772 -0.1372 -0.1741 -0.1801
 1087loPI    C216710   2.315  15.672   5.458  0.2623 -0.0032 -0.2235
 1087loPI    C316711   2.548  15.352   5.402  0.1970 -0.0704 -0.1124
 1087loPI   PO416712   2.216  15.366   5.897 -0.0585 -0.0619  0.1854
 1087loPI   GL116713   2.111  15.485   6.218 -0.1775 -0.1159  0.0905
 1087loPI   GL216714   2.375  15.675   6.250 -0.1414  0.0172  0.0220
 1087loPI   C1A16715   2.016  15.339   6.699  0.1416 -0.0161 -0.1408
 1087loPI   C2A16716   2.094  15.355   7.127  0.0012 -0.1944 -0.0360
 1087loPI   C3A16717   2.109  15.321   7.573 -0.1708  0.0875 -0.0839
 1087loPI   C4A16718   2.158  15.345   7.997 -0.1114 -0.0793 -0.0253
 1087loPI   C5A16719   2.180  15.510   8.437  0.0345  0.1547  0.0947
 1087loPI   C6A16720   2.425  15.627   8.756  0.1309  0.0489  0.0940
 1087loPI   C1B16721   2.315  15.837   6.639  0.1036 -0.1688 -0.0860
 1087loPI   C2B16722   2.224  15.868   7.082 -0.1437  0.0831 -0.4646
 1087loPI   C3B16723   2.241  15.816   7.509 -0.2910 -0.2894 -0.0067
 1087loPI   C4B16724   2.279  15.868   7.974  0.2253 -0.1682 -0.0922
 1088loPI    C116725   4.173  15.889   5.886 -0.1856  0.2669 -0.2344
 1088loPI    C216726   4.389  15.813   5.559 -0.0758 -0.0880 -0.0848
 1088loPI    C316727   4.015  15.676   5.587 -0.0530 -0.1381 -0.0234
 1088loPI   PO416728   4.392  15.974   6.067 -0.1610 -0.2472  0.0157
 1088loPI   GL116729   4.286  16.038   6.458  0.2040 -0.0914 -0.1851
 1088loPI   GL216730   4.275  16.306   6.587 -0.0483  0.1044  0.0874
 1088loPI   C1A16731   4.577  15.978   6.773 -0.1690  0.0271 -0.1342
 1088loPI   C2A16732   4.611  16.054   7.192  0.0002 -0.1196 -0.0503
 1088loPI   C3A16733   4.636  16.014   7.570 -0.0719 -0.0335  0.0244
 1088loPI   C4A16734   4.684  15.960   8.013 -0.0828  0.1110  0.2779
 1088loPI   C5A16735   4.566  15.998   8.432  0.2299  0.0624  0.2302
 1088loPI   C6A16736   4.180  16.051   8.692 -0.2429  0.1929 -0.1817
 1088loPI   C1B16737   4.234  16.404   7.005  0.1656  0.0213 -0.2522
 1088loPI   C2B16738   4.359  16.429   7.403  0.0079  0.2169 -0.2254
 1088loPI   C3B16739   4.338  16.286   7.782  0.2648 -0.0080 -0.1132
 1088loPI   C4B16740   4.292  16.505   8.191 -0.0856  0.0205  0.1819
 1089loPI    C116741   3.142  10.263   6.127 -0.1888  0.2481  0.1485
 1089loPI    C216742   3.175  10.569   5.871 -0.0004 -0.0334 -0.1723
 1089loPI    C316743   3.166  10.193   5.734  0.0938 -0.1907  0.2364
 1089loPI   PO416744   3.080  10.403   6.326 -0.2761 -0.2576  0.0291
 1089loPI   GL116745   2.911  10.283   6.734 -0.0776  0.2373 -0.1380
 1089loPI   GL216746   2.578  10.096   6.786  0.3145  0.3096  0.2164
 1089loPI   C1A16747   2.993  10.434   7.146  0.1841  0.1946 -0.0792
 1089loPI   C2A16748   3.002  10.492   7.519  0.4317  0.5050 -0.1001
 1089loPI   C3A16749   2.922  10.556   8.030  0.0199 -0.1468  0.4374
 1089loPI   C4A16750   3.046  10.357   8.407 -0.1443 -0.0357 -0.3910
 1089loPI   C5A16751   2.824  10.048   8.696 -0.0607 -0.0456  0.4596
 1089loPI   C6A16752   2.710   9.652   8.821 -0.1458  0.0587 -0.1738
 1089loPI   C1B16753   2.488  10.192   7.168 -0.1496  0.3098  0.1359
 1089loPI   C2B16754   2.590  10.253   7.590 -0.2589 -0.3087  0.2384
 1089loPI   C3B16755   2.473  10.362   7.944  0.0939  0.0906 -0.2740
 1089loPI   C4B16756   2.534  10.461   8.419 -0.0613  0.1490  0.2900
 1090loPI    C116757   8.637   5.755   6.136 -0.1325 -0.1297  0.1429
 1090loPI    C216758   8.790   5.565   5.820 -0.0807 -0.0883  0.1429
 1090loPI    C316759   8.776   5.382   6.175 -0.3400 -0.2163  0.0695
 1090loPI   PO416760   8.843   5.929   6.167 -0.2009  0.0806 -0.2201
 1090loPI   GL116761   8.874   5.937   6.617 -0.1160  0.1468  0.0195
 1090loPI   GL216762   8.945   5.668   6.572 -0.1576 -0.0392  0.0907
 1090loPI   C1A16763   8.827   5.840   7.070  0.2007 -0.2544  0.2398
 1090loPI   C2A16764   8.928   5.763   7.540 -0.3015  0.3326 -0.0929
 1090loPI   C3A16765   8.965   5.861   7.980 -0.0535 -0.0785 -0.1573
 1090loPI   C4A16766   8.864   5.607   8.370 -0.1981 -0.2247 -0.1252
 1090loPI   C5A16767   8.420   5.433   8.420 -0.1730  0.1867  0.0137
 1090loPI   C6A16768   8.090   4.990   8.358  0.0367  0.0739  0.2355
 1090loPI   C1B16769   9.126   5.486   6.932 -0.0931 -0.2214 -0.0188
 1090loPI   C2B16770   9.238   5.414   7.312  0.0403 -0.1582 -0.1830
 1090loPI   C3B16771   9.300   5.455   7.893 -0.0326  0.2077 -0.0243
 1090loPI   C4B16772   9.318   5.407   8.367 -0.1195  0.1406 -0.1764
 1091loPI    C116773   4.551  11.820   5.695 -0.1421 -0.1181 -0.0653
 1091loPI    C216774   4.811  11.846   5.393 -0.0244 -0.0080  0.0449
 1091loPI    C316775   4.419  11.859   5.320  0.0043  0.0725 -0.0982
 1091loPI   PO416776   4.675  11.607   5.818  0.0900  0.1762 -0.0740
 1091loPI   GL116777   4.548  11.610   6.271  0.0585 -0.0552 -0.2258
 1091loPI   GL216778   4.506  11.255   6.341  0.2430 -0.0436 -0.3389
 1091loPI   C1A16779   4.733  11.818   6.582  0.2415  0.1110  0.0896
 1091loPI   C2A16780   4.729  11.865   6.979 -0.0032  0.1370 -0.1035
 1091loPI   C3A16781   4.820  11.903   7.460  0.2592 -0.2584 -0.2619
 1091loPI   C4A16782   4.793  11.864   7.913  0.0052 -0.1111  0.0994
 1091loPI   C5A16783   5.020  11.552   8.221  0.0349  0.1001 -0.1494
 1091loPI   C6A16784   5.303  11.379   8.570  0.1549 -0.0014 -0.0111
 1091loPI   C1B16785   4.568  11.365   6.787 -0.0735  0.1713  0.0681
 1091loPI   C2B16786   4.656  11.414   7.251 -0.0227 -0.0359  0.1465
 1091loPI   C3B16787   4.705  11.416   7.685  0.0206  0.1515  0.2453
 1091loPI   C4B16788   4.585  11.329   8.157 -0.2141  0.1337  0.0088
 1092loPI    C116789  16.742  13.353   5.640  0.0814 -0.1154  0.1847
 1092loPI    C216790  16.431  13.119   5.545 -0.0079  0.0272  0.1209
 1092loPI    C316791  16.552  13.404   5.292 -0.0160  0.1713  0.2770
 1092loPI   PO416792  16.666  13.451   5.896 -0.4876 -0.1044 -0.2967
 1092loPI   GL116793  16.743  13.381   6.390  0.0551  0.2541 -0.0652
 1092loPI   GL216794  16.671  13.694   6.320 -0.0924 -0.0875  0.3183
 1092loPI   C1A16795  16.670  13.339   6.820 -0.0989  0.0521 -0.0280
 1092loPI   C2A16796  16.589  13.308   7.211  0.0585 -0.1269  0.1549
 1092loPI   C3A16797  16.616  13.257   7.656  0.0393 -0.2328 -0.2811
 1092loPI   C4A16798  16.729  13.194   8.073 -0.2504  0.3441  0.0800
 1092loPI   C5A16799  16.941  12.986   8.535  0.2650 -0.2054 -0.0009
 1092loPI   C6A16800  17.120  12.653   8.799  0.1135 -0.0858 -0.5129
 1092loPI   C1B16801  16.864  13.762   6.767 -0.2737  0.2548 -0.0763
 1092loPI   C2B16802  16.784  13.798   7.186 -0.3429 -0.0912  0.2514
 1092loPI   C3B16803  16.813  13.758   7.602  0.0642  0.2292  0.0946
 1092loPI   C4B16804  16.848  13.717   8.067  0.0559 -0.0302  0.0344
 1093loPI    C116805   1.847  11.283   5.744  0.2110  0.0851 -0.1642
 1093loPI    C216806   2.225  11.172   5.674  0.1482 -0.0643 -0.2738
 1093loPI    C316807   2.062  11.472   5.465  0.2877  0.1758 -0.0442
 1093loPI   PO416808   1.823  11.296   6.046 -0.1850  0.0627  0.0111
 1093loPI   GL116809   1.705  11.287   6.458  0.0401 -0.1979  0.1557
 1093loPI   GL216810   1.583  11.556   6.580 -0.1401 -0.2939  0.0438
 1093loPI   C1A16811   1.901  11.129   6.832 -0.0642 -0.1098 -0.0092
 1093loPI   C2A16812   2.080  11.210   7.207  0.0562  0.0481 -0.0237
 1093loPI   C3A16813   2.234  11.193   7.552 -0.0475  0.1594 -0.4272
 1093loPI   C4A16814   2.257  11.257   7.981 -0.1002 -0.0627 -0.3002
 1093loPI   C5A16815   1.920  11.199   8.230 -0.2031  0.0299 -0.2291
 1093loPI   C6A16816   1.798  10.929   8.631 -0.1170 -0.1607  0.2588
 1093loPI   C1B16817   1.753  11.556   7.090 -0.0479 -0.3065 -0.0070
 1093loPI   C2B16818   1.909  11.561   7.423  0.2066 -0.0116  0.0762
 1093loPI   C3B16819   1.991  11.653   7.843 -0.0972  0.1179 -0.3476
 1093loPI   C4B16820   2.022  11.716   8.240  0.0426 -0.0229  0.0366
 1094loPI    C116821   0.472  10.597   5.805  0.1953  0.2632 -0.1267
 1094loPI    C216822   0.784  10.429   5.619 -0.0216 -0.1427 -0.1373
 1094loPI    C316823   0.415  10.384   5.471 -0.1673 -0.2540  0.2471
 1094loPI   PO416824   0.550  10.569   6.061 -0.0588 -0.2693 -0.0653
 1094loPI   GL116825   0.699  10.535   6.427 -0.2425 -0.1512  0.0250
 1094loPI   GL216826   0.782  10.851   6.436  0.0329  0.3556 -0.0935
 1094loPI   C1A16827   0.818  10.452   6.852 -0.0599  0.1295 -0.2499
 1094loPI   C2A16828   0.855  10.498   7.238  0.0118 -0.3487  0.0594
 1094loPI   C3A16829   1.005  10.304   7.517 -0.2667  0.0413 -0.2450
 1094loPI   C4A16830   1.299  10.039   7.784  0.1051  0.1650 -0.0508
 1094loPI   C5A16831   1.296  10.098   8.167  0.0898 -0.0399 -0.0574
 1094loPI   C6A16832   1.377   9.963   8.540  0.0366  0.0477 -0.4038
 1094loPI   C1B16833   0.890  11.064   6.784 -0.0704  0.1875  0.3664
 1094loPI   C2B16834   1.097  11.063   7.208  0.2696 -0.3480  0.0317
 1094loPI   C3B16835   1.175  11.120   7.667  0.1392 -0.0782  0.0015
 1094loPI   C4B16836   1.093  11.315   7.965 -0.0555 -0.1721  0.1371
 1095loPI    C116837   6.913   5.737   5.738  0.0769  0.0552  0.0856
 1095loPI    C216838   7.100   6.002   5.504 -0.2527  0.1384 -0.0897
 1095loPI    C316839   6.854   5.732   5.342  0.0767 -0.2791  0.0873
 1095loPI   PO416840   6.802   5.939   5.907 -0.0019 -0.0172 -0.1223
 1095loPI   GL116841   6.707   5.980   6.311  0.2416 -0.2099  0.2271
 1095loPI   GL216842   6.493   5.807   6.468  0.2454 -0.0247  0.0381
 1095loPI   C1A16843   6.983   6.287   6.564  0.2042 -0.0131  0.1880
 1095loPI   C2A16844   7.099   6.371   7.002 -0.1679  0.1690  0.0085
 1095loPI   C3A16845   7.124   6.356   7.440  0.0278 -0.0566  0.3242
 1095loPI   C4A16846   7.053   6.379   7.878  0.0330 -0.2501  0.1912
 1095loPI   C5A16847   7.184   6.456   8.211  0.2444 -0.0743  0.2385
 1095loPI   C6A16848   7.464   6.699   8.429 -0.1248 -0.0373  0.1740
 1095loPI   C1B16849   6.498   5.739   6.905 -0.0500 -0.0589 -0.1953
 1095loPI   C2B16850   6.442   5.771   7.406 -0.0537 -0.0633  0.2516
 1095loPI   C3B16851   6.447   5.691   7.799 -0.1109 -0.1190  0.1995
 1095loPI   C4B16852   6.440   5.738   8.259 -0.1942 -0.0627  0.0976
 1096loPI    C116853   3.059   8.529   5.879 -0.1276  0.0154 -0.0893
 1096loPI    C216854   2.774   8.684   5.645 -0.0797  0.1104 -0.0851
 1096loPI    C316855   2.723   8.323   5.809 -0.1421  0.0721 -0.1879
 1096loPI   PO416856   3.091   8.652   6.092  0.1612 -0.1755 -0.2316
 1096loPI   GL116857   2.994   8.535   6.411  0.0749 -0.3441 -0.4988
 1096loPI   GL216858   3.269   8.725   6.567  0.2019 -0.2624  0.1435
 1096loPI   C1A16859   2.727   8.503   6.781  0.0986  0.0778 -0.0822
 1096loPI   C2A16860   2.677   8.471   7.214  0.2078  0.0771 -0.0188
 1096loPI   C3A16861   2.845   8.617   7.568 -0.0140 -0.1302 -0.0909
 1096loPI   C4A16862   2.736   8.813   7.967 -0.2531  0.1291  0.0914
 1096loPI   C5A16863   2.525   9.181   8.272  0.3063 -0.0179  0.2497
 1096loPI   C6A16864   2.241   9.288   8.589 -0.3091 -0.2450  0.0802
 1096loPI   C1B16865   3.455   8.828   7.028  0.1743 -0.0048 -0.1622
 1096loPI   C2B16866   3.668   8.631   7.472  0.0100  0.0561  0.0105
 1096loPI   C3B16867   3.816   8.590   7.876  0.0899  0.1830  0.0629
 1096loPI   C4B16868   3.893   8.442   8.373  0.1530  0.0959  0.0125
 1097loPI    C116869  16.018  11.182   5.979  0.0073  0.1981 -0.2408
 1097loPI    C216870  16.211  10.839   5.912 -0.1002  0.1026 -0.0695
 1097loPI    C316871  15.924  10.959   5.661 -0.2421 -0.0644  0.0112
 1097loPI   PO416872  15.898  11.157   6.164  0.1946 -0.0838  0.0380
 1097loPI   GL116873  15.768  11.293   6.529  0.6861  0.1377 -0.0689
 1097loPI   GL216874  15.696  10.915   6.588  0.3639  0.1088 -0.1096
 1097loPI   C1A16875  15.741  11.341   7.049  0.0010 -0.2023  0.2706
 1097loPI   C2A16876  15.813  11.415   7.468 -0.1964 -0.0238  0.1888
 1097loPI   C3A16877  15.888  11.362   7.940  0.3063 -0.0600 -0.4301
 1097loPI   C4A16878  15.892  11.188   8.330 -0.1228 -0.0297  0.1085
 1097loPI   C5A16879  15.498  11.115   8.592  0.2120 -0.1784 -0.0503
 1097loPI   C6A16880  15.164  10.937   8.790 -0.0881 -0.0169 -0.1996
 1097loPI   C1B16881  15.471  10.917   6.807 -0.1659  0.2386  0.1304
 1097loPI   C2B16882  15.331  10.896   7.141  0.3703 -0.0030  0.0230
 1097loPI   C3B16883  15.414  11.025   7.545  0.2292 -0.1428 -0.1457
 1097loPI   C4B16884  15.444  11.095   8.015  0.0723 -0.1952  0.0484
 1098loPI    C116885  12.065  13.901   5.715  0.0716 -0.0844 -0.1494
 1098loPI    C216886  12.099  13.658   5.398  0.1427  0.0410 -0.2387
 1098loPI    C316887  12.272  14.019   5.394  0.0023  0.1110 -0.1237
 1098loPI   PO416888  12.170  13.771   5.962 -0.3126 -0.0545 -0.1441
 1098loPI   GL116889  12.240  14.010   6.405  0.0061  0.2101  0.2858
 1098loPI   GL216890  12.020  14.168   6.184  0.0898 -0.3324 -0.0535
 1098loPI   C1A16891  12.311  14.047   6.846 -0.1831  0.3104 -0.2486
 1098loPI   C2A16892  12.322  14.078   7.285  0.2747 -0.1637  0.0971
 1098loPI   C3A16893  12.215  14.070   7.619  0.1584 -0.1713 -0.0622
 1098loPI   C4A16894  12.200  14.084   8.130 -0.0997 -0.0050  0.0445
 1098loPI   C5A16895  11.943  14.041   8.565  0.4291 -0.0321 -0.1771
 1098loPI   C6A16896  11.842  13.709   8.820 -0.2936  0.2624 -0.0114
 1098loPI   C1B16897  11.830  13.953   6.634 -0.0331 -0.0039  0.1644
 1098loPI   C2B16898  11.766  13.898   7.041 -0.2218  0.1657 -0.4938
 1098loPI   C3B16899  11.794  13.838   7.453 -0.0771 -0.3908 -0.1299
 1098loPI   C4B16900  11.746  13.869   7.874  0.0783  0.2761  0.3958
 1099loPI    C116901  15.890   6.161   5.917 -0.0099 -0.2674  0.0096
 1099loPI    C216902  16.228   6.120   5.708  0.0111 -0.0864  0.0066
 1099loPI    C316903  15.896   5.929   5.591 -0.0007  0.0825 -0.2445
 1099loPI   PO416904  15.991   6.225   6.186  0.2132  0.0223 -0.1193
 1099loPI   GL116905  15.946   6.125   6.609  0.3246 -0.2688 -0.0783
 1099loPI   GL216906  16.017   5.783   6.489 -0.1487 -0.0164  0.0131
 1099loPI   C1A16907  16.133   6.202   7.032  0.1596  0.1503  0.1311
 1099loPI   C2A16908  16.146   6.144   7.496  0.0360 -0.0082 -0.1187
 1099loPI   C3A16909  16.215   6.294   7.910 -0.0492 -0.2279 -0.1611
 1099loPI   C4A16910  16.200   6.505   8.332 -0.2509  0.1708  0.1417
 1099loPI   C5A16911  16.294   6.587   8.723 -0.0468 -0.0731 -0.0930
 1099loPI   C6A16912  16.682   6.507   8.959 -0.2275 -0.0666  0.1077
 1099loPI   C1B16913  15.945   5.724   6.923  0.4772 -0.0800 -0.1110
 1099loPI   C2B16914  16.004   5.637   7.283 -0.0408  0.0941 -0.3557
 1099loPI   C3B16915  15.955   5.550   7.727  0.2118  0.1822  0.0580
 1099loPI   C4B16916  15.815   5.600   8.072 -0.2643 -0.1252  0.2061
 1100loPI    C116917  14.674   4.435   5.846 -0.0185  0.1275 -0.0125
 1100loPI    C216918  14.927   4.621   5.599  0.0167 -0.0578 -0.1178
 1100loPI    C316919  14.547   4.743   5.625 -0.0032 -0.0764 -0.3108
 1100loPI   PO416920  14.757   4.498   6.140  0.1149 -0.1569  0.0395
 1100loPI   GL116921  14.885   4.700   6.469  0.0523 -0.0461  0.1598
 1100loPI   GL216922  15.123   4.493   6.385 -0.3841  0.0031 -0.1116
 1100loPI   C1A16923  14.694   4.517   6.833 -0.1132 -0.1694 -0.0426
 1100loPI   C2A16924  14.666   4.452   7.294  0.2089 -0.2136  0.1465
 1100loPI   C3A16925  14.612   4.430   7.824  0.0448 -0.4548 -0.0354
 1100loPI   C4A16926  14.575   4.331   8.234  0.0209 -0.1532 -0.2684
 1100loPI   C5A16927  14.626   4.164   8.650  0.1373 -0.0419 -0.1641
 1100loPI   C6A16928  14.913   4.080   9.032  0.3093 -0.0201 -0.0097
 1100loPI   C1B16929  15.140   4.665   6.868 -0.0680  0.0627 -0.1021
 1100loPI   C2B16930  15.160   4.542   7.307  0.0538  0.2568 -0.4502
 1100loPI   C3B16931  15.091   4.479   7.665  0.0111 -0.1253  0.0192
 1100loPI   C4B16932  14.996   4.468   8.096  0.1389  0.0741 -0.2208
 1101loPI    C116933  10.158   5.978   5.999 -0.2523  0.1174 -0.0236
 1101loPI    C216934  10.306   6.226   5.722  0.1217  0.1007  0.1555
 1101loPI    C316935  10.289   5.832   5.650  0.1975  0.0989  0.1473
 1101loPI   PO416936  10.285   6.076   6.199 -0.0517  0.0888 -0.2852
 1101loPI   GL116937  10.382   6.283   6.585 -0.3133 -0.0717  0.3371
 1101loPI   GL216938  10.642   6.347   6.513  0.0216 -0.0409 -0.0361
 1101loPI   C1A16939  10.350   6.145   7.004 -0.0708  0.0186  0.0287
 1101loPI   C2A16940  10.294   6.245   7.522 -0.1981 -0.0884  0.1242
 1101loPI   C3A16941  10.389   6.251   7.883 -0.0867  0.1062  0.1414
 1101loPI   C4A16942  10.508   6.316   8.287  0.1802 -0.0553  0.0198
 1101loPI   C5A16943  10.699   6.483   8.688  0.1754 -0.0594 -0.1150
 1101loPI   C6A16944  10.843   6.636   9.140  0.2144 -0.2307  0.0154
 1101loPI   C1B16945  10.824   6.304   6.942  0.0544 -0.3016 -0.1840
 1101loPI   C2B16946  10.800   6.305   7.393 -0.2631 -0.2164  0.1375
 1101loPI   C3B16947  10.952   6.352   7.868  0.1216  0.1937  0.1014
 1101loPI   C4B16948  11.043   6.259   8.319  0.0208  0.0381 -0.1013
 1102loPI    C116949  11.643   5.660   5.843 -0.1006  0.1360  0.0341
 1102loPI    C216950  12.012   5.802   5.783 -0.0072 -0.1330 -0.0402
 1102loPI    C316951  11.765   5.750   5.473 -0.0543 -0.0977 -0.0087
 1102loPI   PO416952  11.595   5.781   6.142 -0.2193 -0.3576  0.1084
 1102loPI   GL116953  11.408   5.870   6.536  0.0629  0.1178  0.1335
 1102loPI   GL216954  11.129   6.074   6.539  0.0670 -0.1778 -0.2109
 1102loPI   C1A16955  11.655   6.118   6.744  0.1878 -0.0743  0.5145
 1102loPI   C2A16956  11.684   6.102   7.178  0.1684 -0.0137 -0.1773
 1102loPI   C3A16957  11.858   6.100   7.657 -0.1932  0.0684  0.0302
 1102loPI   C4A16958  11.751   6.118   8.126  0.0095 -0.1756 -0.2255
 1102loPI   C5A16959  11.469   5.997   8.556  0.1734  0.2456  0.0792
 1102loPI   C6A16960  11.498   5.984   8.957  0.1352 -0.2876  0.0544
 1102loPI   C1B16961  11.225   5.985   7.005 -0.0691 -0.3423  0.2710
 1102loPI   C2B16962  11.288   5.973   7.531 -0.2700 -0.1050  0.0951
 1102loPI   C3B16963  11.301   5.948   7.931 -0.1132  0.2641 -0.1068
 1102loPI   C4B16964  11.100   5.770   8.333  0.1245  0.0984 -0.4193
 1103loPI    C116965  14.859  10.483   5.883  0.0679  0.1669 -0.0518
 1103loPI    C216966  14.511  10.499   5.686 -0.0260 -0.0119  0.0963
 1103loPI    C316967  14.820  10.297   5.531 -0.0239  0.0509  0.0185
 1103loPI   PO416968  14.754  10.474   6.143 -0.0319 -0.2218 -0.0255
 1103loPI   GL116969  14.845  10.365   6.555  0.1080 -0.1086 -0.0303
 1103loPI   GL216970  15.059  10.534   6.679 -0.0137 -0.0472  0.0365
 1103loPI   C1A16971  14.630  10.203   6.897 -0.0046  0.3585  0.1224
 1103loPI   C2A16972  14.673  10.086   7.282 -0.1856  0.1365 -0.1166
 1103loPI   C3A16973  14.906  10.188   7.637  0.2964 -0.0317 -0.2657
 1103loPI   C4A16974  15.096  10.180   8.043  0.1258 -0.3306  0.2576
 1103loPI   C5A16975  15.377  10.402   8.272 -0.0287  0.1307  0.0169
 1103loPI   C6A16976  15.615  10.672   8.268  0.3425 -0.0496 -0.3212
 1103loPI   C1B16977  15.027  10.510   7.115  0.2713  0.3395  0.1000
 1103loPI   C2B16978  15.037  10.617   7.521  0.1095 -0.2263  0.1261
 1103loPI   C3B16979  15.128  10.704   7.920 -0.1545 -0.2175  0.1064
 1103loPI   C4B16980  14.980  10.832   8.329 -0.0152  0.0202 -0.0330
 1104loPI    C116981  13.315   8.968   6.348 -0.0077 -0.0680  0.0360
 1104loPI    C216982  13.686   9.031   6.485 -0.0545  0.1490  0.0663
 1104loPI    C316983  13.622   8.997   6.092  0.0268 -0.1038  0.0730
 1104loPI   PO416984  13.213   9.127   6.409  0.1410 -0.0601 -0.0168
 1104loPI   GL116985  12.894   9.181   6.616 -0.3349 -0.0454 -0.0542
 1104loPI   GL216986  12.971   8.824   6.685  0.0384 -0.0378  0.0808
 1104loPI   C1A16987  12.873   9.248   6.997 -0.0013 -0.0079  0.1241
 1104loPI   C2A16988  12.995   9.220   7.455  0.1126  0.2447 -0.2746
 1104loPI   C3A16989  13.059   9.254   7.959  0.1776  0.0349  0.3197
 1104loPI   C4A16990  12.750   9.130   8.387  0.0478  0.1299  0.2042
 1104loPI   C5A16991  12.614   8.774   8.792  0.0163 -0.0761 -0.1038
 1104loPI   C6A16992  12.591   8.541   9.155  0.2929  0.0438  0.2774
 1104loPI   C1B16993  12.895   8.781   7.120 -0.0093  0.0223 -0.2376
 1104loPI   C2B16994  13.102   8.742   7.484 -0.0502 -0.2346 -0.0458
 1104loPI   C3B16995  13.345   8.801   7.888  0.0137  0.2252  0.0622
 1104loPI   C4B16996  13.551   8.748   8.189  0.0259  0.0664 -0.1774
 1105loPI    C116997  14.025   7.489   5.733  0.1041  0.3067 -0.0321
 1105loPI    C216998  13.725   7.434   5.474 -0.0373  0.1213  0.1671
 1105loPI    C316999  14.082   7.266   5.406 -0.0295  0.1969  0.0182
 1105loPI   PO417000  13.807   7.429   6.001  0.1549  0.1053 -0.3066
 1105loPI   GL117001  13.796   7.142   6.345  0.0909  0.1299 -0.0463
 1105loPI   GL217002  14.040   7.254   6.635 -0.1899 -0.1839 -0.0626
 1105loPI   C1A17003  13.391   7.010   6.577 -0.1413  0.2711 -0.1607
 1105loPI   C2A17004  13.354   6.971   7.035 -0.3962 -0.1470 -0.1744
 1105loPI   C3A17005  13.383   6.939   7.454  0.0511 -0.0466  0.1320
 1105loPI   C4A17006  13.516   6.937   7.839 -0.1391  0.2494 -0.0923
 1105loPI   C5A17007  13.575   6.925   8.239 -0.3703 -0.2706  0.2172
 1105loPI   C6A17008  13.754   6.722   8.546 -0.2997 -0.1640  0.1921
 1105loPI   C1B17009  13.980   7.146   7.121  0.2624 -0.0817  0.0491
 1105loPI   C2B17010  13.947   7.023   7.597  0.2074 -0.0161  0.1790
 1105loPI   C3B17011  14.044   6.919   7.961 -0.2319  0.1353  0.3514
 1105loPI   C4B17012  14.158   6.856   8.343 -0.3417  0.3097 -0.3478
 1106loPI    C117013  15.231  17.006   5.518 -0.1797  0.1228  0.1312
 1106loPI    C217014  15.397  17.368   5.550  0.1494 -0.0358  0.2700
 1106loPI    C317015  15.585  17.079   5.347 -0.1407 -0.1140  0.1068
 1106loPI   PO417016  15.180  16.975   5.768  0.2425 -0.1347  0.1404
 1106loPI   GL117017  15.218  16.896   6.168  0.1681 -0.0530  0.2617
 1106loPI   GL217018  14.899  16.820   6.205  0.1829 -0.2347 -0.0005
 1106loPI   C1A17019  15.327  16.681   6.515  0.0205  0.6031 -0.1635
 1106loPI   C2A17020  15.372  16.632   6.958 -0.0425 -0.0495 -0.1197
 1106loPI   C3A17021  15.369  16.722   7.443  0.1501  0.4933  0.4622
 1106loPI   C4A17022  15.322  16.739   7.883  0.1131  0.0392  0.4408
 1106loPI   C5A17023  15.379  17.009   8.219 -0.1062 -0.1415  0.0683
 1106loPI   C6A17024  15.647  17.360   8.281  0.1876 -0.1154 -0.0547
 1106loPI   C1B17025  14.998  16.970   6.597  0.1924  0.0015 -0.0365
 1106loPI   C2B17026  15.015  17.030   7.119 -0.0856  0.1994  0.0962
 1106loPI   C3B17027  14.999  17.040   7.569 -0.1110 -0.0965 -0.0509
 1106loPI   C4B17028  14.959  17.153   7.967 -0.1118 -0.1756 -0.1027
 1107loPI    C117029   0.136   6.209   5.810  0.0532  0.1145 -0.1032
 1107loPI    C217030  -0.141   6.355   6.059 -0.0321  0.0711 -0.1723
 1107loPI    C317031  -0.249   6.206   5.704  0.0357 -0.2925 -0.0457
 1107loPI   PO417032   0.277   6.039   6.053  0.1806  0.1043 -0.2899
 1107loPI   GL117033   0.460   5.955   6.500  0.0382  0.1212  0.2104
 1107loPI   GL217034   0.813   5.903   6.317 -0.1888 -0.1392 -0.1210
 1107loPI   C1A17035   0.295   5.796   6.863  0.1190  0.1998 -0.1769
 1107loPI   C2A17036   0.298   5.586   7.279 -0.2337  0.1422  0.1648
 1107loPI   C3A17037   0.249   5.607   7.650  0.3938  0.0639  0.0084
 1107loPI   C4A17038   0.151   5.469   8.039  0.1102 -0.0253  0.1074
 1107loPI   C5A17039   0.089   5.737   8.339 -0.0161 -0.2318 -0.0151
 1107loPI   C6A17040   0.167   6.194   8.471 -0.2049 -0.1778 -0.0121
 1107loPI   C1B17041   0.881   5.919   6.694 -0.5352 -0.0889  0.0541
 1107loPI   C2B17042   0.780   5.853   7.004 -0.1103 -0.0644  0.1334
 1107loPI   C3B17043   0.835   5.737   7.465 -0.1046  0.0856  0.0555
 1107loPI   C4B17044   0.703   5.682   7.857 -0.1726  0.0034 -0.2451
 1108loPI    C117045  13.417   5.769   5.799 -0.0725 -0.0874  0.1183
 1108loPI    C217046  13.151   5.471   5.797  0.0383 -0.1869 -0.0182
 1108loPI    C317047  13.507   5.422   5.623 -0.0036  0.0805 -0.1857
 1108loPI   PO417048  13.328   5.948   6.009  0.0737 -0.1477 -0.1484
 1108loPI   GL117049  13.420   6.132   6.443  0.0981  0.0402 -0.1259
 1108loPI   GL217050  13.147   6.052   6.490  0.1789 -0.1617  0.1582
 1108loPI   C1A17051  13.630   6.193   6.853 -0.0326 -0.3307 -0.0118
 1108loPI   C2A17052  13.706   6.131   7.236  0.0137 -0.0901 -0.1484
 1108loPI   C3A17053  13.758   6.028   7.650  0.1161 -0.4107 -0.0537
 1108loPI   C4A17054  13.753   5.956   8.111  0.2690 -0.0131  0.0299
 1108loPI   C5A17055  13.889   5.952   8.493  0.1270  0.0498  0.0781
 1108loPI   C6A17056  13.821   5.769   8.919  0.1303 -0.0487 -0.0582
 1108loPI   C1B17057  13.094   6.079   6.942  0.1481 -0.3417 -0.1816
 1108loPI   C2B17058  13.142   6.034   7.256 -0.0580  0.0391  0.2751
 1108loPI   C3B17059  13.244   5.938   7.696  0.2463  0.2367  0.1823
 1108loPI   C4B17060  13.229   5.930   8.123  0.0084 -0.1617  0.0279
 1109loPI    C117061  14.031   1.690   5.654 -0.2030 -0.1480  0.1404
 1109loPI    C217062  14.215   1.408   5.870  0.1648 -0.0037  0.0231
 1109loPI    C317063  14.248   1.408   5.471 -0.0805  0.0341  0.0011
 1109loPI   PO417064  14.001   1.899   5.873 -0.2111 -0.0535  0.2748
 1109loPI   GL117065  13.860   1.783   6.235  0.2495  0.1360 -0.2361
 1109loPI   GL217066  13.761   2.020   6.298 -0.0129  0.2212  0.0646
 1109loPI   C1A17067  14.271   1.597   6.478 -0.1229 -0.1848  0.0065
 1109loPI   C2A17068  14.361   1.586   6.886  0.2288 -0.4012  0.2284
 1109loPI   C3A17069  14.124   1.468   7.163 -0.1365  0.1268  0.1990
 1109loPI   C4A17070  14.125   1.503   7.654  0.3131  0.0849  0.2934
 1109loPI   C5A17071  14.118   1.537   8.092  0.1512 -0.1220  0.2996
 1109loPI   C6A17072  14.054   1.754   8.510 -0.1647  0.0025  0.2205
 1109loPI   C1B17073  13.971   1.900   6.679  0.2155 -0.0712  0.1230
 1109loPI   C2B17074  14.024   1.982   7.122  0.0814  0.3184  0.3223
 1109loPI   C3B17075  13.803   1.972   7.480 -0.2648 -0.0290  0.3721
 1109loPI   C4B17076  13.850   1.916   7.897  0.3368  0.1846  0.2786
 1110loPI    C117077  14.620  13.022   5.634  0.2648  0.0643  0.1682
 1110loPI    C217078  15.010  13.040   5.548  0.1733  0.1765 -0.2458
 1110loPI    C317079  14.781  12.758   5.381  0.0712  0.1222 -0.0183
 1110loPI   PO417080  14.634  13.048   5.930 -0.0009  0.1108  0.3260
 1110loPI   GL117081  14.704  12.887   6.314 -0.0662 -0.1146  0.1369
 1110loPI   GL217082  14.314  13.050   6.369  0.1029  0.0743 -0.0286
 1110loPI   C1A17083  14.617  12.715   6.649 -0.0754  0.1235  0.2057
 1110loPI   C2A17084  14.666  12.885   7.008 -0.2960 -0.0782 -0.1955
 1110loPI   C3A17085  14.613  12.767   7.464  0.2310 -0.1611  0.2478
 1110loPI   C4A17086  14.661  12.820   7.845  0.0213 -0.1161 -0.0394
 1110loPI   C5A17087  14.680  12.915   8.306  0.2694  0.1331  0.3988
 1110loPI   C6A17088  14.535  12.780   8.829 -0.0059 -0.0624 -0.0761
 1110loPI   C1B17089  14.228  13.073   6.759 -0.0982 -0.1080  0.1113
 1110loPI   C2B17090  14.280  13.123   7.299  0.0295  0.4133  0.0500
 1110loPI   C3B17091  14.333  13.307   7.638  0.0150  0.0072  0.3506
 1110loPI   C4B17092  14.375  13.233   8.071  0.0990  0.1066 -0.0355
 1111loPI    C117093   8.923  13.185   5.586 -0.1590  0.0516 -0.1230
 1111loPI    C217094   8.888  12.788   5.623 -0.0627  0.0648  0.1313
 1111loPI    C317095   9.118  12.943   5.334 -0.0441 -0.0650  0.0755
 1111loPI   PO417096   8.978  13.275   5.789 -0.1142  0.1094 -0.1146
 1111loPI   GL117097   9.091  13.092   6.246 -0.1092  0.2953 -0.2282
 1111loPI   GL217098   9.091  13.367   6.285 -0.3603  0.0870 -0.1865
 1111loPI   C1A17099   9.428  12.929   6.698  0.0569  0.3384 -0.0528
 1111loPI   C2A17100   9.407  12.926   7.114  0.1015 -0.1951  0.1739
 1111loPI   C3A17101   9.484  13.043   7.532 -0.1098 -0.2607  0.0357
 1111loPI   C4A17102   9.607  13.028   8.042 -0.0587  0.0848 -0.0519
 1111loPI   C5A17103  10.018  13.207   8.121  0.1263 -0.0978 -0.0633
 1111loPI   C6A17104  10.324  13.001   8.347  0.1558 -0.1864 -0.0124
 1111loPI   C1B17105   9.127  13.305   6.716 -0.0726  0.0561  0.3904
 1111loPI   C2B17106   9.036  13.337   7.113  0.2257  0.2637 -0.2839
 1111loPI   C3B17107   9.191  13.446   7.585 -0.4344  0.2557  0.2470
 1111loPI   C4B17108   9.177  13.351   8.024  0.0098 -0.0083  0.4551
 1112loPI    C117109   6.829   2.354   5.833 -0.2100 -0.2467  0.0607
 1112loPI    C217110   7.048   2.100   5.614 -0.3680 -0.4295  0.1117
 1112loPI    C317111   6.720   2.267   5.458 -0.1458 -0.0840  0.0038
 1112loPI   PO417112   6.818   2.282   6.089 -0.2677  0.1607 -0.0039
 1112loPI   GL117113   6.608   2.401   6.470  0.2198 -0.1494  0.4446
 1112loPI   GL217114   6.645   2.781   6.468  0.0862 -0.0410 -0.0775
 1112loPI   C1A17115   6.503   2.501   6.880 -0.0326  0.3804  0.0395
 1112loPI   C2A17116   6.450   2.482   7.303 -0.1345  0.0484 -0.4771
 1112loPI   C3A17117   6.460   2.517   7.753 -0.0127  0.0713 -0.2503
 1112loPI   C4A17118   6.300   2.428   8.243 -0.0861  0.0061 -0.0717
 1112loPI   C5A17119   6.124   2.356   8.676 -0.0113 -0.5204  0.1911
 1112loPI   C6A17120   6.029   1.982   8.866 -0.3811 -0.0136 -0.0363
 1112loPI   C1B17121   6.701   3.006   6.796 -0.0419 -0.3099  0.0660
 1112loPI   C2B17122   6.538   2.983   7.154  0.0810 -0.3627  0.1183
 1112loPI   C3B17123   6.595   2.989   7.551 -0.0718 -0.0323  0.0364
 1112loPI   C4B17124   6.452   2.950   8.063 -0.1798  0.2934  0.1318
 1113loPI    C117125   3.988   8.518   6.059 -0.0939  0.0569 -0.0928
 1113loPI    C217126   4.028   8.857   5.852 -0.1146  0.0035 -0.1852
 1113loPI    C317127   4.151   8.511   5.694 -0.1607 -0.0422 -0.1214
 1113loPI   PO417128   3.997   8.555   6.278 -0.0961  0.0312  0.1013
 1113loPI   GL117129   4.071   8.290   6.645  0.2179  0.2692 -0.1231
 1113loPI   GL217130   3.679   8.294   6.692  0.0711 -0.0424 -0.0603
 1113loPI   C1A17131   4.139   7.991   7.023 -0.0030  0.1461  0.1884
 1113loPI   C2A17132   4.165   7.850   7.368 -0.0642  0.2248 -0.1380
 1113loPI   C3A17133   4.191   7.924   7.729 -0.2040 -0.3240 -0.3024
 1113loPI   C4A17134   4.114   7.981   8.164  0.0039  0.1410 -0.0331
 1113loPI   C5A17135   4.425   7.911   8.510  0.2401 -0.1369  0.2111
 1113loPI   C6A17136   4.841   7.680   8.767 -0.0082 -0.1928 -0.0301
 1113loPI   C1B17137   3.746   8.363   7.082 -0.1440  0.2743  0.0349
 1113loPI   C2B17138   4.109   8.393   7.362 -0.0133  0.1600 -0.0554
 1113loPI   C3B17139   4.286   8.449   7.697  0.1859  0.0648  0.0727
 1113loPI   C4B17140   4.343   8.441   8.067  0.1560 -0.2996 -0.2055
 1114loPI    C117141  11.538   0.210   5.753 -0.0604  0.3674 -0.0947
 1114loPI    C217142  11.321  -0.111   5.655  0.4620 -0.0871  0.1811
 1114loPI    C317143  11.619   0.010   5.417  0.4150  0.0544  0.1934
 1114loPI   PO417144  11.652   0.058   6.065  0.2008  0.0033  0.0733
 1114loPI   GL117145  11.823  -0.320   6.260 -0.1284 -0.3000 -0.1725
 1114loPI   GL217146  12.059  -0.496   6.104 -0.1287  0.0273 -0.1499
 1114loPI   C1A17147  11.814  -0.394   6.660  0.1104 -0.0109  0.0075
 1114loPI   C2A17148  11.756  -0.485   7.161  0.3505  0.0691 -0.1037
 1114loPI   C3A17149  11.698  -0.483   7.690 -0.0697 -0.1943  0.1325
 1114loPI   C4A17150  11.906  -0.414   7.990  0.2043  0.2159 -0.1792
 1114loPI   C5A17151  11.844  -0.513   8.462  0.0237 -0.0405 -0.1266
 1114loPI   C6A17152  11.703  -0.285   8.764 -0.2469  0.0361  0.0069
 1114loPI   C1B17153  12.142  -0.726   6.433 -0.3861 -0.0739  0.1642
 1114loPI   C2B17154  12.123  -0.920   6.869 -0.0193 -0.0474 -0.0464
 1114loPI   C3B17155  12.155  -0.862   7.318 -0.0161 -0.1165 -0.1045
 1114loPI   C4B17156  12.173  -0.820   7.722  0.0445 -0.0485  0.1356
 1115loPI    C117157   5.159   6.761   6.026  0.2601  0.1969 -0.0008
 1115loPI    C217158   5.430   6.583   6.261  0.1527  0.2044  0.1300
 1115loPI    C317159   5.491   6.605   5.866  0.0389 -0.3738  0.0714
 1115loPI   PO417160   5.031   6.949   6.202 -0.1430  0.1007  0.0137
 1115loPI   GL117161   5.192   7.020   6.567 -0.0257 -0.2693 -0.0399
 1115loPI   GL217162   4.986   7.343   6.660 -0.1940  0.2391  0.3650
 1115loPI   C1A17163   5.329   6.820   6.989  0.1237 -0.0486 -0.1282
 1115loPI   C2A17164   5.397   6.809   7.392  0.1057  0.1412 -0.1075
 1115loPI   C3A17165   5.288   6.778   7.855 -0.0021  0.1085 -0.0694
 1115loPI   C4A17166   5.311   6.787   8.230 -0.0207  0.3211  0.1545
 1115loPI   C5A17167   5.302   7.018   8.627 -0.1696 -0.0543  0.0926
 1115loPI   C6A17168   5.277   7.517   8.637 -0.1712  0.1618 -0.3399
 1115loPI   C1B17169   4.936   7.277   7.033  0.0594 -0.4451 -0.0271
 1115loPI   C2B17170   4.957   7.207   7.506  0.3197 -0.1864  0.1104
 1115loPI   C3B17171   4.869   7.204   7.904 -0.1835 -0.0851  0.2770
 1115loPI   C4B17172   4.830   7.355   8.347 -0.0493 -0.0568  0.2742
 1116loPI    C117173  15.115  15.138   5.410 -0.5073  0.0637  0.0069
 1116loPI    C217174  15.133  15.332   5.061 -0.0638  0.0650  0.0247
 1116loPI    C317175  15.121  14.932   5.067 -0.0737  0.0650  0.0079
 1116loPI   PO417176  14.930  15.290   5.572 -0.0139  0.0956  0.1277
 1116loPI   GL117177  15.014  15.401   6.034 -0.1422 -0.2454  0.2149
 1116loPI   GL217178  15.101  15.170   6.046 -0.0986  0.0012  0.0867
 1116loPI   C1A17179  15.048  15.654   6.411  0.1084 -0.1125  0.0439
 1116loPI   C2A17180  14.983  15.640   6.809 -0.2989  0.0643 -0.0687
 1116loPI   C3A17181  15.050  15.665   7.257 -0.1684 -0.3090  0.0738
 1116loPI   C4A17182  15.092  15.734   7.669  0.3127  0.0514  0.1987
 1116loPI   C5A17183  15.031  15.542   8.105  0.0377 -0.0469 -0.3793
 1116loPI   C6A17184  14.999  15.257   8.445 -0.2733  0.0058  0.1961
 1116loPI   C1B17185  14.888  15.159   6.439 -0.1003 -0.1789  0.0296
 1116loPI   C2B17186  14.843  15.140   6.793  0.1357  0.3379  0.1640
 1116loPI   C3B17187  14.934  15.179   7.098 -0.2701 -0.5209 -0.0973
 1116loPI   C4B17188  14.932  15.236   7.567  0.1497  0.0024  0.0504
 1117loPI    C117189  16.193  10.375   6.120 -0.1811  0.1070  0.0455
 1117loPI    C217190  16.032  10.086   5.896  0.0486 -0.0300  0.0536
 1117loPI    C317191  16.279  10.353   5.730 -0.3380  0.3025 -0.0013
 1117loPI   PO417192  16.249  10.281   6.288 -0.1926 -0.0551  0.0625
 1117loPI   GL117193  16.359  10.378   6.679  0.0548 -0.1085  0.0351
 1117loPI   GL217194  16.517  10.672   6.724  0.1753 -0.3323 -0.1248
 1117loPI   C1A17195  16.064  10.585   6.920 -0.0535 -0.2053  0.0626
 1117loPI   C2A17196  15.845  10.796   7.137  0.1675 -0.3246  0.1983
 1117loPI   C3A17197  15.899  10.942   7.473  0.1194  0.0198  0.2618
 1117loPI   C4A17198  15.842  10.830   7.888  0.0284 -0.1126 -0.0491
 1117loPI   C5A17199  16.105  10.779   8.259  0.0600 -0.1349  0.2483
 1117loPI   C6A17200  16.423  10.779   8.614  0.0946  0.0862  0.0185
 1117loPI   C1B17201  16.630  10.413   7.104 -0.0667 -0.0345  0.2461
 1117loPI   C2B17202  16.805  10.430   7.441 -0.2493 -0.2284 -0.1151
 1117loPI   C3B17203  17.065  10.571   7.800 -0.1479 -0.2400 -0.0594
 1117loPI   C4B17204  17.310  10.643   8.121  0.1640  0.1341  0.3691
 1118loPI    C117205   7.519   2.958   5.765 -0.1359 -0.2715  0.0357
 1118loPI    C217206   7.360   3.245   5.536 -0.0761  0.1149  0.4627
 1118loPI    C317207   7.634   2.997   5.384 -0.3765  0.0584 -0.0084
 1118loPI   PO417208   7.484   3.016   6.049  0.1250 -0.1025 -0.2116
 1118loPI   GL117209   7.465   3.233   6.333 -0.0523 -0.1189 -0.2254
 1118loPI   GL217210   7.713   3.464   6.448 -0.1953 -0.1636 -0.3693
 1118loPI   C1A17211   7.637   3.104   6.745  0.0484  0.3687  0.2219
 1118loPI   C2A17212   7.606   3.206   7.198  0.2919 -0.1575  0.2526
 1118loPI   C3A17213   7.596   3.200   7.536  0.4724 -0.2313 -0.1290
 1118loPI   C4A17214   7.579   3.244   7.975  0.1330  0.1807  0.1851
 1118loPI   C5A17215   7.498   3.204   8.363 -0.1805 -0.1677  0.0810
 1118loPI   C6A17216   7.476   3.280   8.766 -0.3016  0.0214 -0.0804
 1118loPI   C1B17217   7.740   3.618   6.837  0.3796 -0.1443  0.2623
 1118loPI   C2B17218   7.811   3.668   7.175  0.2348  0.1567 -0.1871
 1118loPI   C3B17219   7.633   3.686   7.597 -0.1899  0.1690  0.0120
 1118loPI   C4B17220   7.714   3.764   8.055  0.3788  0.0700 -0.3318
 1119loPI    C117221  10.615  11.472   5.648  0.1755 -0.1026  0.0194
 1119loPI    C217222  10.364  11.189   5.778  0.0175  0.0002 -0.0589
 1119loPI    C317223  10.370  11.288   5.391  0.0612  0.1148 -0.0295
 1119loPI   PO417224  10.750  11.459   5.924  0.2236 -0.0558  0.0341
 1119loPI   GL117225  10.632  11.449   6.233  0.0855 -0.1487 -0.0045
 1119loPI   GL217226  10.383  11.180   6.260 -0.1513  0.1084  0.0333
 1119loPI   C1A17227  10.786  11.499   6.632 -0.1554 -0.0055 -0.2134
 1119loPI   C2A17228  10.932  11.504   7.067 -0.0969 -0.0095 -0.0053
 1119loPI   C3A17229  10.908  11.453   7.519 -0.0991 -0.0370 -0.0394
 1119loPI   C4A17230  10.951  11.367   8.024 -0.1422  0.1163  0.0745
 1119loPI   C5A17231  11.029  11.357   8.438  0.2410 -0.1150  0.1931
 1119loPI   C6A17232  11.020  11.060   8.770  0.0474 -0.0623 -0.1093
 1119loPI   C1B17233  10.367  11.271   6.678 -0.1051  0.0476 -0.0275
 1119loPI   C2B17234  10.320  11.257   7.078 -0.1460  0.0300 -0.3276
 1119loPI   C3B17235  10.392  11.279   7.506  0.2456  0.2197 -0.3166
 1119loPI   C4B17236  10.430  11.172   7.878 -0.0131  0.1377 -0.0513
 1120loPI    C117237  15.406  13.819   5.697 -0.0514  0.0479  0.0179
 1120loPI    C217238  15.651  13.512   5.774  0.2107  0.2835  0.1445
 1120loPI    C317239  15.259  13.448   5.724  0.2642 -0.0714  0.1502
 1120loPI   PO417240  15.433  13.961   5.843 -0.0340 -0.2087  0.0809
 1120loPI   GL117241  15.260  13.829   6.231 -0.3057  0.0289  0.0384
 1120loPI   GL217242  15.325  13.562   6.177 -0.0308 -0.0959 -0.0101
 1120loPI   C1A17243  15.406  13.827   6.707 -0.2677 -0.0399 -0.1873
 1120loPI   C2A17244  15.440  13.855   7.166  0.0985  0.3404  0.2222
 1120loPI   C3A17245  15.481  14.020   7.715 -0.1533 -0.2566  0.1038
 1120loPI   C4A17246  15.492  13.930   8.047 -0.2166  0.0811  0.0985
 1120loPI   C5A17247  15.498  13.920   8.538 -0.0780  0.1314  0.0304
 1120loPI   C6A17248  15.845  14.191   8.814 -0.0772 -0.4557 -0.1402
 1120loPI   C1B17249  15.276  13.403   6.508  0.0307  0.2995 -0.2526
 1120loPI   C2B17250  15.349  13.346   6.929  0.0041  0.3123 -0.2245
 1120loPI   C3B17251  15.285  13.446   7.384 -0.2417 -0.0242  0.0644
 1120loPI   C4B17252  15.349  13.435   7.780  0.1901 -0.0039  0.2033
 1121loPI    C117253  11.674   0.768   5.816 -0.1675 -0.1965  0.0943
 1121loPI    C217254  11.758   0.589   5.468  0.1409  0.1626 -0.0235
 1121loPI    C317255  11.383   0.701   5.551  0.0706  0.1022 -0.2534
 1121loPI   PO417256  11.856   0.616   6.060  0.0007  0.2763 -0.2487
 1121loPI   GL117257  11.849   0.439   6.382 -0.1016 -0.0042 -0.3819
 1121loPI   GL217258  11.665   0.636   6.498 -0.3037  0.4121  0.2709
 1121loPI   C1A17259  11.874   0.173   6.645 -0.1596  0.0069  0.1031
 1121loPI   C2A17260  11.984   0.008   6.980  0.0582 -0.0336 -0.1172
 1121loPI   C3A17261  11.942  -0.005   7.377  0.0179  0.1900 -0.0756
 1121loPI   C4A17262  11.771   0.152   7.767 -0.0167  0.0630  0.1107
 1121loPI   C5A17263  11.884   0.103   8.161 -0.0229 -0.0423  0.0277
 1121loPI   C6A17264  11.770   0.180   8.600 -0.0558  0.3419  0.0281
 1121loPI   C1B17265  11.583   0.507   7.026 -0.1750 -0.0055  0.0990
 1121loPI   C2B17266  11.490   0.526   7.416  0.1120 -0.0560  0.4985
 1121loPI   C3B17267  11.336   0.434   7.840  0.1456  0.2377  0.1455
 1121loPI   C4B17268  11.353   0.258   8.341  0.0240  0.1580 -0.2530
 1122loPI    C117269  13.215  17.173   5.491  0.0766  0.1796 -0.1223
 1122loPI    C217270  13.435  16.942   5.249  0.1237  0.0896  0.0051
 1122loPI    C317271  13.151  16.778   5.479  0.2167  0.1457  0.1610
 1122loPI   PO417272  13.399  17.348   5.646  0.0461 -0.1016 -0.4296
 1122loPI   GL117273  13.615  17.423   6.046  0.3046  0.1655 -0.1740
 1122loPI   GL217274  13.317  17.417   6.214 -0.0574  0.0752 -0.1844
 1122loPI   C1A17275  13.714  17.219   6.441 -0.1236  0.0456 -0.1973
 1122loPI   C2A17276  13.645  17.177   6.886  0.0875  0.0082 -0.2774
 1122loPI   C3A17277  13.638  17.113   7.347  0.0903 -0.0432  0.0954
 1122loPI   C4A17278  13.619  17.191   7.788  0.3566 -0.0923  0.0519
 1122loPI   C5A17279  13.753  17.199   8.181  0.0429 -0.0275 -0.2638
 1122loPI   C6A17280  14.157  17.329   8.432  0.1599  0.3099  0.0947
 1122loPI   C1B17281  13.311  17.501   6.626 -0.1040  0.1706  0.0930
 1122loPI   C2B17282  13.274  17.455   7.110  0.2828  0.3344 -0.0355
 1122loPI   C3B17283  13.308  17.402   7.469 -0.2438 -0.2073  0.1164
 1122loPI   C4B17284  13.213  17.508   7.817  0.0000  0.3789  0.0916
 1123loPI    C117285   9.559  11.564   5.350  0.2338 -0.0327  0.0818
 1123loPI    C217286   9.826  11.416   5.092  0.2194  0.0557  0.0157
 1123loPI    C317287   9.648  11.766   5.017 -0.1116 -0.1261 -0.0726
 1123loPI   PO417288   9.467  11.337   5.448  0.0287  0.1833 -0.2462
 1123loPI   GL117289   9.467  11.376   5.961  0.0599  0.0412  0.2225
 1123loPI   GL217290   9.395  11.086   6.221  0.1283 -0.0512 -0.0052
 1123loPI   C1A17291   9.626  11.533   6.365  0.1774 -0.3497 -0.0542
 1123loPI   C2A17292   9.575  11.671   6.794  0.0580 -0.0906 -0.1946
 1123loPI   C3A17293   9.570  11.600   7.137 -0.0188 -0.0798 -0.1701
 1123loPI   C4A17294   9.587  11.671   7.538  0.3141  0.0062 -0.1541
 1123loPI   C5A17295   9.433  11.525   8.077 -0.2293  0.0315  0.0063
 1123loPI   C6A17296   9.010  11.475   8.220  0.1930 -0.2147  0.1368
 1123loPI   C1B17297   9.402  11.149   6.669  0.3322  0.0257 -0.0375
 1123loPI   C2B17298   9.346  11.066   7.095  0.0729  0.1743  0.0313
 1123loPI   C3B17299   9.420  11.124   7.534 -0.1184  0.2786  0.1452
 1123loPI   C4B17300   9.487  11.038   7.953  0.3580 -0.2588  0.0809
 1124loPI    C117301   2.722  11.289   5.726  0.1357  0.1394 -0.0820
 1124loPI    C217302   3.108  11.188   5.723  0.0865 -0.0501 -0.1375
 1124loPI    C317303   2.922  11.275   5.380  0.0868  0.0690 -0.1077
 1124loPI   PO417304   2.676  11.382   5.985 -0.1235  0.0078 -0.1537
 1124loPI   GL117305   2.764  11.398   6.391  0.1396 -0.1197 -0.0656
 1124loPI   GL217306   2.629  11.634   6.578  0.0480  0.0373 -0.2447
 1124loPI   C1A17307   3.049  11.320   6.692  0.1187 -0.0817 -0.0916
 1124loPI   C2A17308   3.224  11.440   7.064  0.0969 -0.1057 -0.0444
 1124loPI   C3A17309   3.303  11.480   7.536  0.2769  0.0582  0.2884
 1124loPI   C4A17310   3.258  11.510   8.011  0.3185  0.1863  0.2220
 1124loPI   C5A17311   3.317  11.456   8.402  0.0888 -0.1686 -0.0052
 1124loPI   C6A17312   3.629  11.345   8.668  0.3275  0.0918 -0.1493
 1124loPI   C1B17313   2.785  11.677   6.988  0.0816 -0.1665  0.4053
 1124loPI   C2B17314   2.954  11.794   7.330 -0.0936  0.0515 -0.2033
 1124loPI   C3B17315   2.969  11.829   7.758 -0.2559 -0.0840  0.2670
 1124loPI   C4B17316   2.887  11.849   8.303 -0.2593 -0.1178  0.2609
 1125loPI    C117317   4.897  10.263   5.946  0.1489  0.2710  0.1378
 1125loPI    C217318   5.245  10.068   5.964  0.0728  0.1029 -0.1498
 1125loPI    C317319   5.219  10.412   5.762  0.1377  0.2657  0.1138
 1125loPI   PO417320   4.806  10.277   6.187 -0.1437  0.0224 -0.2117
 1125loPI   GL117321   4.948  10.258   6.568 -0.1090  0.4493 -0.2124
 1125loPI   GL217322   5.113  10.044   6.529 -0.0532 -0.0552 -0.0004
 1125loPI   C1A17323   4.806  10.457   6.898 -0.2195 -0.0204  0.1382
 1125loPI   C2A17324   4.831  10.419   7.321  0.1289 -0.0207 -0.0189
 1125loPI   C3A17325   4.851  10.449   7.716 -0.0216 -0.2346 -0.3541
 1125loPI   C4A17326   5.066  10.596   8.043 -0.1090 -0.0636  0.1082
 1125loPI   C5A17327   5.117  10.611   8.418  0.1042 -0.1606 -0.0236
 1125loPI   C6A17328   5.152  10.349   8.766 -0.0583 -0.2029  0.1217
 1125loPI   C1B17329   5.235  10.104   6.996 -0.0553  0.0741  0.1743
 1125loPI   C2B17330   5.288  10.183   7.479 -0.0615  0.1235 -0.0898
 1125loPI   C3B17331   5.242  10.158   7.898 -0.3731 -0.1010  0.0979
 1125loPI   C4B17332   5.370  10.061   8.331 -0.3251  0.1843  0.2322
 1126loPI    C117333   3.632  16.246   5.913 -0.1340 -0.2695 -0.1835
 1126loPI    C217334   3.857  16.185   5.588 -0.1065 -0.2823 -0.1620
 1126loPI    C317335   3.622  16.508   5.611 -0.0412 -0.2349 -0.1567
 1126loPI   PO417336   3.706  16.034   6.008 -0.2888  0.1540 -0.3373
 1126loPI   GL117337   3.812  16.085   6.372  0.1415 -0.2208 -0.0285
 1126loPI   GL217338   3.776  16.279   6.592  0.1605 -0.2204 -0.1413
 1126loPI   C1A17339   4.022  15.901   6.830  0.0669 -0.1097 -0.1066
 1126loPI   C2A17340   4.121  15.910   7.259  0.2789 -0.4363 -0.0062
 1126loPI   C3A17341   4.142  15.821   7.665  0.3042 -0.0550  0.1329
 1126loPI   C4A17342   4.119  15.984   8.132  0.4089 -0.0323  0.2669
 1126loPI   C5A17343   3.776  15.799   8.481  0.1814  0.2617  0.0774
 1126loPI   C6A17344   3.783  15.458   8.867  0.2165  0.3787 -0.0389
 1126loPI   C1B17345   3.785  16.256   7.106  0.0036 -0.3511  0.0850
 1126loPI   C2B17346   3.857  16.222   7.590  0.1572  0.0180  0.1360
 1126loPI   C3B17347   3.820  16.366   7.989  0.0931  0.3577 -0.0861
 1126loPI   C4B17348   3.522  16.317   8.300 -0.1838 -0.0870  0.0576
 1127loPI    C117349   7.725   7.541   5.860  0.0555 -0.1545 -0.2122
 1127loPI    C217350   8.075   7.558   5.666  0.1492  0.0292 -0.0306
 1127loPI    C317351   7.740   7.679   5.485  0.1933 -0.0586 -0.1724
 1127loPI   PO417352   7.736   7.656   6.064 -0.2063 -0.3342  0.2616
 1127loPI   GL117353   7.530   7.885   6.271 -0.0212  0.0189  0.1818
 1127loPI   GL217354   7.737   8.127   6.320 -0.2327 -0.1773 -0.1166
 1127loPI   C1A17355   7.536   7.799   6.669 -0.0933 -0.2113 -0.3696
 1127loPI   C2A17356   7.474   7.873   7.119  0.1834 -0.0008 -0.3706
 1127loPI   C3A17357   7.429   7.855   7.588 -0.0079 -0.1901 -0.0632
 1127loPI   C4A17358   7.468   7.939   7.979 -0.1229  0.2093  0.0652
 1127loPI   C5A17359   7.502   8.112   8.474  0.0712  0.1196  0.1318
 1127loPI   C6A17360   7.433   8.408   8.841 -0.2405 -0.1061 -0.2820
 1127loPI   C1B17361   7.620   8.342   6.703 -0.2212 -0.1140 -0.0346
 1127loPI   C2B17362   7.672   8.325   7.156  0.3922 -0.1203  0.2354
 1127loPI   C3B17363   7.621   8.444   7.585 -0.2414  0.0195  0.2459
 1127loPI   C4B17364   7.605   8.413   8.022  0.0144 -0.0361 -0.0469
 1128loPI    C117365  17.509   5.730   5.831  0.2232 -0.1543  0.1848
 1128loPI    C217366  17.863   5.595   5.703  0.1047 -0.1145 -0.1981
 1128loPI    C317367  17.665   5.869   5.490 -0.0316  0.0696  0.1564
 1128loPI   PO417368  17.510   5.736   6.194  0.2500 -0.0074  0.3515
 1128loPI   GL117369  17.638   5.467   6.459  0.0507  0.1800 -0.0629
 1128loPI   GL217370  17.256   5.613   6.601 -0.2607  0.1072  0.0342
 1128loPI   C1A17371  17.752   5.260   6.779  0.0327  0.0508 -0.0210
 1128loPI   C2A17372  17.713   5.117   7.186 -0.0266 -0.1706 -0.0296
 1128loPI   C3A17373  17.674   5.130   7.618 -0.1236  0.1008  0.2291
 1128loPI   C4A17374  17.633   4.976   7.985  0.0846  0.2165  0.0063
 1128loPI   C5A17375  17.423   4.599   8.169  0.0449 -0.0142  0.1470
 1128loPI   C6A17376  17.348   4.285   8.483  0.1267  0.2913 -0.0936
 1128loPI   C1B17377  17.408   5.551   7.028  0.1252  0.3880 -0.2034
 1128loPI   C2B17378  17.373   5.480   7.471  0.3190  0.1426 -0.1136
 1128loPI   C3B17379  17.247   5.441   7.964  0.0916 -0.2172 -0.2357
 1128loPI   C4B17380  17.390   5.369   8.311 -0.0842 -0.0865 -0.0064
 1129loPI    C117381   7.750   1.974   5.949  0.2712  0.3283  0.1749
 1129loPI    C217382   7.856   2.197   5.634  0.2601 -0.0507 -0.1034
 1129loPI    C317383   7.522   1.978   5.620  0.1611  0.0721  0.2462
 1129loPI   PO417384   7.747   2.094   6.145  0.0101  0.0445 -0.1211
 1129loPI   GL117385   7.706   2.352   6.459 -0.0238 -0.2800  0.1441
 1129loPI   GL217386   7.568   2.683   6.471 -0.1460  0.2441 -0.2215
 1129loPI   C1A17387   7.866   2.249   6.824  0.0474 -0.1980 -0.2202
 1129loPI   C2A17388   7.839   2.285   7.276  0.2089 -0.0487 -0.0568
 1129loPI   C3A17389   7.764   2.278   7.669 -0.1533 -0.1596 -0.0871
 1129loPI   C4A17390   7.664   2.359   8.067 -0.2400  0.2177  0.2342
 1129loPI   C5A17391   7.709   2.544   8.493 -0.3445  0.1403  0.0760
 1129loPI   C6A17392   7.905   2.772   8.761 -0.0356 -0.0182  0.2914
 1129loPI   C1B17393   7.522   2.656   6.970  0.1997 -0.1683  0.0329
 1129loPI   C2B17394   7.477   2.763   7.414  0.0465 -0.0416  0.1659
 1129loPI   C3B17395   7.447   2.789   7.861  0.1066 -0.0088 -0.0274
 1129loPI   C4B17396   7.326   2.667   8.201 -0.1978  0.0460 -0.0339
 1130loPI    C117397   5.289  16.092   5.793 -0.0413 -0.0241 -0.1338
 1130loPI    C217398   5.407  16.434   5.622 -0.2956  0.0485 -0.1692
 1130loPI    C317399   5.253  16.141   5.397  0.1937 -0.2105 -0.1803
 1130loPI   PO417400   5.496  16.095   5.981  0.1129 -0.0219  0.2676
 1130loPI   GL117401   5.342  16.144   6.354 -0.0485  0.0164 -0.0777
 1130loPI   GL217402   5.462  15.802   6.519  0.0962  0.1291  0.0695
 1130loPI   C1A17403   5.200  16.198   6.760  0.3598 -0.1644  0.2518
 1130loPI   C2A17404   5.126  16.131   7.178 -0.1633  0.1735 -0.1526
 1130loPI   C3A17405   5.171  16.112   7.605  0.1733  0.0065 -0.1841
 1130loPI   C4A17406   5.201  16.023   8.040  0.0170  0.2347 -0.1814
 1130loPI   C5A17407   5.167  15.962   8.343  0.2821 -0.0402  0.0875
 1130loPI   C6A17408   5.424  16.230   8.497  0.0611  0.0415 -0.0379
 1130loPI   C1B17409   5.525  15.782   6.979 -0.2314 -0.1387  0.2625
 1130loPI   C2B17410   5.451  15.776   7.386  0.2037  0.0475 -0.2422
 1130loPI   C3B17411   5.602  15.625   7.754 -0.2803 -0.3346 -0.2411
 1130loPI   C4B17412   5.574  15.698   8.150 -0.0324  0.2897 -0.0182
 1131loPI    C117413   5.959   7.175   5.845  0.1585  0.0712 -0.0340
 1131loPI    C217414   5.579   7.127   5.959  0.2808 -0.1256  0.3076
 1131loPI    C317415   5.693   7.018   5.591 -0.0653  0.2684  0.0744
 1131loPI   PO417416   6.104   7.093   6.067 -0.0290 -0.3174 -0.2399
 1131loPI   GL117417   6.281   6.946   6.409  0.0137  0.0025  0.0636
 1131loPI   GL217418   6.563   6.813   6.390 -0.1412 -0.0971  0.0099
 1131loPI   C1A17419   6.433   7.152   6.805 -0.1698  0.0265 -0.1757
 1131loPI   C2A17420   6.439   7.170   7.230  0.0956  0.3350  0.0115
 1131loPI   C3A17421   6.401   7.184   7.675 -0.1354  0.1377 -0.1221
 1131loPI   C4A17422   6.381   6.975   8.111  0.2082  0.3961  0.1357
 1131loPI   C5A17423   6.380   6.867   8.564 -0.1620  0.1065  0.0572
 1131loPI   C6A17424   6.504   6.736   8.881  0.1733 -0.0928 -0.2797
 1131loPI   C1B17425   6.656   6.649   6.883 -0.0968 -0.2118 -0.0326
 1131loPI   C2B17426   6.824   6.744   7.279  0.2984  0.1091 -0.1579
 1131loPI   C3B17427   6.692   6.740   7.695  0.0770 -0.0192 -0.1447
 1131loPI   C4B17428   6.797   6.751   8.085 -0.1874  0.2469 -0.1488
 1132loPI    C117429  10.354   8.219   6.026 -0.2315 -0.4375  0.1552
 1132loPI    C217430  10.604   8.158   5.720  0.0056 -0.1408  0.2850
 1132loPI    C317431  10.219   8.055   5.687  0.0289 -0.1151 -0.1110
 1132loPI   PO417432  10.323   8.183   6.287  0.0582 -0.0335 -0.4194
 1132loPI   GL117433  10.559   8.176   6.676  0.3010  0.0458  0.0420
 1132loPI   GL217434  10.262   8.174   6.897 -0.2080 -0.2661  0.0714
 1132loPI   C1A17435  10.779   8.148   7.103 -0.1629  0.1253  0.1369
 1132loPI   C2A17436  11.073   8.097   7.425 -0.1244 -0.2744 -0.0175
 1132loPI   C3A17437  11.073   8.191   7.817  0.0319  0.2002 -0.0718
 1132loPI   C4A17438  10.957   8.219   8.251  0.3358  0.0731  0.1076
 1132loPI   C5A17439  10.909   8.441   8.630 -0.1974 -0.0847 -0.0014
 1132loPI   C6A17440  11.326   8.440   8.850  0.0482 -0.0551 -0.1567
 1132loPI   C1B17441  10.288   8.060   7.349  0.0734 -0.2132 -0.1532
 1132loPI   C2B17442  10.505   8.116   7.736  0.1619  0.2134  0.3419
 1132loPI   C3B17443  10.500   8.050   8.214 -0.0068 -0.0470  0.1144
 1132loPI   C4B17444  10.536   7.992   8.704 -0.1816 -0.0510  0.2150
 1133loPI    C117445  16.920  14.340   5.520 -0.0895 -0.2542  0.0094
 1133loPI    C217446  16.989  14.609   5.233  0.0881 -0.2351  0.0690
 1133loPI    C317447  16.881  14.236   5.136  0.1155 -0.2198 -0.0216
 1133loPI   PO417448  17.110  14.379   5.697 -0.2206 -0.4286 -0.1793
 1133loPI   GL117449  17.169  14.378   6.154  0.0038 -0.0294 -0.1813
 1133loPI   GL217450  17.483  14.233   6.216  0.0170 -0.2209  0.1557
 1133loPI   C1A17451  16.908  14.203   6.559  0.2935  0.1969 -0.4391
 1133loPI   C2A17452  16.976  14.286   6.915 -0.2122  0.1354  0.1995
 1133loPI   C3A17453  16.893  14.247   7.362  0.1948  0.1269 -0.0870
 1133loPI   C4A17454  16.912  14.198   7.864 -0.2163  0.1249 -0.0609
 1133loPI   C5A17455  17.085  14.358   8.230  0.0226 -0.2340 -0.3873
 1133loPI   C6A17456  17.600  14.253   8.433 -0.1173 -0.1290  0.1629
 1133loPI   C1B17457  17.438  14.397   6.583 -0.1341 -0.0913 -0.2368
 1133loPI   C2B17458  17.441  14.364   7.033  0.6023 -0.0983  0.0433
 1133loPI   C3B17459  17.518  14.413   7.352  0.1100  0.2717  0.2493
 1133loPI   C4B17460  17.517  14.372   7.749 -0.2425  0.1737  0.2062
 1134loPI    C117461   0.997  14.805   5.600 -0.0629  0.2286 -0.1207
 1134loPI    C217462   0.938  15.197   5.545  0.0139  0.2026 -0.4018
 1134loPI    C317463   1.272  15.024   5.410  0.0724  0.0755 -0.1030
 1134loPI   PO417464   0.991  14.762   5.853  0.1444  0.1386  0.2207
 1134loPI   GL117465   0.802  14.607   6.194 -0.3679  0.0968 -0.0911
 1134loPI   GL217466   1.189  14.818   6.326 -0.1375 -0.0397 -0.1523
 1134loPI   C1A17467   0.852  14.563   6.626  0.1147  0.2067 -0.1957
 1134loPI   C2A17468   0.809  14.644   7.041 -0.6461  0.3326 -0.0470
 1134loPI   C3A17469   0.893  14.624   7.397  0.1092 -0.0917 -0.2543
 1134loPI   C4A17470   1.091  14.605   7.804  0.0997  0.1976 -0.1766
 1134loPI   C5A17471   0.984  14.534   8.288  0.2068 -0.0046  0.0418
 1134loPI   C6A17472   0.622  14.300   8.527 -0.1915 -0.4942  0.1114
 1134loPI   C1B17473   1.288  14.821   6.753  0.4376 -0.1569 -0.0540
 1134loPI   C2B17474   1.376  14.795   7.164 -0.0461  0.0742  0.0788
 1134loPI   C3B17475   1.437  14.858   7.533  0.2761 -0.0152  0.0371
 1134loPI   C4B17476   1.569  14.718   7.886  0.3312  0.0540 -0.2052
 1135loPI    C117477  14.126   5.133   5.869  0.2325 -0.0168 -0.2170
 1135loPI    C217478  13.744   5.036   5.801  0.1406  0.0265  0.2054
 1135loPI    C317479  14.034   4.881   5.572 -0.1361  0.0961 -0.2031
 1135loPI   PO417480  14.117   5.200   6.087 -0.0631 -0.2258 -0.1007
 1135loPI   GL117481  14.167   5.028   6.456  0.2316 -0.1059  0.0377
 1135loPI   GL217482  14.341   4.635   6.453  0.2345 -0.1000  0.1527
 1135loPI   C1A17483  14.109   4.992   6.895 -0.1100 -0.1095 -0.0762
 1135loPI   C2A17484  14.266   4.858   7.299 -0.0368 -0.2114  0.2711
 1135loPI   C3A17485  14.272   4.776   7.735  0.2570 -0.2696 -0.1268
 1135loPI   C4A17486  14.361   4.756   8.098  0.0874  0.0698 -0.0981
 1135loPI   C5A17487  14.317   4.997   8.453 -0.0217 -0.0016  0.3747
 1135loPI   C6A17488  14.480   5.400   8.438  0.0575  0.0827 -0.0221
 1135loPI   C1B17489  14.049   4.501   6.761 -0.1408  0.0240 -0.2031
 1135loPI   C2B17490  14.131   4.422   7.181  0.1712  0.0895 -0.3677
 1135loPI   C3B17491  14.102   4.324   7.627 -0.0760  0.3368  0.2651
 1135loPI   C4B17492  14.105   4.270   8.032 -0.1636  0.1505 -0.4333
 1136loPI    C117493   3.818   2.984   5.836 -0.0760  0.0795 -0.2274
 1136loPI    C217494   4.174   3.157   5.775 -0.0070  0.0217  0.0040
 1136loPI    C317495   3.896   3.165   5.488  0.0514  0.3790 -0.0468
 1136loPI   PO417496   3.732   3.139   6.121  0.1315  0.0449  0.1251
 1136loPI   GL117497   3.404   3.201   6.334 -0.3586  0.0915 -0.1538
 1136loPI   GL217498   3.431   3.639   6.528  0.0840 -0.4540 -0.1057
 1136loPI   C1A17499   3.216   3.145   6.717  0.0332 -0.3144  0.1865
 1136loPI   C2A17500   3.255   3.143   7.185 -0.0992  0.0654  0.1013
 1136loPI   C3A17501   3.267   3.169   7.634 -0.2475  0.1773 -0.1290
 1136loPI   C4A17502   3.275   3.002   7.906  0.0571  0.1752  0.0661
 1136loPI   C5A17503   3.343   3.047   8.302  0.1300  0.1039 -0.1620
 1136loPI   C6A17504   3.587   3.315   8.641 -0.1278 -0.0426  0.0601
 1136loPI   C1B17505   3.357   3.604   6.893  0.4334  0.1922 -0.0812
 1136loPI   C2B17506   3.376   3.575   7.403  0.0476  0.0710  0.2131
 1136loPI   C3B17507   3.422   3.630   7.792  0.2213 -0.1458 -0.2131
 1136loPI   C4B17508   3.289   3.573   8.284  0.2836 -0.2327  0.1663
 1137loPI    C117509  10.147   0.224   6.069 -0.2893 -0.0607 -0.1887
 1137loPI    C217510  10.233  -0.037   5.778  0.2643 -0.0383 -0.0573
 1137loPI    C317511  10.199   0.352   5.693  0.0103 -0.0798 -0.1564
 1137loPI   PO417512  10.214   0.088   6.255  0.0391 -0.0925 -0.0542
 1137loPI   GL117513  10.025   0.089   6.588  0.0870  0.2917 -0.2578
 1137loPI   GL217514   9.753  -0.068   6.658  0.0603 -0.0995 -0.0302
 1137loPI   C1A17515  10.139   0.108   7.071  0.0308 -0.0329  0.0413
 1137loPI   C2A17516   9.992   0.084   7.450 -0.0052 -0.0586  0.1693
 1137loPI   C3A17517   9.875   0.014   7.909  0.0901 -0.1831 -0.2089
 1137loPI   C4A17518  10.066   0.006   8.377  0.3960 -0.0439 -0.1354
 1137loPI   C5A17519  10.321   0.108   8.583  0.2013 -0.3222 -0.0622
 1137loPI   C6A17520  10.504  -0.021   8.895 -0.0827  0.3007 -0.0473
 1137loPI   C1B17521   9.670  -0.080   7.009 -0.6373 -0.3334 -0.0165
 1137loPI   C2B17522   9.455  -0.083   7.424  0.1579 -0.0455 -0.2500
 1137loPI   C3B17523   9.334  -0.027   7.823 -0.2051  0.0624  0.1945
 1137loPI   C4B17524   9.492  -0.133   8.190 -0.0892  0.3148  0.0581
 1138loPI    C117525  11.308   9.627   5.816  0.3150 -0.0041 -0.1421
 1138loPI    C217526  11.376   9.888   5.521 -0.1331  0.0663 -0.1908
 1138loPI    C317527  11.085   9.616   5.484  0.0337 -0.1492  0.0475
 1138loPI   PO417528  11.361   9.738   6.050  0.1978 -0.0605 -0.0805
 1138loPI   GL117529  11.203   9.688   6.416 -0.1520  0.0113 -0.0628
 1138loPI   GL217530  10.933   9.757   6.395 -0.1573  0.0694  0.0461
 1138loPI   C1A17531  11.240   9.658   6.847  0.4728  0.0604  0.0477
 1138loPI   C2A17532  11.206   9.679   7.229 -0.1857 -0.3123 -0.0336
 1138loPI   C3A17533  11.335   9.620   7.594  0.3799 -0.0190  0.3656
 1138loPI   C4A17534  11.307   9.707   8.030 -0.1213  0.1236 -0.0254
 1138loPI   C5A17535  11.417   9.683   8.403 -0.0216 -0.1733 -0.2260
 1138loPI   C6A17536  11.572   9.724   8.802  0.6636 -0.1267  0.1549
 1138loPI   C1B17537  10.930  10.016   6.767 -0.1054 -0.1792 -0.0663
 1138loPI   C2B17538  10.861  10.106   7.222 -0.0277 -0.0757 -0.0481
 1138loPI   C3B17539  10.981  10.027   7.669 -0.2146 -0.3652  0.0744
 1138loPI   C4B17540  10.979  10.086   8.032  0.1918  0.1611  0.0624
 1139loPI    C117541  15.037  10.926   5.885 -0.4232 -0.1130  0.0617
 1139loPI    C217542  14.735  10.968   5.626 -0.1753 -0.0282 -0.2200
 1139loPI    C317543  15.074  10.791   5.511 -0.1136 -0.1202  0.0925
 1139loPI   PO417544  14.999  11.063   6.035  0.1561  0.1385  0.0555
 1139loPI   GL117545  14.873  10.971   6.429  0.0572  0.0387 -0.3082
 1139loPI   GL217546  15.074  11.179   6.531 -0.2786 -0.2755  0.1849
 1139loPI   C1A17547  14.819  11.078   6.943  0.2012  0.0898 -0.0680
 1139loPI   C2A17548  14.926  11.152   7.388  0.2419 -0.1397 -0.0229
 1139loPI   C3A17549  14.787  10.957   7.724  0.0735 -0.0252 -0.2144
 1139loPI   C4A17550  14.492  11.002   8.056  0.4215  0.1116 -0.0012
 1139loPI   C5A17551  14.536  11.371   8.312  0.0986  0.3836  0.2488
 1139loPI   C6A17552  14.311  11.427   8.674  0.0045  0.1979  0.0996
 1139loPI   C1B17553  15.269  11.392   6.868 -0.0585  0.0830 -0.0165
 1139loPI   C2B17554  15.300  11.506   7.292  0.0983  0.1391  0.1615
 1139loPI   C3B17555  15.155  11.457   7.744 -0.2173 -0.0807 -0.1181
 1139loPI   C4B17556  14.986  11.279   8.114  0.0498  0.0171  0.2251
 1140loPI    C117557  13.952   4.691   6.027  0.0337  0.1410 -0.1169
 1140loPI    C217558  13.798   4.520   6.354 -0.1338 -0.0908 -0.3139
 1140loPI    C317559  13.755   4.913   6.296 -0.0735 -0.0419 -0.0424
 1140loPI   PO417560  14.200   4.575   6.017  0.1821 -0.1625  0.0229
 1140loPI   GL117561  14.303   4.188   6.166 -0.2451 -0.2088 -0.0796
 1140loPI   GL217562  14.075   4.049   6.301 -0.0937  0.0027  0.4092
 1140loPI   C1A17563  14.458   4.115   6.596 -0.3109  0.0805  0.3753
 1140loPI   C2A17564  14.433   4.069   6.943 -0.2193 -0.0080  0.1085
 1140loPI   C3A17565  14.453   4.020   7.416 -0.2627  0.2548  0.0790
 1140loPI   C4A17566  14.370   3.890   7.845 -0.0770  0.0816  0.3718
 1140loPI   C5A17567  14.378   3.818   8.269 -0.1019 -0.1336 -0.1086
 1140loPI   C6A17568  14.042   4.110   8.536 -0.1418 -0.1061 -0.1709
 1140loPI   C1B17569  13.991   3.981   6.601 -0.0154 -0.2726  0.1888
 1140loPI   C2B17570  13.954   3.942   7.093  0.1534 -0.1106 -0.1569
 1140loPI   C3B17571  13.919   3.863   7.463  0.1920 -0.0490 -0.1718
 1140loPI   C4B17572  13.921   3.790   7.858 -0.0669  0.0161 -0.0733
 1141loPI    C117573   6.502   5.415   5.864  0.1423  0.0713  0.0860
 1141loPI    C217574   6.150   5.424   6.052  0.1758 -0.1622  0.1633
 1141loPI    C317575   6.171   5.519   5.664  0.0850  0.1886  0.2403
 1141loPI   PO417576   6.638   5.501   6.078  0.2482  0.0337  0.0558
 1141loPI   GL117577   6.907   5.513   6.404  0.0998 -0.1043  0.2441
 1141loPI   GL217578   6.945   5.770   6.680  0.1542 -0.0257  0.3278
 1141loPI   C1A17579   6.918   5.339   6.910  0.1205 -0.0811  0.0465
 1141loPI   C2A17580   6.834   5.311   7.343 -0.0310 -0.0260 -0.2136
 1141loPI   C3A17581   6.807   5.349   7.794 -0.1423 -0.1103 -0.2924
 1141loPI   C4A17582   6.679   5.311   8.188  0.1672  0.3492  0.2062
 1141loPI   C5A17583   6.622   4.978   8.497 -0.1781 -0.0964 -0.1625
 1141loPI   C6A17584   6.251   4.969   8.606 -0.1018  0.0808 -0.0838
 1141loPI   C1B17585   6.961   5.888   7.099  0.1563  0.0323 -0.2712
 1141loPI   C2B17586   6.897   5.812   7.528  0.1570  0.1041 -0.2838
 1141loPI   C3B17587   6.898   5.856   7.951  0.1294  0.3081 -0.0754
 1141loPI   C4B17588   7.002   6.036   8.341  0.1187 -0.0728 -0.0261
 1142loPI    C117589   7.698  13.521   5.626 -0.2334  0.0954 -0.1053
 1142loPI    C217590   7.868  13.191   5.475 -0.0354 -0.0006  0.3127
 1142loPI    C317591   8.011  13.552   5.379 -0.1199 -0.0436  0.0187
 1142loPI   PO417592   7.719  13.400   5.915  0.1441 -0.0210  0.3726
 1142loPI   GL117593   7.913  13.316   6.248 -0.1345  0.0719  0.1152
 1142loPI   GL217594   8.139  13.152   6.232 -0.2121  0.1556 -0.0321
 1142loPI   C1A17595   7.802  13.484   6.713 -0.0024 -0.2436  0.3442
 1142loPI   C2A17596   7.741  13.485   7.177  0.0701 -0.2399 -0.1434
 1142loPI   C3A17597   7.787  13.517   7.605  0.2348  0.0961 -0.0808
 1142loPI   C4A17598   7.703  13.521   8.030  0.4023 -0.0610  0.1231
 1142loPI   C5A17599   7.828  13.699   8.444  0.0456 -0.0375  0.3088
 1142loPI   C6A17600   8.185  14.031   8.614 -0.0628 -0.0179 -0.0019
 1142loPI   C1B17601   8.102  13.109   6.711 -0.0808  0.1613  0.2700
 1142loPI   C2B17602   8.161  13.126   7.166  0.0629  0.0073 -0.1065
 1142loPI   C3B17603   8.143  13.202   7.561  0.1662  0.2086 -0.1143
 1142loPI   C4B17604   8.219  13.103   7.991  0.2765 -0.0316 -0.0258
 1143loPI    C117605   9.542  14.684   5.855  0.1862 -0.0133  0.0134
 1143loPI    C217606   9.885  14.783   6.036  0.0700  0.1133  0.1675
 1143loPI    C317607   9.827  14.876   5.651  0.2153  0.0754  0.1361
 1143loPI   PO417608   9.327  14.719   6.105 -0.1262 -0.2275  0.0650
 1143loPI   GL117609   9.169  14.479   6.452  0.0987 -0.2600  0.2918
 1143loPI   GL217610   9.041  14.775   6.594  0.1486  0.3003 -0.0024
 1143loPI   C1A17611   9.440  14.332   6.768  0.2149  0.0109  0.0916
 1143loPI   C2A17612   9.359  14.262   7.207  0.0953 -0.2397  0.2580
 1143loPI   C3A17613   9.407  14.357   7.697 -0.0585  0.0130 -0.0116
 1143loPI   C4A17614   9.459  14.428   8.164 -0.0745  0.0489  0.1276
 1143loPI   C5A17615   9.341  14.589   8.544  0.2525  0.3109 -0.2034
 1143loPI   C6A17616   9.392  14.985   8.496 -0.0758  0.0270  0.1297
 1143loPI   C1B17617   9.125  14.692   6.977 -0.0852 -0.2768 -0.2663
 1143loPI   C2B17618   9.082  14.672   7.389  0.1198 -0.1442  0.1492
 1143loPI   C3B17619   9.042  14.735   7.835 -0.0643  0.4512  0.2781
 1143loPI   C4B17620   9.049  14.844   8.139  0.0179 -0.1027 -0.3616
 1144loPI    C117621   1.315   0.924   5.690  0.0722 -0.2309 -0.0513
 1144loPI    C217622   1.449   0.651   5.431  0.1914 -0.1422 -0.0840
 1144loPI    C317623   1.708   0.885   5.627  0.0917 -0.0740 -0.0328
 1144loPI   PO417624   1.116   0.802   5.951 -0.0493  0.1074 -0.2053
 1144loPI   GL117625   0.900   0.901   6.320 -0.0197  0.0810  0.0548
 1144loPI   GL217626   0.785   1.224   6.447  0.0876 -0.1832  0.0834
 1144loPI   C1A17627   1.069   0.846   6.757  0.1631 -0.1579 -0.1025
 1144loPI   C2A17628   1.123   0.852   7.260 -0.0334  0.0338  0.1217
 1144loPI   C3A17629   1.130   0.770   7.769 -0.1623 -0.1435  0.2067
 1144loPI   C4A17630   1.134   0.748   8.208  0.1449  0.0334  0.0068
 1144loPI   C5A17631   1.003   0.959   8.641 -0.0760 -0.1464  0.0314
 1144loPI   C6A17632   0.741   0.878   8.899 -0.0935 -0.1136  0.4820
 1144loPI   C1B17633   0.720   1.233   6.915  0.2671  0.0410  0.3465
 1144loPI   C2B17634   0.661   1.128   7.380 -0.1361  0.0937  0.0778
 1144loPI   C3B17635   0.670   1.056   7.844 -0.2319  0.0194 -0.1597
 1144loPI   C4B17636   0.910   1.208   8.033 -0.2405  0.0145 -0.1912
 1145loPI    C117637   5.260  15.499   5.865  0.1703  0.0548 -0.0531
 1145loPI    C217638   5.138  15.691   5.536 -0.1669 -0.1180 -0.0331
 1145loPI    C317639   5.333  15.343   5.503 -0.2229 -0.1478 -0.0505
 1145loPI   PO417640   5.230  15.674   6.048  0.2578 -0.0200 -0.3557
 1145loPI   GL117641   5.100  15.459   6.490  0.0006  0.0474  0.1417
 1145loPI   GL217642   4.888  15.271   6.613 -0.1997 -0.1677 -0.1726
 1145loPI   C1A17643   4.995  15.696   6.923 -0.1472  0.2474 -0.1344
 1145loPI   C2A17644   4.964  15.668   7.316 -0.1930  0.0826 -0.1843
 1145loPI   C3A17645   5.023  15.564   7.739 -0.1127 -0.0170 -0.0698
 1145loPI   C4A17646   4.905  15.457   8.171 -0.1060  0.0418 -0.0830
 1145loPI   C5A17647   4.875  15.652   8.565  0.2749 -0.1304 -0.1011
 1145loPI   C6A17648   4.648  15.727   9.006 -0.1964 -0.1759  0.1327
 1145loPI   C1B17649   4.899  15.219   6.988 -0.1944  0.0665  0.1011
 1145loPI   C2B17650   4.903  15.090   7.447  0.1753 -0.0430  0.2729
 1145loPI   C3B17651   4.880  15.074   7.769 -0.2433  0.1496  0.0913
 1145loPI   C4B17652   4.916  14.904   8.112 -0.0906 -0.1000  0.0427
 1146loPI    C117653   8.533   4.207   5.768  0.0633  0.1663  0.1788
 1146loPI    C217654   8.518   4.439   5.443  0.3272 -0.1832 -0.0920
 1146loPI    C317655   8.302   4.103   5.459 -0.0520  0.0674  0.2970
 1146loPI   PO417656   8.484   4.402   5.984 -0.1601  0.3801  0.2423
 1146loPI   GL117657   8.483   4.306   6.388  0.3057 -0.0710 -0.0184
 1146loPI   GL217658   8.282   4.129   6.372 -0.2946 -0.0106 -0.1482
 1146loPI   C1A17659   8.817   4.333   6.749 -0.1083 -0.1601  0.0051
 1146loPI   C2A17660   8.926   4.456   7.105  0.0412 -0.2123 -0.1828
 1146loPI   C3A17661   8.924   4.489   7.540 -0.3261 -0.1636 -0.0192
 1146loPI   C4A17662   8.977   4.535   7.958  0.2159  0.1173  0.0440
 1146loPI   C5A17663   9.056   4.531   8.382 -0.5105  0.0410  0.1362
 1146loPI   C6A17664   9.078   4.350   8.801 -0.4997  0.2062 -0.2272
 1146loPI   C1B17665   8.326   4.248   6.829 -0.0436 -0.1275  0.0126
 1146loPI   C2B17666   8.445   4.307   7.231  0.0253 -0.2762  0.1200
 1146loPI   C3B17667   8.409   4.313   7.684 -0.2524 -0.1824 -0.1339
 1146loPI   C4B17668   8.366   4.396   8.145 -0.0933  0.2100 -0.1641
 1147loPI    C117669  17.300   4.091   5.522  0.2690  0.0108  0.2025
 1147loPI    C217670  17.306   3.921   5.160 -0.0298  0.2245  0.0936
 1147loPI    C317671  17.649   4.005   5.347  0.1248 -0.0343 -0.0686
 1147loPI   PO417672  17.142   4.000   5.628  0.0931 -0.2846  0.4482
 1147loPI   GL117673  17.195   3.704   6.055  0.2114 -0.0575  0.0429
 1147loPI   GL217674  16.837   3.627   5.982  0.1126 -0.2425 -0.2506
 1147loPI   C1A17675  17.222   3.779   6.458  0.1531 -0.1152 -0.0885
 1147loPI   C2A17676  17.254   3.556   6.877 -0.1906  0.2238  0.1750
 1147loPI   C3A17677  17.235   3.566   7.348 -0.3658  0.1274  0.0321
 1147loPI   C4A17678  17.363   3.560   7.785  0.1434  0.1660 -0.2469
 1147loPI   C5A17679  17.856   3.672   7.985  0.3484 -0.2388  0.0591
 1147loPI   C6A17680  18.273   3.696   8.193  0.0048  0.0228  0.1513
 1147loPI   C1B17681  16.687   3.656   6.318 -0.3374  0.1977 -0.1915
 1147loPI   C2B17682  16.753   3.489   6.706 -0.4410  0.1121  0.0246
 1147loPI   C3B17683  16.715   3.547   7.127 -0.0231  0.0496 -0.0495
 1147loPI   C4B17684  16.781   3.598   7.544  0.0855  0.2510  0.1964
 1148loPI    C117685  14.853   1.409   5.572  0.1727 -0.3353  0.1122
 1148loPI    C217686  14.713   1.254   5.230 -0.1395 -0.2145  0.1811
 1148loPI    C317687  15.047   1.475   5.228 -0.0763 -0.3090 -0.0259
 1148loPI   PO417688  14.655   1.511   5.713 -0.2109  0.0546 -0.1871
 1148loPI   GL117689  14.657   1.453   6.130 -0.0819  0.2299  0.2426
 1148loPI   GL217690  14.641   1.117   6.217 -0.2083  0.0738  0.0230
 1148loPI   C1A17691  14.783   1.603   6.558  0.0051  0.0879  0.4134
 1148loPI   C2A17692  14.813   1.706   7.012 -0.3220  0.0282  0.2962
 1148loPI   C3A17693  14.603   1.619   7.384  0.2580  0.0243 -0.2768
 1148loPI   C4A17694  14.598   1.691   7.839 -0.0786 -0.0666 -0.1016
 1148loPI   C5A17695  14.835   1.965   8.104  0.0723  0.0027  0.0003
 1148loPI   C6A17696  14.621   1.978   8.437  0.3594  0.0623 -0.2914
 1148loPI   C1B17697  14.585   1.136   6.656 -0.0093  0.1849  0.3276
 1148loPI   C2B17698  14.616   1.225   7.026 -0.0189 -0.2530  0.0494
 1148loPI   C3B17699  14.509   1.139   7.449 -0.0619  0.1819 -0.1113
 1148loPI   C4B17700  14.521   1.184   7.909 -0.1072  0.0759  0.0467
 1149loPI    C117701  12.239   3.119   5.928 -0.1015 -0.1078  0.0028
 1149loPI    C217702  12.013   2.969   5.634 -0.1298  0.0846 -0.0756
 1149loPI    C317703  12.250   3.283   5.563  0.2355 -0.1711 -0.0187
 1149loPI   PO417704  12.105   3.105   6.139 -0.0159 -0.1217  0.2616
 1149loPI   GL117705  12.212   3.165   6.495 -0.3962  0.1332  0.1528
 1149loPI   GL217706  12.278   2.860   6.683  0.2195 -0.3076 -0.1690
 1149loPI   C1A17707  11.947   3.248   6.778 -0.1206 -0.0609 -0.2595
 1149loPI   C2A17708  12.010   3.251   7.329 -0.0625 -0.1490 -0.2246
 1149loPI   C3A17709  11.933   3.300   7.820 -0.1294 -0.1304  0.1601
 1149loPI   C4A17710  11.913   3.222   8.218 -0.0574  0.0095 -0.2949
 1149loPI   C5A17711  11.782   2.977   8.556 -0.0223  0.2149 -0.2056
 1149loPI   C6A17712  11.833   2.876   8.963  0.2210 -0.0868  0.0156
 1149loPI   C1B17713  12.318   2.906   7.106 -0.1804  0.1414  0.1541
 1149loPI   C2B17714  12.347   2.889   7.590 -0.2389  0.0668  0.1186
 1149loPI   C3B17715  12.223   2.846   8.014  0.2751  0.4501 -0.1463
 1149loPI   C4B17716  12.246   2.830   8.415 -0.0173  0.2698 -0.1482
 1150loPI    C117717  11.633   7.261   5.886 -0.1943  0.0218  0.2296
 1150loPI    C217718  11.508   6.958   5.657 -0.1000 -0.0940  0.3295
 1150loPI    C317719  11.561   7.321   5.497 -0.1319 -0.1498  0.1907
 1150loPI   PO417720  11.493   7.303   6.072 -0.2379  0.2401  0.0027
 1150loPI   GL117721  11.454   7.506   6.379 -0.1053 -0.1456 -0.2394
 1150loPI   GL217722  11.380   7.077   6.537 -0.1397 -0.3743  0.3488
 1150loPI   C1A17723  11.683   7.476   6.840  0.2497 -0.1021  0.0590
 1150loPI   C2A17724  11.662   7.354   7.255 -0.1857  0.1717  0.3041
 1150loPI   C3A17725  11.770   7.474   7.637 -0.1601  0.0045 -0.0373
 1150loPI   C4A17726  11.802   7.386   8.061  0.3811  0.0414 -0.1536
 1150loPI   C5A17727  11.655   7.409   8.506  0.1481  0.3399  0.1426
 1150loPI   C6A17728  11.817   7.477   8.942 -0.1038 -0.1574  0.1540
 1150loPI   C1B17729  11.383   7.071   6.932  0.1238 -0.2520 -0.1975
 1150loPI   C2B17730  11.446   6.863   7.268  0.0056 -0.0739 -0.3182
 1150loPI   C3B17731  11.590   6.906   7.715 -0.1247 -0.0150  0.0433
 1150loPI   C4B17732  11.668   6.953   8.193 -0.1120  0.1985  0.2338
 1151loPI    C117733   8.594  11.567   5.566  0.0881 -0.0488 -0.1124
 1151loPI    C217734   8.233  11.710   5.470 -0.0504 -0.0334  0.4018
 1151loPI    C317735   8.560  11.924   5.389 -0.1850  0.1294  0.2826
 1151loPI   PO417736   8.556  11.546   5.841 -0.2421 -0.0565 -0.3395
 1151loPI   GL117737   8.554  11.748   6.298  0.1842 -0.0133 -0.2534
 1151loPI   GL217738   8.501  11.478   6.458 -0.1616  0.0745 -0.2250
 1151loPI   C1A17739   8.658  11.877   6.723  0.0570  0.1908  0.2603
 1151loPI   C2A17740   8.768  11.876   7.098 -0.0706  0.1430  0.1212
 1151loPI   C3A17741   8.746  11.788   7.551  0.3484 -0.2493  0.0417
 1151loPI   C4A17742   8.807  11.850   7.967 -0.1006  0.1726 -0.0137
 1151loPI   C5A17743   8.823  11.877   8.434  0.1432  0.4459 -0.1049
 1151loPI   C6A17744   8.641  11.666   8.844 -0.0954 -0.0596  0.3268
 1151loPI   C1B17745   8.497  11.404   6.953 -0.0198  0.2451  0.0634
 1151loPI   C2B17746   8.483  11.293   7.409 -0.0139 -0.3168 -0.2424
 1151loPI   C3B17747   8.623  11.350   7.793  0.0020  0.1342 -0.1488
 1151loPI   C4B17748   8.586  11.197   8.185 -0.1363  0.3896 -0.0006
 1152loPI    C117749   9.439   7.936   5.593  0.0869 -0.1033 -0.3904
 1152loPI    C217750   9.749   8.180   5.528  0.0849 -0.0518 -0.2126
 1152loPI    C317751   9.381   8.291   5.417  0.0680  0.0749 -0.0339
 1152loPI   PO417752   9.572   7.874   5.868 -0.1925  0.3554 -0.2226
 1152loPI   GL117753   9.511   8.019   6.329  0.1267 -0.2781 -0.0107
 1152loPI   GL217754   9.871   8.026   6.463 -0.2254  0.0456 -0.1414
 1152loPI   C1A17755   9.356   8.152   6.718 -0.3233 -0.0906  0.2842
 1152loPI   C2A17756   9.455   8.331   7.142  0.1258  0.1821  0.0625
 1152loPI   C3A17757   9.490   8.364   7.539 -0.1104 -0.2598  0.1166
 1152loPI   C4A17758   9.613   8.269   7.975  0.0155 -0.0761 -0.3798
 1152loPI   C5A17759   9.516   8.218   8.414  0.2640  0.0681  0.0511
 1152loPI   C6A17760   9.196   8.195   8.730 -0.1792 -0.0746 -0.0191
 1152loPI   C1B17761   9.851   7.943   6.898  0.2359 -0.0573  0.0881
 1152loPI   C2B17762   9.838   7.953   7.380 -0.1601  0.1646  0.0630
 1152loPI   C3B17763   9.990   7.947   7.738 -0.0512 -0.2916 -0.0830
 1152loPI   C4B17764   9.916   7.859   8.171 -0.2095 -0.0715 -0.1593
 1153loPI    C117765   5.128   7.825   5.795  0.0748  0.2402 -0.1043
 1153loPI    C217766   4.918   7.607   5.533  0.1180 -0.0850  0.1254
 1153loPI    C317767   4.947   8.004   5.486 -0.1438 -0.0979 -0.1769
 1153loPI   PO417768   4.937   7.797   6.033 -0.0501 -0.1318  0.3487
 1153loPI   GL117769   4.936   7.889   6.416 -0.1150 -0.0204 -0.0156
 1153loPI   GL217770   4.603   7.712   6.604  0.1767  0.0274  0.1399
 1153loPI   C1A17771   5.113   7.789   6.839  0.0716  0.0831  0.0661
 1153loPI   C2A17772   5.090   7.677   7.259 -0.1167 -0.1111 -0.0338
 1153loPI   C3A17773   5.096   7.747   7.700  0.1945  0.2422 -0.3904
 1153loPI   C4A17774   5.025   7.678   8.054  0.0617  0.0323  0.0565
 1153loPI   C5A17775   5.030   7.905   8.381 -0.1585  0.3093  0.0897
 1153loPI   C6A17776   4.920   8.251   8.575  0.1164  0.1179  0.1349
 1153loPI   C1B17777   4.506   7.625   6.938  0.5202  0.1076 -0.1099
 1153loPI   C2B17778   4.601   7.617   7.312  0.0959  0.1604 -0.2313
 1153loPI   C3B17779   4.620   7.581   7.689  0.0937  0.1031 -0.0566
 1153loPI   C4B17780   4.553   7.669   8.080  0.0903  0.2413  0.2216
 1154loPI    C117781   8.349   2.723   5.898  0.2859 -0.0227  0.0054
 1154loPI    C217782   8.353   3.081   5.719  0.1445 -0.0307 -0.0153
 1154loPI    C317783   8.051   2.827   5.652 -0.0220  0.0505  0.3985
 1154loPI   PO417784   8.314   2.732   6.091  0.0383 -0.3170  0.2011
 1154loPI   GL117785   8.196   2.519   6.427  0.2602 -0.2173  0.0483
 1154loPI   GL217786   8.095   2.817   6.519  0.2074  0.3967  0.3093
 1154loPI   C1A17787   8.473   2.421   6.793  0.1330  0.0327  0.0328
 1154loPI   C2A17788   8.335   2.442   7.150  0.0015  0.1388 -0.0078
 1154loPI   C3A17789   8.229   2.482   7.603  0.0628  0.1240  0.1678
 1154loPI   C4A17790   8.281   2.490   8.076  0.2038 -0.1236  0.2786
 1154loPI   C5A17791   8.294   2.497   8.569  0.1060  0.0389  0.3543
 1154loPI   C6A17792   8.423   2.408   9.020  0.1372 -0.3554 -0.0540
 1154loPI   C1B17793   7.981   2.741   6.901 -0.0668  0.0511 -0.0113
 1154loPI   C2B17794   7.955   2.798   7.317 -0.0319  0.2541 -0.2900
 1154loPI   C3B17795   7.933   2.854   7.750 -0.0328 -0.4684 -0.3172
 1154loPI   C4B17796   7.845   2.845   8.168  0.3013 -0.0989 -0.0960
 1155loPI    C117797  11.646   1.961   6.246  0.2690  0.1120  0.2021
 1155loPI    C217798  11.716   2.229   5.957  0.2246 -0.1393 -0.0467
 1155loPI    C317799  11.687   1.841   5.866  0.0878 -0.2091  0.2808
 1155loPI   PO417800  11.717   2.091   6.404 -0.0327  0.1751  0.0762
 1155loPI   GL117801  11.599   2.395   6.595  0.0296 -0.2549 -0.0894
 1155loPI   GL217802  11.676   2.713   6.538 -0.5108  0.0944 -0.1468
 1155loPI   C1A17803  11.577   2.326   7.057 -0.4958 -0.5011  0.5533
 1155loPI   C2A17804  11.579   2.307   7.537  0.1382 -0.1749  0.0000
 1155loPI   C3A17805  11.562   2.325   7.940 -0.2945 -0.0340  0.1068
 1155loPI   C4A17806  11.489   2.387   8.374  0.0538  0.2478 -0.1634
 1155loPI   C5A17807  11.456   2.511   8.732 -0.0660 -0.1766 -0.1143
 1155loPI   C6A17808  11.388   2.450   9.176  0.2994  0.2183 -0.1793
 1155loPI   C1B17809  11.734   2.852   6.961 -0.2136 -0.2145 -0.3118
 1155loPI   C2B17810  11.616   2.813   7.321  0.0861 -0.1922  0.0592
 1155loPI   C3B17811  11.801   2.819   7.715 -0.0233 -0.0271 -0.0277
 1155loPI   C4B17812  11.679   2.775   8.151 -0.2353  0.1275  0.0490
 1156loPI    C117813  14.210  14.814   5.614  0.0509  0.0455 -0.0139
 1156loPI    C217814  14.216  14.512   5.351 -0.0979 -0.0939  0.1396
 1156loPI    C317815  13.980  14.829   5.286  0.0664 -0.0033 -0.0271
 1156loPI   PO417816  14.194  14.775   5.902  0.2140  0.0449 -0.0625
 1156loPI   GL117817  14.331  14.627   6.188  0.0750 -0.0076 -0.0559
 1156loPI   GL217818  14.706  14.641   6.362  0.2897  0.0853  0.2442
 1156loPI   C1A17819  14.189  14.560   6.624 -0.2844 -0.0963  0.1522
 1156loPI   C2A17820  14.306  14.438   7.042 -0.0493 -0.0631  0.2867
 1156loPI   C3A17821  14.367  14.549   7.432  0.0152  0.0424  0.0808
 1156loPI   C4A17822  14.263  14.561   7.879 -0.1131 -0.0536  0.0330
 1156loPI   C5A17823  14.364  14.397   8.300 -0.1253 -0.3651  0.1621
 1156loPI   C6A17824  14.594  14.173   8.610 -0.1924  0.0056  0.2711
 1156loPI   C1B17825  14.740  14.594   6.814 -0.0363  0.1470  0.0136
 1156loPI   C2B17826  14.863  14.671   7.308  0.2340 -0.0787  0.2581
 1156loPI   C3B17827  14.747  14.712   7.787 -0.1157  0.0741 -0.1518
 1156loPI   C4B17828  14.720  15.125   8.009  0.1355 -0.2957  0.1262
 1157loPI    C117829  12.383  17.253   5.608 -0.0092 -0.0423 -0.0481
 1157loPI    C217830  12.715  17.068   5.484 -0.1147 -0.2521 -0.0220
 1157loPI    C317831  12.507  17.296   5.230 -0.1120 -0.3588 -0.1203
 1157loPI   PO417832  12.441  17.210   5.872  0.1794 -0.2456 -0.0986
 1157loPI   GL117833  12.620  17.184   6.308 -0.2053 -0.0931  0.0609
 1157loPI   GL217834  12.827  17.427   6.406  0.0517 -0.2760  0.1450
 1157loPI   C1A17835  12.610  16.873   6.635  0.2112 -0.1932 -0.0294
 1157loPI   C2A17836  12.636  16.777   7.083 -0.0664 -0.2133 -0.0191
 1157loPI   C3A17837  12.626  16.879   7.517 -0.2505  0.5697  0.0861
 1157loPI   C4A17838  12.607  16.954   7.879 -0.0241 -0.3390 -0.3653
 1157loPI   C5A17839  12.745  16.758   8.220 -0.2341 -0.0083 -0.1828
 1157loPI   C6A17840  13.110  16.505   8.426  0.3079  0.0678 -0.1239
 1157loPI   C1B17841  12.828  17.312   6.804 -0.2256  0.1584 -0.1525
 1157loPI   C2B17842  12.779  17.320   7.176 -0.2372 -0.0961  0.0677
 1157loPI   C3B17843  12.689  17.377   7.650  0.0745 -0.1034  0.1066
 1157loPI   C4B17844  12.774  17.372   8.085 -0.3310  0.1025  0.1056
 1158loPI    C117845   1.824   0.209   5.601  0.0444  0.3769 -0.1771
 1158loPI    C217846   2.007   0.031   5.294  0.0406  0.1710 -0.0612
 1158loPI    C317847   1.669   0.234   5.233 -0.0484 -0.0066 -0.1681
 1158loPI   PO417848   1.891   0.105   5.848  0.2304  0.3545  0.0482
 1158loPI   GL117849   1.878  -0.134   6.103 -0.0908 -0.2079 -0.0693
 1158loPI   GL217850   1.644  -0.285   6.205  0.1130 -0.1173  0.1343
 1158loPI   C1A17851   1.855   0.040   6.567 -0.0466  0.0159  0.0157
 1158loPI   C2A17852   1.823  -0.035   6.995  0.2446 -0.2698 -0.0724
 1158loPI   C3A17853   1.870  -0.044   7.369  0.2284  0.0336  0.2075
 1158loPI   C4A17854   1.758   0.018   7.748  0.3023  0.1409  0.0135
 1158loPI   C5A17855   1.854   0.012   8.163 -0.1420 -0.0287 -0.3039
 1158loPI   C6A17856   1.860  -0.024   8.612 -0.0830 -0.2895 -0.1685
 1158loPI   C1B17857   1.482  -0.185   6.703  0.0032 -0.2622  0.0329
 1158loPI   C2B17858   1.262  -0.112   7.109  0.0834  0.0217 -0.0450
 1158loPI   C3B17859   1.306  -0.090   7.570  0.1543  0.0666 -0.1889
 1158loPI   C4B17860   1.306  -0.094   8.003  0.2084  0.0167  0.3770
 1159loPI    C117861   1.898   6.264   5.840  0.0595 -0.0136 -0.2180
 1159loPI    C217862   2.074   6.570   6.028 -0.1062 -0.2002  0.2576
 1159loPI    C317863   1.790   6.640   5.755 -0.0028  0.0722  0.2158
 1159loPI   PO417864   1.920   6.051   6.052 -0.1445 -0.3153 -0.0943
 1159loPI   GL117865   1.741   6.026   6.371  0.0560  0.3677  0.1533
 1159loPI   GL217866   1.435   5.943   6.466 -0.0047  0.1133 -0.1108
 1159loPI   C1A17867   1.858   5.964   6.743  0.5510  0.1159 -0.0419
 1159loPI   C2A17868   1.821   5.906   7.184  0.0577  0.4513  0.0693
 1159loPI   C3A17869   1.747   5.838   7.577 -0.0481  0.2371  0.1991
 1159loPI   C4A17870   1.714   5.888   8.088 -0.1112  0.1899 -0.2159
 1159loPI   C5A17871   1.490   5.750   8.506 -0.1195  0.0913  0.0727
 1159loPI   C6A17872   1.063   5.608   8.722  0.1445  0.0547 -0.1567
 1159loPI   C1B17873   1.283   5.826   6.941  0.2800  0.0602  0.1540
 1159loPI   C2B17874   1.304   5.850   7.369 -0.0759 -0.0758 -0.0939
 1159loPI   C3B17875   1.263   5.848   7.773  0.0714 -0.1905  0.0484
 1159loPI   C4B17876   1.139   5.854   8.228  0.3271  0.3644 -0.1823
 1160loPI    C117877  14.764   0.464   5.422  0.1923  0.0680  0.1188
 1160loPI    C217878  14.721   0.750   5.146  0.3894  0.0283  0.0448
 1160loPI    C317879  14.735   0.366   5.035  0.0041 -0.0221  0.1547
 1160loPI   PO417880  14.808   0.577   5.644  0.1850 -0.1288  0.0455
 1160loPI   GL117881  14.762   0.439   6.049  0.1118 -0.1468  0.0976
 1160loPI   GL217882  14.961   0.250   6.296 -0.0527  0.0879  0.0682
 1160loPI   C1A17883  14.523   0.592   6.410  0.0336  0.2535  0.1606
 1160loPI   C2A17884  14.514   0.688   6.823 -0.5704 -0.2801 -0.0997
 1160loPI   C3A17885  14.505   0.637   7.295 -0.1416  0.0879  0.2394
 1160loPI   C4A17886  14.373   0.734   7.753  0.1714 -0.1033 -0.2455
 1160loPI   C5A17887  14.359   0.613   8.247  0.0522 -0.0391 -0.0203
 1160loPI   C6A17888  14.163   0.590   8.754 -0.0129  0.2288  0.1883
 1160loPI   C1B17889  14.831   0.210   6.714  0.0750 -0.2626 -0.2419
 1160loPI   C2B17890  14.779   0.235   7.170  0.0370 -0.0452 -0.0175
 1160loPI   C3B17891  14.766   0.314   7.600  0.0064  0.0569  0.1824
 1160loPI   C4B17892  14.770   0.243   8.029  0.0022 -0.1387  0.0263
 1161loPI    C117893   5.911   9.010   5.876 -0.1679  0.0731  0.1275
 1161loPI    C217894   5.808   8.675   5.684 -0.0294  0.0426  0.1051
 1161loPI    C317895   5.739   9.032   5.516  0.0392  0.0179  0.0238
 1161loPI   PO417896   5.996   9.088   6.084  0.0775  0.1059 -0.4576
 1161loPI   GL117897   6.146   8.913   6.461  0.1884 -0.1308 -0.2301
 1161loPI   GL217898   5.823   8.767   6.725  0.1274  0.0852 -0.0057
 1161loPI   C1A17899   6.379   8.889   6.808  0.0154  0.1135  0.2160
 1161loPI   C2A17900   6.449   9.003   7.301 -0.1792 -0.0706 -0.0676
 1161loPI   C3A17901   6.488   9.010   7.732 -0.1632 -0.0554  0.0305
 1161loPI   C4A17902   6.361   8.996   8.120 -0.0502  0.0637 -0.1659
 1161loPI   C5A17903   6.310   9.042   8.505 -0.2144 -0.2253 -0.1113
 1161loPI   C6A17904   5.976   9.108   8.784  0.1848 -0.0236 -0.1010
 1161loPI   C1B17905   6.005   8.835   7.087 -0.2865 -0.1289 -0.0984
 1161loPI   C2B17906   5.946   8.950   7.512 -0.1421 -0.1771  0.2444
 1161loPI   C3B17907   5.914   8.903   8.008  0.1799 -0.1190  0.0238
 1161loPI   C4B17908   5.802   8.911   8.375 -0.1340 -0.4239  0.3841
 1162loPI    C117909  10.843  16.239   6.134 -0.4561 -0.1206  0.0068
 1162loPI    C217910  10.695  15.982   5.866  0.2168 -0.1967 -0.3130
 1162loPI    C317911  10.840  15.847   6.213  0.0612 -0.1830 -0.2417
 1162loPI   PO417912  10.754  16.474   6.296 -0.1311  0.1248  0.0143
 1162loPI   GL117913  10.654  16.456   6.656 -0.2302 -0.1658  0.0077
 1162loPI   GL217914  10.854  16.071   6.617  0.1033 -0.0659  0.0194
 1162loPI   C1A17915  10.632  16.367   7.102 -0.2984  0.0663 -0.0631
 1162loPI   C2A17916  10.609  16.375   7.528  0.0051 -0.1727 -0.0014
 1162loPI   C3A17917  10.458  16.432   8.006 -0.0055  0.0914  0.4418
 1162loPI   C4A17918  10.367  16.384   8.424  0.1588  0.0092 -0.3052
 1162loPI   C5A17919   9.998  16.404   8.678  0.1081 -0.1081  0.3633
 1162loPI   C6A17920   9.942  16.278   9.026 -0.0109 -0.1820 -0.2939
 1162loPI   C1B17921  10.968  15.985   6.937  0.1213  0.0209 -0.2202
 1162loPI   C2B17922  10.968  16.101   7.375 -0.0357 -0.1437 -0.1933
 1162loPI   C3B17923  10.894  16.088   7.829  0.0768  0.0476 -0.1440
 1162loPI   C4B17924  10.771  16.111   8.225 -0.0250 -0.0030  0.1378
 1163loPI    C117925   0.435   6.684   5.698 -0.0113 -0.0495 -0.2797
 1163loPI    C217926   0.629   7.007   5.565  0.0112  0.0222 -0.0775
 1163loPI    C317927   0.830   6.715   5.751 -0.0585  0.0489  0.0404
 1163loPI   PO417928   0.276   6.669   5.917 -0.0118 -0.1881  0.0367
 1163loPI   GL117929   0.284   6.708   6.356  0.1282 -0.1493 -0.1402
 1163loPI   GL217930   0.161   6.404   6.434 -0.1570  0.3634  0.2274
 1163loPI   C1A17931   0.108   6.839   6.752  0.0001  0.0887  0.0932
 1163loPI   C2A17932   0.181   6.730   7.216 -0.1479  0.0767 -0.0571
 1163loPI   C3A17933   0.113   6.885   7.612 -0.1233  0.0190  0.0922
 1163loPI   C4A17934   0.095   6.826   8.001 -0.2887 -0.0906 -0.1907
 1163loPI   C5A17935   0.339   7.113   8.349 -0.0698 -0.1227  0.0633
 1163loPI   C6A17936   0.775   7.063   8.649  0.0474  0.0778 -0.2624
 1163loPI   C1B17937   0.411   6.395   6.746 -0.3561  0.1368 -0.1204
 1163loPI   C2B17938   0.503   6.196   7.129  0.1235 -0.2456  0.0383
 1163loPI   C3B17939   0.426   6.022   7.510  0.1175 -0.0410  0.2212
 1163loPI   C4B17940   0.377   6.011   7.956 -0.0097  0.0215 -0.1788
 1164loPI    C117941  13.051  13.320   5.411 -0.0993  0.1003 -0.1313
 1164loPI    C217942  13.180  13.135   5.080 -0.1630 -0.0227 -0.0880
 1164loPI    C317943  13.440  13.328   5.315 -0.0542 -0.2782  0.0043
 1164loPI   PO417944  12.896  13.166   5.529 -0.0283 -0.1386 -0.1516
 1164loPI   GL117945  12.862  13.086   5.975  0.3580 -0.1167 -0.1169
 1164loPI   GL217946  12.678  12.887   6.104 -0.0040  0.2934  0.4134
 1164loPI   C1A17947  12.936  13.318   6.376 -0.1379  0.2429  0.2386
 1164loPI   C2A17948  12.919  13.296   6.795  0.1146 -0.2198 -0.0701
 1164loPI   C3A17949  13.003  13.245   7.240  0.4060 -0.0434  0.1858
 1164loPI   C4A17950  13.025  13.287   7.720 -0.3080 -0.0857  0.0995
 1164loPI   C5A17951  12.988  13.246   8.165  0.0671 -0.0621  0.3647
 1164loPI   C6A17952  12.766  13.467   8.381  0.3354  0.1508 -0.1001
 1164loPI   C1B17953  12.771  12.780   6.434  0.0197  0.0729  0.1265
 1164loPI   C2B17954  12.797  12.825   6.889  0.0808 -0.2030  0.1741
 1164loPI   C3B17955  12.798  12.808   7.364  0.4548  0.0679  0.0132
 1164loPI   C4B17956  12.783  12.845   7.776 -0.2678 -0.2012 -0.0867
 1165loPI    C117957   1.543   1.902   5.518 -0.0252  0.0434 -0.1055
 1165loPI    C217958   1.731   2.127   5.246  0.1053 -0.0609 -0.1029
 1165loPI    C317959   1.339   2.053   5.209  0.0829  0.0824 -0.1582
 1165loPI   PO417960   1.640   1.950   5.717 -0.2620  0.0084 -0.0927
 1165loPI   GL117961   1.687   1.650   6.082 -0.1372  0.0949 -0.0872
 1165loPI   GL217962   1.527   1.720   6.248 -0.0907  0.1120  0.0162
 1165loPI   C1A17963   1.831   1.412   6.484 -0.3936  0.1270  0.0404
 1165loPI   C2A17964   1.777   1.379   6.852 -0.0720 -0.0140 -0.1610
 1165loPI   C3A17965   1.823   1.342   7.242 -0.1521 -0.0074 -0.0086
 1165loPI   C4A17966   1.817   1.330   7.658 -0.1634  0.2843 -0.1183
 1165loPI   C5A17967   1.712   1.419   8.072  0.1605  0.0354 -0.0917
 1165loPI   C6A17968   1.586   1.659   8.446 -0.4090  0.0049  0.0047
 1165loPI   C1B17969   1.396   1.808   6.667 -0.0138 -0.1070  0.2324
 1165loPI   C2B17970   1.485   1.789   7.145  0.2028 -0.0623  0.0676
 1165loPI   C3B17971   1.522   1.794   7.607  0.0653  0.2081  0.0241
 1165loPI   C4B17972   1.506   1.986   7.997  0.1892 -0.2369 -0.0038
 1166loPI    C117973  17.294   3.309   5.247 -0.0518 -0.1496  0.0177
 1166loPI    C217974  17.604   3.149   5.052  0.0543  0.0015  0.0607
 1166loPI    C317975  17.590   3.543   5.116 -0.1465 -0.0046  0.0604
 1166loPI   PO417976  17.274   3.176   5.409 -0.0437 -0.2805  0.0862
 1166loPI   GL117977  17.378   3.165   5.844  0.0318 -0.0807 -0.0345
 1166loPI   GL217978  17.166   3.161   5.918  0.1105  0.4320 -0.2775
 1166loPI   C1A17979  17.584   3.361   6.134  0.0191 -0.1127 -0.0098
 1166loPI   C2A17980  17.552   3.290   6.617  0.1820 -0.2389  0.0299
 1166loPI   C3A17981  17.554   3.241   7.102 -0.0510 -0.0405  0.0558
 1166loPI   C4A17982  17.537   3.158   7.525  0.3029 -0.2569  0.0598
 1166loPI   C5A17983  17.657   3.148   7.927 -0.0929  0.1405 -0.0670
 1166loPI   C6A17984  17.966   3.298   8.367  0.3500 -0.0985 -0.0495
 1166loPI   C1B17985  17.069   3.314   6.345 -0.0348  0.1006 -0.1381
 1166loPI   C2B17986  17.071   3.077   6.709 -0.0313  0.2504  0.1876
 1166loPI   C3B17987  17.079   3.078   7.083 -0.0364 -0.1432 -0.1170
 1166loPI   C4B17988  17.032   3.139   7.513 -0.0843 -0.3304  0.0371
 1167loPI    C117989   2.561   0.183   5.959  0.0272  0.0189 -0.2771
 1167loPI    C217990   2.344   0.258   5.632  0.0538 -0.1692 -0.3389
 1167loPI    C317991   2.680   0.043   5.604  0.1238 -0.0778 -0.2073
 1167loPI   PO417992   2.611   0.410   6.042 -0.0883 -0.0668 -0.1924
 1167loPI   GL117993   2.656   0.453   6.498  0.0006  0.0175 -0.0685
 1167loPI   GL217994   2.820   0.125   6.497 -0.0636  0.0692  0.0547
 1167loPI   C1A17995   2.438   0.571   6.827 -0.3637 -0.0238 -0.0578
 1167loPI   C2A17996   2.412   0.608   7.242  0.2313 -0.0490  0.1489
 1167loPI   C3A17997   2.481   0.614   7.637  0.3402 -0.0767 -0.3039
 1167loPI   C4A17998   2.539   0.559   8.110  0.1368  0.0360  0.2898
 1167loPI   C5A17999   2.440   0.760   8.467  0.1318 -0.3750  0.0576
 1167loPI   C6A18000   2.358   1.146   8.685  0.3066 -0.0390  0.1077
 1167loPI   C1B18001   2.805   0.223   6.928 -0.1491 -0.0637 -0.0373
 1167loPI   C2B18002   2.900   0.223   7.370  0.1595 -0.0980 -0.0860
 1167loPI   C3B18003   2.935   0.311   7.797  0.0203 -0.1932 -0.0457
 1167loPI   C4B18004   3.038   0.107   8.167 -0.1690  0.0304  0.1771
 1168loPI    C118005  10.022  11.747   5.426  0.1870 -0.1522 -0.1637
 1168loPI    C218006  10.189  11.786   5.065  0.1454  0.0107 -0.1663
 1168loPI    C318007   9.999  12.096   5.231  0.1815 -0.0577  0.0042
 1168loPI   PO418008  10.103  11.668   5.610  0.0584  0.2322  0.0693
 1168loPI   GL118009  10.223  11.700   6.021 -0.1101 -0.0555  0.2984
 1168loPI   GL218010  10.415  12.011   6.070 -0.1850 -0.0354 -0.1320
 1168loPI   C1A18011  10.115  11.747   6.386 -0.1958  0.0945 -0.3852
 1168loPI   C2A18012  10.037  11.619   6.769 -0.2878  0.2054 -0.3421
 1168loPI   C3A18013  10.024  11.803   7.125 -0.0670 -0.0560 -0.4990
 1168loPI   C4A18014  10.080  11.689   7.538 -0.2816  0.2091 -0.3174
 1168loPI   C5A18015  10.133  11.669   8.075 -0.3920  0.0557 -0.1187
 1168loPI   C6A18016   9.784  11.646   8.467 -0.1165 -0.1037 -0.4458
 1168loPI   C1B18017  10.567  11.941   6.475  0.3347 -0.0309 -0.1021
 1168loPI   C2B18018  10.563  11.833   6.924 -0.2255  0.2385  0.0763
 1168loPI   C3B18019  10.502  11.732   7.263 -0.2531 -0.0864 -0.3118
 1168loPI   C4B18020  10.577  11.825   7.707 -0.2289  0.2236  0.0616
 1169loPI    C118021   0.401   0.816   5.414  0.2104  0.1312 -0.1126
 1169loPI    C218022   0.167   1.137   5.454 -0.0001 -0.0493  0.1385
 1169loPI    C318023   0.541   1.178   5.319 -0.1225  0.2610 -0.1207
 1169loPI   PO418024   0.397   0.612   5.702  0.1235 -0.1902 -0.0655
 1169loPI   GL118025   0.452   0.690   6.092  0.1427  0.0685 -0.1431
 1169loPI   GL218026   0.271   0.579   6.254  0.1522 -0.2094 -0.1562
 1169loPI   C1A18027   0.582   0.737   6.577  0.1098  0.1504 -0.1571
 1169loPI   C2A18028   0.657   0.703   7.057  0.0510  0.2531 -0.1047
 1169loPI   C3A18029   0.573   0.651   7.560 -0.4221  0.1049 -0.0019
 1169loPI   C4A18030   0.547   0.621   8.032 -0.0893 -0.3462  0.3046
 1169loPI   C5A18031   0.760   0.620   8.478  0.2965 -0.0023 -0.1381
 1169loPI   C6A18032   1.016   0.483   8.763  0.1758 -0.1613  0.0518
 1169loPI   C1B18033   0.092   0.572   6.699 -0.1617 -0.0960 -0.0855
 1169loPI   C2B18034   0.094   0.415   7.029  0.0332 -0.1165  0.0510
 1169loPI   C3B18035   0.089   0.487   7.474 -0.0688  0.2078  0.0036
 1169loPI   C4B18036   0.030   0.575   7.929  0.0296 -0.2285 -0.1382
 1170loPI    C118037  11.025  16.818   5.972  0.1453 -0.2729 -0.0136
 1170loPI    C218038  11.007  16.477   5.765  0.1992 -0.1885 -0.1585
 1170loPI    C318039  11.270  16.760   5.662 -0.1114  0.0588 -0.2866
 1170loPI   PO418040  10.786  17.003   5.970  0.0850 -0.1758 -0.3027
 1170loPI   GL118041  10.457  16.849   6.354 -0.0710  0.1115  0.0852
 1170loPI   GL218042  10.711  16.927   6.561  0.3296  0.1353 -0.1178
 1170loPI   C1A18043  10.300  16.780   6.787  0.0483 -0.4214  0.1307
 1170loPI   C2A18044  10.283  16.763   7.166 -0.0921 -0.1119  0.0208
 1170loPI   C3A18045  10.228  16.826   7.562  0.0879 -0.1174  0.1231
 1170loPI   C4A18046  10.163  16.782   7.950 -0.1607  0.0837 -0.0739
 1170loPI   C5A18047  10.099  16.828   8.397 -0.0778 -0.1929  0.1757
 1170loPI   C6A18048  10.316  17.189   8.647 -0.0337 -0.2967 -0.1320
 1170loPI   C1B18049  10.790  16.866   6.937  0.1425  0.0575  0.0363
 1170loPI   C2B18050  10.734  16.845   7.379 -0.3090  0.3526 -0.2363
 1170loPI   C3B18051  10.675  16.921   7.762 -0.0679  0.0835 -0.0607
 1170loPI   C4B18052  10.591  16.842   8.299  0.0583  0.0696 -0.1300
 1171loPI    C118053   4.551   9.009   5.937 -0.1115  0.0198  0.0798
 1171loPI    C218054   4.640   9.112   6.313 -0.0040  0.3011 -0.0198
 1171loPI    C318055   4.824   9.293   6.007 -0.1994  0.1811 -0.2116
 1171loPI   PO418056   4.518   8.701   6.032 -0.0485  0.1556  0.1839
 1171loPI   GL118057   4.495   8.618   6.449  0.0998 -0.0864 -0.2021
 1171loPI   GL218058   4.787   8.736   6.671  0.5594 -0.2340  0.4324
 1171loPI   C1A18059   4.379   8.598   6.886  0.0337 -0.2302 -0.2221
 1171loPI   C2A18060   4.493   8.733   7.319 -0.0036 -0.2437 -0.0187
 1171loPI   C3A18061   4.604   8.848   7.726  0.3501  0.2197 -0.0303
 1171loPI   C4A18062   4.563   9.059   8.125  0.1046  0.1361 -0.0147
 1171loPI   C5A18063   4.730   9.130   8.477  0.0338 -0.1314 -0.2365
 1171loPI   C6A18064   5.154   8.927   8.635  0.0785 -0.0704 -0.0682
 1171loPI   C1B18065   4.873   8.597   7.000  0.0125  0.1075 -0.1742
 1171loPI   C2B18066   5.048   8.527   7.371 -0.1435  0.2819 -0.2322
 1171loPI   C3B18067   5.018   8.508   7.791  0.1930 -0.0754 -0.1607
 1171loPI   C4B18068   4.845   8.676   8.262  0.0155 -0.0843  0.0866
 1172loPI    C118069   3.923   5.672   5.679 -0.2719  0.0326 -0.0365
 1172loPI    C218070   4.238   5.589   5.447 -0.1390 -0.0482  0.1696
 1172loPI    C318071   3.869   5.588   5.292 -0.0607 -0.1891 -0.0200
 1172loPI   PO418072   3.953   5.549   5.944 -0.4042 -0.0538  0.1668
 1172loPI   GL118073   4.081   5.662   6.367  0.0075  0.0711  0.2267
 1172loPI   GL218074   3.758   5.629   6.452 -0.0861  0.0025  0.4260
 1172loPI   C1A18075   4.122   5.465   6.786 -0.2933 -0.1690 -0.0794
 1172loPI   C2A18076   3.984   5.617   7.093  0.1531 -0.1444 -0.4001
 1172loPI   C3A18077   4.045   5.632   7.511  0.2863 -0.1891 -0.0942
 1172loPI   C4A18078   4.072   5.607   8.011 -0.3894 -0.2016 -0.0666
 1172loPI   C5A18079   4.280   5.812   8.264  0.2118  0.0830  0.3128
 1172loPI   C6A18080   4.113   5.636   8.708  0.1476  0.2598  0.1564
 1172loPI   C1B18081   3.628   5.491   6.766  0.1792 -0.0259  0.0172
 1172loPI   C2B18082   3.548   5.456   7.264 -0.1793  0.2550  0.5805
 1172loPI   C3B18083   3.584   5.420   7.678 -0.0588  0.0789 -0.0295
 1172loPI   C4B18084   3.444   5.553   8.109  0.1441 -0.3010 -0.2957
 1173loPI    C118085   6.345   4.907   5.796  0.0969  0.0875 -0.0535
 1173loPI    C218086   6.019   4.722   5.657  0.1764 -0.0740 -0.0273
 1173loPI    C318087   6.375   4.654   5.488  0.1821  0.1795 -0.1214
 1173loPI   PO418088   6.366   4.919   6.039 -0.2157  0.1634 -0.1215
 1173loPI   GL118089   6.101   5.013   6.304  0.0805 -0.0389  0.0598
 1173loPI   GL218090   6.241   4.761   6.500  0.4276 -0.2814 -0.0054
 1173loPI   C1A18091   5.806   5.064   6.589 -0.1974  0.1305 -0.0757
 1173loPI   C2A18092   5.780   5.001   7.038 -0.0885  0.2825  0.2744
 1173loPI   C3A18093   5.711   5.083   7.440  0.2569 -0.2779 -0.0056
 1173loPI   C4A18094   5.818   5.014   7.868 -0.0879  0.1411  0.2062
 1173loPI   C5A18095   5.730   4.984   8.342 -0.0788  0.1238 -0.0129
 1173loPI   C6A18096   5.800   5.053   8.819 -0.2224  0.2396 -0.2944
 1173loPI   C1B18097   6.164   4.715   6.886 -0.2252  0.0842 -0.1996
 1173loPI   C2B18098   6.107   4.729   7.327 -0.1995  0.1090 -0.4163
 1173loPI   C3B18099   6.142   4.675   7.743  0.0577  0.3323 -0.2191
 1173loPI   C4B18100   6.010   4.639   8.129  0.3222 -0.1719  0.1581
 1174loPI    C118101   0.762  13.688   5.747  0.0399  0.0094 -0.1751
 1174loPI    C218102   0.870  13.898   5.424 -0.0195 -0.0338 -0.2231
 1174loPI    C318103   0.563  13.642   5.404 -0.0851  0.0346 -0.1067
 1174loPI   PO418104   0.714  13.838   5.931 -0.1980 -0.0083  0.1255
 1174loPI   GL118105   0.934  13.854   6.356  0.1442 -0.0391  0.0190
 1174loPI   GL218106   0.842  14.115   6.343 -0.1787 -0.3079  0.0758
 1174loPI   C1A18107   1.054  13.743   6.807 -0.2836  0.0049  0.0748
 1174loPI   C2A18108   1.045  13.759   7.114  0.0780  0.1595 -0.1248
 1174loPI   C3A18109   1.092  13.721   7.545 -0.1701  0.5256  0.1870
 1174loPI   C4A18110   1.204  13.753   8.006  0.2296  0.1812  0.0020
 1174loPI   C5A18111   1.134  13.709   8.447  0.0057  0.1355  0.0877
 1174loPI   C6A18112   1.014  14.022   8.547  0.0464 -0.2334 -0.1408
 1174loPI   C1B18113   0.714  14.083   6.786 -0.1658 -0.2550 -0.3168
 1174loPI   C2B18114   0.661  14.176   7.271 -0.1762 -0.1100 -0.0830
 1174loPI   C3B18115   0.647  14.181   7.702 -0.0006 -0.1352 -0.4196
 1174loPI   C4B18116   0.893  14.145   8.027 -0.1799 -0.1904  0.1082
 1175loPI    C118117   3.499   0.298   5.682 -0.0002  0.0819  0.2070
 1175loPI    C218118   3.471   0.580   5.400  0.3021  0.0139  0.1046
 1175loPI    C318119   3.461   0.193   5.298  0.5770 -0.0110  0.1662
 1175loPI   PO418120   3.484   0.467   5.880 -0.0528  0.0597  0.0757
 1175loPI   GL118121   3.436   0.477   6.220  0.2274  0.0461  0.1301
 1175loPI   GL218122   3.465   0.719   6.432 -0.2392 -0.2253  0.1297
 1175loPI   C1A18123   3.253   0.312   6.670  0.2134  0.1761 -0.1080
 1175loPI   C2A18124   3.292   0.355   7.080  0.2619  0.1322 -0.0328
 1175loPI   C3A18125   3.388   0.445   7.452 -0.1374 -0.0110  0.2684
 1175loPI   C4A18126   3.413   0.385   7.949 -0.4115  0.0513 -0.4347
 1175loPI   C5A18127   3.587   0.239   8.268  0.1799 -0.1667  0.0445
 1175loPI   C6A18128   3.773   0.220   8.632 -0.2083  0.4702 -0.1115
 1175loPI   C1B18129   3.425   0.907   6.806  0.0353  0.1904  0.2637
 1175loPI   C2B18130   3.416   0.882   7.247  0.2911  0.1490  0.0419
 1175loPI   C3B18131   3.606   0.906   7.540  0.0241 -0.1089 -0.0831
 1175loPI   C4B18132   3.455   0.889   7.915  0.1320 -0.1386 -0.0657
 1176loPI    C118133  17.042  10.409   5.992 -0.0978  0.0755  0.1890
 1176loPI    C218134  17.110  10.753   5.799  0.1340 -0.1458 -0.1359
 1176loPI    C318135  16.784  10.536   5.714 -0.0792  0.0504  0.1601
 1176loPI   PO418136  17.108  10.516   6.232  0.0116 -0.1195  0.1913
 1176loPI   GL118137  17.399  10.554   6.501 -0.1983  0.1739 -0.0790
 1176loPI   GL218138  17.662  10.339   6.449 -0.0316  0.0419 -0.0351
 1176loPI   C1A18139  17.532  10.720   6.814 -0.3115  0.0372 -0.1112
 1176loPI   C2A18140  17.583  10.720   7.292  0.0929  0.0343  0.0238
 1176loPI   C3A18141  17.745  10.713   7.686  0.1128 -0.0992  0.0094
 1176loPI   C4A18142  17.986  10.618   8.097 -0.2915  0.0950 -0.3094
 1176loPI   C5A18143  18.270  10.817   8.366 -0.0852  0.0036 -0.0137
 1176loPI   C6A18144  18.598  10.759   8.291 -0.1531 -0.1386 -0.1588
 1176loPI   C1B18145  17.926  10.413   6.821 -0.0497  0.0869  0.2035
 1176loPI   C2B18146  17.958  10.397   7.242 -0.1799 -0.0274 -0.2867
 1176loPI   C3B18147  18.048  10.295   7.687  0.1400  0.2100 -0.0299
 1176loPI   C4B18148  18.391  10.324   8.006  0.0519  0.2900  0.0386
 1177loPI    C118149   2.927  17.206   5.742 -0.1679 -0.1553 -0.0472
 1177loPI    C218150   3.173  17.508   5.654 -0.1148 -0.1872 -0.0087
 1177loPI    C318151   3.084  17.235   5.376 -0.0091 -0.2442  0.0130
 1177loPI   PO418152   2.803  17.317   5.975  0.0959  0.0142  0.0002
 1177loPI   GL118153   2.402  17.396   6.314  0.1254 -0.1440  0.1975
 1177loPI   GL218154   2.232  17.213   6.298 -0.0017  0.1728 -0.1444
 1177loPI   C1A18155   2.344  17.649   6.644 -0.0853 -0.2022 -0.1215
 1177loPI   C2A18156   2.349  17.739   7.066 -0.2015  0.1024  0.0635
 1177loPI   C3A18157   2.375  17.690   7.386 -0.0711 -0.0213  0.0302
 1177loPI   C4A18158   2.257  17.683   7.888 -0.1458  0.2005 -0.5862
 1177loPI   C5A18159   2.290  17.758   8.291  0.2224 -0.1072 -0.0676
 1177loPI   C6A18160   2.327  17.814   8.613  0.0262  0.1392 -0.2416
 1177loPI   C1B18161   2.259  17.149   6.764 -0.0476 -0.1866  0.1254
 1177loPI   C2B18162   2.230  17.271   7.132  0.3385  0.0648  0.0386
 1177loPI   C3B18163   2.192  17.231   7.576 -0.1944 -0.2192 -0.1517
 1177loPI   C4B18164   2.206  17.172   7.986 -0.0168 -0.3900  0.0626
 1178loPI    C118165  11.600  11.079   5.623  0.0425 -0.1111 -0.1890
 1178loPI    C218166  11.931  11.282   5.531 -0.0273  0.0201 -0.1537
 1178loPI    C318167  11.876  10.913   5.386  0.2554 -0.1065  0.0510
 1178loPI   PO418168  11.577  11.178   5.924 -0.4143 -0.0635  0.1001
 1178loPI   GL118169  11.704  10.964   6.217  0.0250 -0.3291  0.1112
 1178loPI   GL218170  11.940  10.863   6.331  0.3004 -0.1772  0.1382
 1178loPI   C1A18171  11.344  11.016   6.698 -0.0641 -0.0249  0.0952
 1178loPI   C2A18172  11.197  11.086   7.031  0.1509  0.0877  0.0694
 1178loPI   C3A18173  11.285  11.065   7.469  0.1749  0.0691  0.1970
 1178loPI   C4A18174  11.326  11.156   7.825  0.0954  0.2361 -0.0700
 1178loPI   C5A18175  11.374  11.075   8.295  0.0360 -0.2572  0.0158
 1178loPI   C6A18176  11.737  10.953   8.548  0.1079  0.0309  0.0741
 1178loPI   C1B18177  11.866  11.150   6.631 -0.1132  0.3127  0.0693
 1178loPI   C2B18178  11.802  11.228   7.023  0.3522  0.2233  0.1444
 1178loPI   C3B18179  11.780  11.202   7.480  0.1037  0.2149  0.0549
 1178loPI   C4B18180  11.809  11.303   7.906 -0.0163 -0.0913 -0.2887
 1179loPI    C118181   5.664  10.696   5.822 -0.1865 -0.1427  0.1996
 1179loPI    C218182   5.756  10.324   5.937 -0.0479 -0.1374  0.1092
 1179loPI    C318183   5.664  10.398   5.555 -0.1615 -0.0936  0.1446
 1179loPI   PO418184   5.507  10.792   5.984 -0.3889  0.1486  0.2239
 1179loPI   GL118185   5.327  10.992   6.346 -0.2584  0.0232 -0.1580
 1179loPI   GL218186   5.047  10.853   6.517 -0.0700 -0.0541 -0.0548
 1179loPI   C1A18187   5.490  11.153   6.653  0.1523 -0.1926  0.0782
 1179loPI   C2A18188   5.589  11.169   7.127  0.1375  0.3813  0.0753
 1179loPI   C3A18189   5.573  11.313   7.524  0.3400  0.1328 -0.0822
 1179loPI   C4A18190   5.630  11.186   7.902  0.0377  0.2453  0.0235
 1179loPI   C5A18191   5.734  11.063   8.313 -0.0720 -0.1678 -0.1977
 1179loPI   C6A18192   5.804  11.152   8.781 -0.1358 -0.0154 -0.1379
 1179loPI   C1B18193   5.041  11.128   6.976 -0.1439 -0.0885 -0.0685
 1179loPI   C2B18194   5.088  11.144   7.402  0.2346  0.1786  0.2794
 1179loPI   C3B18195   5.041  11.114   7.837  0.2776 -0.0312 -0.1179
 1179loPI   C4B18196   5.214  11.026   8.190 -0.3105 -0.1680 -0.0375
 1180loPI    C118197  15.109   2.027   5.434 -0.1682  0.0612  0.0400
 1180loPI    C218198  14.970   1.985   5.061  0.0352 -0.0610 -0.0236
 1180loPI    C318199  15.031   2.350   5.211 -0.1254 -0.0104 -0.0802
 1180loPI   PO418200  14.987   1.921   5.584  0.0682  0.0821 -0.1467
 1180loPI   GL118201  15.115   1.757   5.887  0.0600  0.1250  0.0081
 1180loPI   GL218202  14.836   1.980   6.038 -0.1881  0.0443  0.1870
 1180loPI   C1A18203  15.194   1.395   6.091  0.3551 -0.1195 -0.0616
 1180loPI   C2A18204  15.176   1.217   6.362 -0.0494 -0.0588  0.1570
 1180loPI   C3A18205  15.085   1.245   6.839 -0.2069  0.2157 -0.0399
 1180loPI   C4A18206  15.088   1.357   7.286 -0.2132  0.3344 -0.0026
 1180loPI   C5A18207  14.975   1.288   7.672 -0.0313  0.0155 -0.0697
 1180loPI   C6A18208  15.069   1.334   8.092  0.1665 -0.0903  0.2611
 1180loPI   C1B18209  14.942   2.146   6.394  0.0105 -0.0881 -0.1393
 1180loPI   C2B18210  14.956   2.136   6.772  0.0120  0.2922 -0.1931
 1180loPI   C3B18211  14.947   2.213   7.093  0.0079 -0.4031  0.0021
 1180loPI   C4B18212  14.812   2.083   7.453  0.1369  0.2354 -0.2098
 1181loPI    C118213   2.406   7.951   5.905 -0.0648 -0.6020 -0.0502
 1181loPI    C218214   2.360   8.023   5.514 -0.1924  0.0294  0.0707
 1181loPI    C318215   2.680   7.821   5.644 -0.1721 -0.2271 -0.3594
 1181loPI   PO418216   2.269   8.189   6.041  0.0630  0.0736  0.2047
 1181loPI   GL118217   2.179   8.497   6.414  0.1254  0.0738  0.3130
 1181loPI   GL218218   2.286   8.281   6.671 -0.1808  0.1744 -0.1829
 1181loPI   C1A18219   2.245   8.811   6.654 -0.1663  0.1823  0.0189
 1181loPI   C2A18220   2.352   8.886   7.080  0.2240  0.1452  0.1221
 1181loPI   C3A18221   2.361   8.844   7.533  0.0975 -0.0606  0.2310
 1181loPI   C4A18222   2.106   8.772   7.877 -0.1252 -0.0307 -0.1368
 1181loPI   C5A18223   1.980   8.507   8.325  0.0999 -0.1914  0.2689
 1181loPI   C6A18224   1.711   8.260   8.636 -0.1459  0.0505  0.0828
 1181loPI   C1B18225   2.175   8.434   7.032  0.1042  0.0008  0.0283
 1181loPI   C2B18226   2.309   8.364   7.557  0.0150  0.2071 -0.0604
 1181loPI   C3B18227   2.478   8.413   7.912 -0.1005 -0.0406  0.2198
 1181loPI   C4B18228   2.542   8.338   8.333 -0.0068 -0.0487  0.3044
 1182loPI    C118229   7.660   6.054   5.787 -0.1880  0.2242 -0.0570
 1182loPI    C218230   7.980   6.281   5.707  0.0456 -0.0387  0.1137
 1182loPI    C318231   7.906   5.955   5.487 -0.2336  0.1427 -0.0677
 1182loPI   PO418232   7.671   6.118   6.031 -0.0166 -0.0739  0.0130
 1182loPI   GL118233   7.394   6.093   6.430  0.1292  0.0909  0.3333
 1182loPI   GL218234   7.609   6.373   6.428 -0.0078  0.1575 -0.0155
 1182loPI   C1A18235   7.438   5.997   6.878  0.0753 -0.3354 -0.3333
 1182loPI   C2A18236   7.441   6.009   7.348 -0.1115 -0.1411 -0.1512
 1182loPI   C3A18237   7.379   5.977   7.804  0.2003  0.4282  0.1218
 1182loPI   C4A18238   7.503   6.055   8.222 -0.1027  0.1399  0.3299
 1182loPI   C5A18239   7.835   5.973   8.548  0.2290  0.1988 -0.4218
 1182loPI   C6A18240   7.972   5.666   8.723  0.0911  0.0377 -0.0309
 1182loPI   C1B18241   7.598   6.461   6.867 -0.1343 -0.0592 -0.0269
 1182loPI   C2B18242   7.542   6.543   7.260 -0.2006  0.1335 -0.0288
 1182loPI   C3B18243   7.563   6.471   7.717  0.0466  0.0217  0.0910
 1182loPI   C4B18244   7.639   6.483   7.988 -0.0422 -0.1224  0.2211
 1183loPI    C118245   2.432  10.738   5.795  0.2097  0.0774 -0.1932
 1183loPI    C218246   2.206  10.412   5.741  0.2111  0.0218  0.1188
 1183loPI    C318247   2.246  10.679   5.446 -0.0473 -0.1003 -0.0297
 1183loPI   PO418248   2.364  10.831   6.118  0.1320  0.1047 -0.0143
 1183loPI   GL118249   2.313  11.247   6.284 -0.4369  0.1456 -0.3597
 1183loPI   GL218250   2.185  11.519   6.513  0.0366 -0.0577 -0.1794
 1183loPI   C1A18251   2.437  11.149   6.745  0.0088 -0.2434  0.2953
 1183loPI   C2A18252   2.649  11.240   7.020 -0.0024 -0.0406 -0.0658
 1183loPI   C3A18253   2.832  11.289   7.439  0.4618 -0.3463 -0.0527
 1183loPI   C4A18254   2.792  11.354   7.874  0.0776 -0.0454  0.3230
 1183loPI   C5A18255   2.695  11.355   8.308  0.0056 -0.2166 -0.0172
 1183loPI   C6A18256   2.832  11.286   8.750 -0.0450  0.0948 -0.3499
 1183loPI   C1B18257   2.224  11.623   6.968  0.0520  0.4894 -0.2712
 1183loPI   C2B18258   2.460  11.642   7.324 -0.0977  0.1021 -0.1327
 1183loPI   C3B18259   2.490  11.783   7.599  0.1472 -0.0145 -0.0412
 1183loPI   C4B18260   2.439  11.715   7.996 -0.0737 -0.0075  0.3591
 1184loPI    C118261   7.196  10.896   5.698 -0.1882 -0.3373  0.0054
 1184loPI    C218262   6.987  10.862   5.359  0.0155 -0.1318 -0.1443
 1184loPI    C318263   7.327  10.657   5.405  0.0492 -0.0691 -0.1128
 1184loPI   PO418264   7.046  10.902   5.876 -0.1128  0.3884 -0.3664
 1184loPI   GL118265   7.028  10.954   6.296  0.1650  0.1035 -0.0287
 1184loPI   GL218266   7.308  10.958   6.359  0.0536 -0.2549  0.2098
 1184loPI   C1A18267   6.946  11.198   6.732 -0.0208  0.0066  0.1194
 1184loPI   C2A18268   6.878  11.014   7.142 -0.1540  0.2292 -0.0006
 1184loPI   C3A18269   7.071  11.060   7.565  0.2594 -0.1587 -0.3026
 1184loPI   C4A18270   7.059  11.013   8.006 -0.1722 -0.1129  0.0485
 1184loPI   C5A18271   6.997  11.029   8.422 -0.2465  0.0506  0.0275
 1184loPI   C6A18272   6.941  11.011   8.881  0.0010  0.0458  0.0398
 1184loPI   C1B18273   7.262  10.830   6.815  0.0618 -0.0427  0.3260
 1184loPI   C2B18274   7.258  10.705   7.270 -0.0707 -0.1650  0.0234
 1184loPI   C3B18275   7.316  10.596   7.689 -0.1234 -0.2079 -0.1327
 1184loPI   C4B18276   7.427  10.729   8.180 -0.2403 -0.1421 -0.0448
 1185loPI    C118277   1.268  13.748   5.924 -0.0272  0.1448 -0.0501
 1185loPI    C218278   1.523  13.793   5.619  0.2792  0.3039  0.2244
 1185loPI    C318279   1.256  14.080   5.700 -0.0082  0.1280 -0.0760
 1185loPI   PO418280   1.438  13.592   6.120  0.0639  0.0984  0.2286
 1185loPI   GL118281   1.669  13.801   6.513  0.1905 -0.3463  0.0118
 1185loPI   GL218282   1.413  13.963   6.464 -0.0047  0.2256 -0.0420
 1185loPI   C1A18283   1.579  13.869   6.913  0.0695 -0.3318  0.0389
 1185loPI   C2A18284   1.587  13.953   7.328 -0.0013 -0.2170 -0.1500
 1185loPI   C3A18285   1.680  13.873   7.752 -0.0381 -0.0007 -0.0048
 1185loPI   C4A18286   1.688  13.843   8.246 -0.0151 -0.2666 -0.1556
 1185loPI   C5A18287   1.971  13.920   8.578  0.0418  0.1619  0.1193
 1185loPI   C6A18288   2.378  14.021   8.528 -0.0452 -0.2534  0.0136
 1185loPI   C1B18289   1.208  14.213   6.780 -0.1238 -0.1495 -0.0459
 1185loPI   C2B18290   1.200  14.329   7.236 -0.0968  0.1373  0.2802
 1185loPI   C3B18291   1.283  14.163   7.649  0.0598  0.1178 -0.2789
 1185loPI   C4B18292   1.364  14.246   8.046  0.0125 -0.0908 -0.0234
 1186loPI    C118293   4.254   9.372   5.963 -0.1663 -0.1752 -0.2302
 1186loPI    C218294   4.149   9.611   5.660 -0.2364 -0.2187 -0.2403
 1186loPI    C318295   4.435   9.336   5.608 -0.1744 -0.1551 -0.2362
 1186loPI   PO418296   4.288   9.480   6.166 -0.2700 -0.0080  0.0567
 1186loPI   GL118297   4.342   9.511   6.532  0.3537 -0.0959  0.1941
 1186loPI   GL218298   4.696   9.492   6.611  0.3789 -0.1325 -0.1320
 1186loPI   C1A18299   4.149   9.504   6.798  0.1031 -0.2683  0.0361
 1186loPI   C2A18300   4.083   9.507   7.253  0.2248 -0.2381  0.2276
 1186loPI   C3A18301   4.070   9.416   7.690 -0.0953 -0.1893 -0.0094
 1186loPI   C4A18302   4.136   9.468   8.176  0.4067  0.2709 -0.1286
 1186loPI   C5A18303   4.340   9.467   8.583  0.0942  0.4185  0.0847
 1186loPI   C6A18304   4.646   9.394   8.983  0.1240 -0.1395  0.0210
 1186loPI   C1B18305   5.070   9.598   6.818  0.2640 -0.1562 -0.0526
 1186loPI   C2B18306   5.231   9.683   7.246  0.0686 -0.1848  0.0299
 1186loPI   C3B18307   5.185   9.584   7.665  0.1295  0.0024  0.1326
 1186loPI   C4B18308   5.248   9.629   8.088 -0.0139  0.0656 -0.0442
 1187loPI    C118309   1.890  14.549   5.698 -0.1418  0.1862 -0.0589
 1187loPI    C218310   1.767  14.200   5.546  0.2753  0.0282 -0.0480
 1187loPI    C318311   1.528  14.521   5.529 -0.0674 -0.2259 -0.1613
 1187loPI   PO418312   2.053  14.425   5.955  0.3454  0.2045  0.0650
 1187loPI   GL118313   1.949  14.423   6.340 -0.1287 -0.2330  0.0783
 1187loPI   GL218314   2.080  14.074   6.322 -0.2942 -0.2112 -0.0043
 1187loPI   C1A18315   1.649  14.363   6.645  0.2999 -0.0312 -0.1716
 1187loPI   C2A18316   1.678  14.388   7.059 -0.1890  0.1587 -0.1150
 1187loPI   C3A18317   1.678  14.412   7.496  0.2527 -0.0034 -0.0275
 1187loPI   C4A18318   1.855  14.316   7.892 -0.0768  0.0342 -0.1832
 1187loPI   C5A18319   1.806  14.337   8.278  0.2897  0.1308 -0.2579
 1187loPI   C6A18320   1.521  14.195   8.564  0.0013 -0.0868 -0.0412
 1187loPI   C1B18321   2.087  14.078   6.690 -0.1004 -0.0334  0.0179
 1187loPI   C2B18322   2.092  13.963   7.091 -0.4379 -0.4418  0.1165
 1187loPI   C3B18323   2.121  13.989   7.488 -0.2771 -0.1206  0.1220
 1187loPI   C4B18324   2.208  14.009   7.929 -0.4071  0.1085  0.0356
 1188loPI    C118325  11.380  13.335   5.789  0.1005 -0.2195  0.1178
 1188loPI    C218326  11.189  12.990   5.853 -0.2105 -0.0993 -0.1375
 1188loPI    C318327  11.521  12.996   5.631  0.0466 -0.2954  0.2314
 1188loPI   PO418328  11.268  13.509   5.946  0.1854 -0.2966  0.0297
 1188loPI   GL118329  11.090  13.436   6.306 -0.1379  0.1870 -0.0799
 1188loPI   GL218330  11.100  13.770   6.396 -0.1958  0.0798 -0.0995
 1188loPI   C1A18331  10.958  13.271   6.701  0.1929  0.2062 -0.1033
 1188loPI   C2A18332  11.032  13.234   7.071  0.2083  0.1228 -0.0105
 1188loPI   C3A18333  11.003  13.313   7.493  0.0833 -0.1645 -0.2833
 1188loPI   C4A18334  11.031  13.353   7.979  0.1471  0.1908 -0.0323
 1188loPI   C5A18335  11.130  13.110   8.358  0.3027  0.0596 -0.1597
 1188loPI   C6A18336  11.450  12.890   8.594  0.0217 -0.0724  0.0157
 1188loPI   C1B18337  11.321  13.820   6.667 -0.2210 -0.1618  0.1164
 1188loPI   C2B18338  11.261  13.778   7.091 -0.2199  0.1591  0.1368
 1188loPI   C3B18339  11.266  13.775   7.560 -0.2704  0.0806 -0.1029
 1188loPI   C4B18340  11.288  13.785   8.067 -0.0258  0.0692 -0.1481
 1189loPI    C118341  17.187   0.295   5.616  0.0463  0.0761  0.0835
 1189loPI    C218342  16.901   0.530   5.465 -0.1119 -0.0129  0.2404
 1189loPI    C318343  17.101   0.280   5.226 -0.0432  0.1751  0.0989
 1189loPI   PO418344  17.027   0.227   5.888  0.0484  0.1392  0.0503
 1189loPI   GL118345  16.750   0.005   6.197 -0.2315  0.1038  0.1605
 1189loPI   GL218346  16.592  -0.235   6.301  0.0860  0.2622 -0.1612
 1189loPI   C1A18347  16.779   0.165   6.618 -0.4503 -0.0947 -0.0770
 1189loPI   C2A18348  16.660   0.258   7.077 -0.0438  0.0246  0.3465
 1189loPI   C3A18349  16.641   0.316   7.521  0.1819 -0.1783 -0.0990
 1189loPI   C4A18350  16.714   0.378   7.969 -0.0343  0.1306  0.2371
 1189loPI   C5A18351  16.808   0.715   8.210  0.0138 -0.2360 -0.3719
 1189loPI   C6A18352  16.823   1.112   8.366  0.0317 -0.0942 -0.0898
 1189loPI   C1B18353  16.580  -0.327   6.756  0.1206 -0.1853  0.0091
 1189loPI   C2B18354  16.547  -0.259   7.189 -0.0197 -0.1600 -0.0154
 1189loPI   C3B18355  16.481  -0.140   7.546 -0.0856  0.0457  0.0692
 1189loPI   C4B18356  16.462  -0.186   7.966  0.1461  0.2157 -0.2350
 1190loPI    C118357   2.021  16.927   5.698  0.1289  0.1511  0.0483
 1190loPI    C218358   1.746  17.196   5.589  0.1562  0.1982  0.0955
 1190loPI    C318359   2.073  17.142   5.364  0.1351  0.1812  0.0688
 1190loPI   PO418360   2.003  16.962   5.943  0.3090 -0.0836 -0.2159
 1190loPI   GL118361   1.864  16.813   6.330 -0.1523  0.0518  0.1306
 1190loPI   GL218362   2.086  16.669   6.450 -0.3819  0.0954  0.1257
 1190loPI   C1A18363   1.803  17.080   6.639  0.0857 -0.2228 -0.4962
 1190loPI   C2A18364   1.760  17.072   7.107 -0.1784 -0.1167  0.1126
 1190loPI   C3A18365   1.731  17.166   7.622 -0.0691  0.3705  0.2931
 1190loPI   C4A18366   1.601  17.046   8.018 -0.1067 -0.1448 -0.1284
 1190loPI   C5A18367   1.535  16.769   8.336 -0.0707  0.3330 -0.0838
 1190loPI   C6A18368   1.578  16.317   8.268  0.2671 -0.2636 -0.0652
 1190loPI   C1B18369   2.077  16.676   6.838  0.0074 -0.0158  0.0729
 1190loPI   C2B18370   2.140  16.801   7.251  0.0337 -0.1053 -0.2249
 1190loPI   C3B18371   1.992  16.708   7.705 -0.1325  0.0361  0.1983
 1190loPI   C4B18372   1.940  16.683   8.119 -0.1632 -0.0867 -0.0262
 1191loPI    C118373   0.267  14.184   5.419  0.0469 -0.1406 -0.0536
 1191loPI    C218374   0.587  14.231   5.182 -0.0117 -0.0623 -0.1181
 1191loPI    C318375   0.219  14.250   5.027 -0.0528  0.0882 -0.0044
 1191loPI   PO418376   0.354  14.074   5.604 -0.3568 -0.0788  0.1481
 1191loPI   GL118377   0.407  14.228   6.068  0.3005  0.2818 -0.0653
 1191loPI   GL218378   0.329  13.970   6.230 -0.2023  0.0689 -0.0552
 1191loPI   C1A18379   0.379  14.453   6.483 -0.1633  0.1667 -0.1619
 1191loPI   C2A18380   0.326  14.482   6.951 -0.0109  0.0923 -0.0078
 1191loPI   C3A18381   0.388  14.551   7.446  0.1612  0.2732 -0.0188
 1191loPI   C4A18382   0.406  14.602   7.939  0.1416  0.2905  0.2408
 1191loPI   C5A18383   0.280  14.650   8.371  0.1305  0.1811  0.0397
 1191loPI   C6A18384   0.233  14.587   8.734 -0.0776 -0.0420 -0.1447
 1191loPI   C1B18385   0.275  14.000   6.629  0.0036  0.3462 -0.1661
 1191loPI   C2B18386   0.209  14.037   7.106 -0.0722  0.0106  0.1059
 1191loPI   C3B18387   0.147  13.995   7.563 -0.1669 -0.2365  0.0263
 1191loPI   C4B18388   0.275  14.056   8.004  0.1559  0.1293  0.3517
 1192loPI    C118389   5.490  17.573   6.090  0.0410 -0.0092 -0.0112
 1192loPI    C218390   5.443  17.642   5.699 -0.0839 -0.2444 -0.0390
 1192loPI    C318391   5.250  17.868   5.967 -0.1563 -0.2121 -0.1180
 1192loPI   PO418392   5.573  17.319   6.089  0.1197 -0.1051  0.0442
 1192loPI   GL118393   5.299  17.184   6.406  0.0260 -0.2017 -0.0446
 1192loPI   GL218394   4.970  16.986   6.384 -0.2882 -0.0197 -0.1081
 1192loPI   C1A18395   5.446  17.155   6.848  0.0948  0.0570 -0.2685
 1192loPI   C2A18396   5.472  17.097   7.194 -0.4218  0.0425  0.3169
 1192loPI   C3A18397   5.533  17.083   7.609  0.0583 -0.1825 -0.0168
 1192loPI   C4A18398   5.592  17.115   8.107  0.1883 -0.0001  0.3450
 1192loPI   C5A18399   5.556  17.404   8.560 -0.1985  0.1848 -0.3652
 1192loPI   C6A18400   5.466  17.911   8.687  0.1847  0.3257 -0.0499
 1192loPI   C1B18401   4.965  17.031   6.771  0.3029  0.0735  0.0499
 1192loPI   C2B18402   4.875  16.926   7.153 -0.4468 -0.0913 -0.0544
 1192loPI   C3B18403   5.070  17.005   7.524  0.0156  0.3117 -0.1700
 1192loPI   C4B18404   5.064  16.905   7.942 -0.2056  0.2969  0.1731
 1193loPI    C118405  10.429   1.193   5.669 -0.0478 -0.2391  0.1553
 1193loPI    C218406  10.525   1.581   5.646  0.0132 -0.2623  0.0082
 1193loPI    C318407  10.631   1.331   5.352 -0.2177 -0.3491 -0.0030
 1193loPI   PO418408  10.530   1.148   5.886  0.1503  0.4047  0.3408
 1193loPI   GL118409  10.385   1.243   6.298 -0.3865  0.0694 -0.1264
 1193loPI   GL218410  10.570   1.019   6.475 -0.0744 -0.4329  0.1544
 1193loPI   C1A18411  10.541   1.526   6.603 -0.0466 -0.1092 -0.1261
 1193loPI   C2A18412  10.512   1.580   7.072  0.1233  0.0865 -0.2072
 1193loPI   C3A18413  10.432   1.524   7.548  0.1377 -0.0497 -0.3274
 1193loPI   C4A18414  10.323   1.588   8.040  0.0889  0.0862 -0.3165
 1193loPI   C5A18415  10.319   1.565   8.419  0.0072 -0.3067 -0.0446
 1193loPI   C6A18416  10.249   1.313   8.740  0.3875  0.1284 -0.2319
 1193loPI   C1B18417  10.391   1.024   6.862  0.0843 -0.1568 -0.3295
 1193loPI   C2B18418  10.370   1.044   7.358 -0.1933  0.0184  0.2575
 1193loPI   C3B18419  10.177   1.022   7.837  0.1207 -0.2038  0.0181
 1193loPI   C4B18420  10.092   0.990   8.222  0.1413 -0.2491  0.3437
 1194loPI    C118421  17.211   5.198   5.669  0.0620  0.1514  0.0105
 1194loPI    C218422  17.318   4.958   5.367  0.1105  0.0092  0.1398
 1194loPI    C318423  17.533   5.286   5.448 -0.0378  0.1751 -0.1267
 1194loPI   PO418424  17.075   4.968   5.851  0.0394  0.2478  0.0520
 1194loPI   GL118425  17.189   5.068   6.320 -0.1331 -0.0222 -0.3363
 1194loPI   GL218426  17.339   4.784   6.192  0.2943 -0.1885 -0.0233
 1194loPI   C1A18427  17.162   5.072   6.739 -0.2150  0.2172 -0.1156
 1194loPI   C2A18428  17.275   5.003   7.201  0.1031  0.2859  0.0552
 1194loPI   C3A18429  17.136   4.924   7.662 -0.0428 -0.0147 -0.0235
 1194loPI   C4A18430  17.086   4.926   8.172  0.0719  0.0775  0.2344
 1194loPI   C5A18431  16.968   4.649   8.420  0.2541 -0.2219 -0.0150
 1194loPI   C6A18432  16.770   4.197   8.429 -0.1665  0.1249  0.2328
 1194loPI   C1B18433  17.588   4.658   6.423 -0.0237  0.3152 -0.0264
 1194loPI   C2B18434  17.585   4.667   6.818 -0.3788 -0.0995  0.0560
 1194loPI   C3B18435  17.558   4.608   7.250  0.0003  0.0511  0.1492
 1194loPI   C4B18436  17.438   4.463   7.660  0.1412  0.0773  0.0802
 1195loPI    C118437   7.852  16.257   5.696 -0.1152  0.0673 -0.1060
 1195loPI    C218438   7.580  16.545   5.643 -0.1875 -0.0160 -0.1924
 1195loPI    C318439   7.765  16.385   5.327 -0.0232  0.0540 -0.1327
 1195loPI   PO418440   7.927  16.242   6.113  0.0019 -0.1532 -0.1211
 1195loPI   GL118441   7.837  16.505   6.575  0.4727 -0.1886 -0.1953
 1195loPI   GL218442   8.185  16.329   6.680  0.1223 -0.0447  0.3125
 1195loPI   C1A18443   7.725  16.674   6.996  0.2901 -0.0448  0.0798
 1195loPI   C2A18444   7.707  16.715   7.406 -0.2893  0.2204  0.0003
 1195loPI   C3A18445   7.696  16.746   7.834 -0.1921 -0.0331  0.1620
 1195loPI   C4A18446   7.721  16.689   8.263 -0.1324 -0.1010  0.0996
 1195loPI   C5A18447   7.807  16.748   8.743 -0.2315  0.1420 -0.0116
 1195loPI   C6A18448   8.182  16.715   8.990 -0.2320 -0.1596 -0.2921
 1195loPI   C1B18449   8.071  16.334   7.145  0.0937 -0.0688 -0.1091
 1195loPI   C2B18450   8.159  16.342   7.566  0.0669  0.0335 -0.2041
 1195loPI   C3B18451   8.034  16.377   7.937 -0.2273 -0.0733  0.2857
 1195loPI   C4B18452   8.098  16.404   8.438 -0.0689 -0.0060 -0.2134
 1196loPI    C118453  12.942  14.500   5.569  0.1774 -0.0560 -0.0985
 1196loPI    C218454  12.828  14.838   5.388  0.0838 -0.0099  0.0449
 1196loPI    C318455  13.024  14.557   5.181 -0.0602  0.0232 -0.1386
 1196loPI   PO418456  12.759  14.495   5.796 -0.1026  0.0643  0.1561
 1196loPI   GL118457  12.824  14.698   6.243 -0.1263  0.2681  0.2103
 1196loPI   GL218458  13.011  14.445   6.302 -0.2129  0.1976 -0.4143
 1196loPI   C1A18459  12.796  14.667   6.711  0.0738 -0.1154  0.2991
 1196loPI   C2A18460  12.876  14.679   7.144  0.3777  0.0124 -0.0275
 1196loPI   C3A18461  12.795  14.626   7.604  0.0932  0.0198  0.2952
 1196loPI   C4A18462  12.964  14.621   7.908 -0.0421 -0.2357 -0.0922
 1196loPI   C5A18463  13.262  14.793   8.206  0.0954 -0.1512  0.1003
 1196loPI   C6A18464  13.471  15.145   8.299 -0.0723 -0.1620  0.1597
 1196loPI   C1B18465  13.184  14.265   6.599 -0.0597 -0.0568  0.0176
 1196loPI   C2B18466  13.256  14.239   7.076 -0.0510 -0.2922  0.2547
 1196loPI   C3B18467  13.206  14.327   7.540  0.2425  0.4002  0.1490
 1196loPI   C4B18468  13.253  14.200   7.914 -0.1560 -0.0999 -0.1382
 1197loPI    C118469   3.006   7.883   6.163  0.1998  0.0115  0.0594
 1197loPI    C218470   3.132   7.645   5.868 -0.1255 -0.0283 -0.0509
 1197loPI    C318471   3.203   8.038   5.851 -0.0464 -0.0454 -0.1267
 1197loPI   PO418472   2.717   7.678   6.228  0.2994  0.0076  0.1364
 1197loPI   GL118473   2.621   7.817   6.670 -0.1509  0.3062 -0.1986
 1197loPI   GL218474   2.688   8.058   6.894  0.1413  0.0389  0.0841
 1197loPI   C1A18475   2.715   7.555   7.096 -0.0229 -0.0402 -0.0207
 1197loPI   C2A18476   2.740   7.452   7.524  0.3016 -0.1754  0.0054
 1197loPI   C3A18477   2.766   7.532   7.963  0.2237 -0.2650 -0.1895
 1197loPI   C4A18478   2.714   7.625   8.354 -0.1242 -0.0352 -0.2515
 1197loPI   C5A18479   2.900   7.392   8.684 -0.0156 -0.3576 -0.2283
 1197loPI   C6A18480   2.877   7.588   9.035  0.0770 -0.2464 -0.1674
 1197loPI   C1B18481   2.879   8.032   7.269  0.2306  0.0884 -0.1963
 1197loPI   C2B18482   2.957   8.116   7.769 -0.0161  0.1279 -0.2792
 1197loPI   C3B18483   3.063   8.190   8.111  0.0149  0.0408  0.0044
 1197loPI   C4B18484   3.019   8.392   8.499  0.1200 -0.1755 -0.1750
 1198loPI    C118485   5.702   3.785   5.957 -0.0818  0.2059  0.0429
 1198loPI    C218486   5.771   3.578   5.621  0.1271  0.1249  0.1339
 1198loPI    C318487   5.641   3.955   5.600  0.2169  0.1472 -0.0396
 1198loPI   PO418488   5.556   3.610   6.089  0.2920 -0.2372  0.2554
 1198loPI   GL118489   5.724   3.602   6.553  0.1486  0.0386  0.0626
 1198loPI   GL218490   5.426   3.488   6.592  0.0720  0.0154 -0.2146
 1198loPI   C1A18491   5.713   3.661   6.962 -0.0113 -0.0544 -0.0344
 1198loPI   C2A18492   5.834   3.667   7.322  0.0127  0.2159 -0.2089
 1198loPI   C3A18493   5.779   3.612   7.761  0.1842 -0.0407 -0.2822
 1198loPI   C4A18494   5.637   3.590   8.144 -0.2164  0.2119  0.2317
 1198loPI   C5A18495   5.820   3.529   8.461  0.1348 -0.0122  0.3352
 1198loPI   C6A18496   5.930   3.337   8.846 -0.0438  0.1278 -0.1778
 1198loPI   C1B18497   5.196   3.617   7.049 -0.0126 -0.2388  0.2841
 1198loPI   C2B18498   5.343   3.536   7.510  0.4015 -0.0191 -0.2929
 1198loPI   C3B18499   5.210   3.497   7.897 -0.0769 -0.0316  0.0031
 1198loPI   C4B18500   5.226   3.742   8.330  0.0268  0.3042 -0.0940
 1199loPI    C118501  10.781  10.966   5.707  0.1822 -0.2219 -0.0755
 1199loPI    C218502  11.088  11.217   5.654  0.2372 -0.2244  0.2135
 1199loPI    C318503  10.899  11.062   5.337  0.1059  0.2954  0.0272
 1199loPI   PO418504  10.743  10.982   6.022  0.0006  0.2265 -0.2334
 1199loPI   GL118505  10.621  10.775   6.364 -0.0783  0.1827  0.0396
 1199loPI   GL218506  10.310  10.680   6.450  0.0812  0.0649  0.1954
 1199loPI   C1A18507  10.671  10.908   6.899  0.3312  0.0668 -0.1118
 1199loPI   C2A18508  10.834  10.966   7.389 -0.1628 -0.0467 -0.1222
 1199loPI   C3A18509  10.851  10.956   7.759 -0.4345  0.1911  0.1368
 1199loPI   C4A18510  10.707  10.974   8.216 -0.2039  0.2470 -0.2256
 1199loPI   C5A18511  10.573  10.921   8.586  0.0947  0.0954  0.1683
 1199loPI   C6A18512  10.821  10.517   8.797 -0.4295 -0.0953 -0.1215
 1199loPI   C1B18513  10.200  10.809   6.806 -0.1728  0.2026  0.2426
 1199loPI   C2B18514  10.172  10.832   7.278 -0.1082  0.2255  0.0782
 1199loPI   C3B18515  10.355  10.765   7.670  0.1653  0.1444  0.2604
 1199loPI   C4B18516  10.273  10.730   8.053  0.0473 -0.2489 -0.1721
 1200loPI    C118517   3.045  12.992   5.661  0.1470  0.0483  0.0446
 1200loPI    C218518   3.071  12.655   5.447  0.0422  0.1054 -0.0585
 1200loPI    C318519   3.110  13.010   5.267 -0.1668  0.1571 -0.0044
 1200loPI   PO418520   2.797  12.906   5.805 -0.1191 -0.1892  0.4276
 1200loPI   GL118521   2.754  12.859   6.272  0.1627 -0.1467 -0.0383
 1200loPI   GL218522   3.091  12.920   6.263 -0.2030 -0.2319  0.3049
 1200loPI   C1A18523   2.719  12.708   6.694 -0.2033  0.0728 -0.1482
 1200loPI   C2A18524   2.570  12.703   7.084  0.2083 -0.2587  0.2367
 1200loPI   C3A18525   2.669  12.759   7.579 -0.0794  0.1301 -0.0473
 1200loPI   C4A18526   2.772  12.806   8.004 -0.0594 -0.1693 -0.0573
 1200loPI   C5A18527   2.959  13.025   8.346  0.3300  0.2403 -0.2595
 1200loPI   C6A18528   2.881  13.287   8.604  0.4580 -0.0649  0.0719
 1200loPI   C1B18529   3.218  12.821   6.593  0.0336 -0.0966 -0.5257
 1200loPI   C2B18530   3.181  12.784   7.049  0.0104 -0.0263  0.1208
 1200loPI   C3B18531   3.163  12.756   7.577  0.3226  0.2626  0.0652
 1200loPI   C4B18532   3.225  12.949   7.931  0.0830  0.2670 -0.0367
 1201loPI    C118533   0.900   1.952   5.537  0.2192  0.1568 -0.0997
 1201loPI    C218534   0.756   2.158   5.226 -0.3753  0.1580  0.1615
 1201loPI    C318535   0.786   1.760   5.205 -0.1574  0.1809  0.0100
 1201loPI   PO418536   1.091   2.091   5.630  0.2425 -0.3233  0.0973
 1201loPI   GL118537   1.291   2.089   6.030 -0.2254 -0.3420  0.2860
 1201loPI   GL218538   1.496   2.237   6.214 -0.0025  0.0730  0.3172
 1201loPI   C1A18539   0.962   2.238   6.375  0.1181  0.1297 -0.2574
 1201loPI   C2A18540   1.029   2.196   6.822 -0.1360 -0.1240 -0.2557
 1201loPI   C3A18541   1.040   1.995   7.291  0.2328  0.1335  0.2370
 1201loPI   C4A18542   1.040   2.131   7.742 -0.1192 -0.0534 -0.1034
 1201loPI   C5A18543   1.058   2.098   8.173 -0.3575  0.1740  0.0086
 1201loPI   C6A18544   1.380   2.190   8.423 -0.1216  0.1908 -0.0892
 1201loPI   C1B18545   1.640   2.283   6.515 -0.1584  0.1739 -0.3282
 1201loPI   C2B18546   1.552   2.283   6.967 -0.2345 -0.2310 -0.0406
 1201loPI   C3B18547   1.526   2.233   7.364  0.1675 -0.0884  0.0709
 1201loPI   C4B18548   1.590   2.402   7.690 -0.1630 -0.1182 -0.1536
 1202loPI    C118549   4.773   0.203   5.911 -0.2201  0.1924 -0.0461
 1202loPI    C218550   4.906   0.067   5.560  0.1587  0.2919  0.0545
 1202loPI    C318551   4.651   0.375   5.571 -0.0035  0.1673 -0.1377
 1202loPI   PO418552   4.713   0.031   6.001 -0.1445  0.0235 -0.1093
 1202loPI   GL118553   4.796  -0.095   6.369  0.0233 -0.0854  0.0022
 1202loPI   GL218554   5.160   0.071   6.418 -0.0339 -0.0287  0.2192
 1202loPI   C1A18555   4.638  -0.202   6.690  0.3012 -0.1217  0.2737
 1202loPI   C2A18556   4.616  -0.275   7.054  0.1286  0.1573 -0.1763
 1202loPI   C3A18557   4.618  -0.325   7.419  0.1269  0.0790  0.3082
 1202loPI   C4A18558   4.679  -0.294   7.839  0.0177 -0.3664 -0.1365
 1202loPI   C5A18559   4.839  -0.255   8.274  0.3077 -0.1542 -0.2418
 1202loPI   C6A18560   5.237   0.076   8.319  0.1920 -0.1650 -0.0613
 1202loPI   C1B18561   5.077  -0.056   6.819  0.1154  0.1701 -0.0057
 1202loPI   C2B18562   5.070  -0.159   7.245  0.1113  0.1238  0.0975
 1202loPI   C3B18563   5.076  -0.095   7.606 -0.0107 -0.0941 -0.1794
 1202loPI   C4B18564   5.228  -0.192   7.924  0.3214  0.1633 -0.1324
 1203loPI    C118565  12.863   9.426   6.124 -0.2588 -0.0887 -0.1168
 1203loPI    C218566  12.981   9.665   5.826  0.0048  0.0207  0.0715
 1203loPI    C318567  13.245   9.422   6.003 -0.1261  0.0319  0.2849
 1203loPI   PO418568  12.714   9.504   6.286  0.0242 -0.1717 -0.1417
 1203loPI   GL118569  12.631   9.755   6.639  0.0569 -0.2427  0.0312
 1203loPI   GL218570  12.295   9.964   6.628 -0.1398 -0.2221 -0.1478
 1203loPI   C1A18571  12.732   9.866   6.993 -0.2576  0.0678 -0.1606
 1203loPI   C2A18572  12.704   9.624   7.341  0.0374 -0.0010 -0.1350
 1203loPI   C3A18573  12.707   9.569   7.711 -0.3280  0.1238  0.1845
 1203loPI   C4A18574  12.668   9.562   8.097  0.0538 -0.0076  0.1229
 1203loPI   C5A18575  12.497   9.599   8.477  0.1418 -0.1671 -0.2256
 1203loPI   C6A18576  12.627   9.781   8.892 -0.0393  0.0589  0.0038
 1203loPI   C1B18577  12.239  10.038   7.045  0.0941  0.2212 -0.0667
 1203loPI   C2B18578  12.340   9.944   7.469  0.2108 -0.3008  0.3440
 1203loPI   C3B18579  12.334   9.978   7.889 -0.3729  0.0439 -0.0326
 1203loPI   C4B18580  12.289   9.997   8.216  0.0134 -0.0024  0.0575
 1204loPI    C118581  15.119  14.715   5.741  0.0378  0.0110 -0.1836
 1204loPI    C218582  15.178  14.342   5.608 -0.1119  0.0071 -0.2422
 1204loPI    C318583  15.377  14.647   5.443  0.3542 -0.0955  0.1090
 1204loPI   PO418584  15.111  14.739   5.874 -0.1355 -0.1516  0.0991
 1204loPI   GL118585  15.209  14.759   6.364 -0.1963  0.0710 -0.2995
 1204loPI   GL218586  15.481  14.810   6.243 -0.1186  0.2125  0.0572
 1204loPI   C1A18587  15.179  14.795   6.714 -0.0014 -0.2183  0.2101
 1204loPI   C2A18588  15.330  14.768   7.084  0.1541  0.0812 -0.1859
 1204loPI   C3A18589  15.258  14.810   7.516  0.0310 -0.0068 -0.2061
 1204loPI   C4A18590  15.192  14.934   7.973  0.1915 -0.1432 -0.1275
 1204loPI   C5A18591  15.361  14.777   8.371 -0.0354  0.2711  0.0221
 1204loPI   C6A18592  15.304  14.899   8.742  0.2965  0.2370 -0.3672
 1204loPI   C1B18593  15.768  14.976   6.602  0.1102  0.0379 -0.0151
 1204loPI   C2B18594  15.793  14.938   6.965 -0.0161  0.0473 -0.1797
 1204loPI   C3B18595  15.746  14.993   7.452 -0.1114 -0.1155  0.0495
 1204loPI   C4B18596  15.743  14.906   7.910 -0.0638  0.2021 -0.0744
 1205loPI    C118597  16.207  12.435   5.785 -0.0964 -0.1036 -0.1252
 1205loPI    C218598  16.154  12.721   5.510  0.1790 -0.0237 -0.0978
 1205loPI    C318599  16.437  12.443   5.458  0.0181 -0.1991 -0.0476
 1205loPI   PO418600  16.290  12.554   6.020  0.0742 -0.0941  0.1225
 1205loPI   GL118601  16.200  12.638   6.384 -0.0499  0.0327 -0.1920
 1205loPI   GL218602  16.000  12.872   6.379  0.0426 -0.0941  0.2149
 1205loPI   C1A18603  16.466  12.974   6.560  0.0308 -0.3184  0.1133
 1205loPI   C2A18604  16.243  13.131   6.749 -0.1046 -0.0875 -0.0181
 1205loPI   C3A18605  16.125  13.121   7.110 -0.1973  0.0529 -0.0318
 1205loPI   C4A18606  16.140  13.262   7.487 -0.2440  0.1407  0.1913
 1205loPI   C5A18607  16.158  13.094   7.861 -0.0172 -0.0743 -0.2053
 1205loPI   C6A18608  16.311  12.918   8.175  0.0009 -0.0610  0.2825
 1205loPI   C1B18609  15.998  12.663   6.873  0.1542 -0.0892 -0.0737
 1205loPI   C2B18610  16.000  12.685   7.390 -0.0514 -0.4148 -0.1531
 1205loPI   C3B18611  15.978  12.702   7.720  0.2169 -0.1551  0.1020
 1205loPI   C4B18612  15.893  12.636   8.153  0.0845  0.2408 -0.1246
 1206loPI    C118613   9.655   1.607   5.746 -0.1031  0.0968 -0.0486
 1206loPI    C218614  10.049   1.667   5.719 -0.1063  0.0955 -0.0994
 1206loPI    C318615   9.796   1.922   5.543 -0.1404  0.3205  0.2657
 1206loPI   PO418616   9.542   1.494   6.052  0.1228 -0.0991  0.5130
 1206loPI   GL118617   9.565   1.404   6.441 -0.0939  0.1930  0.0078
 1206loPI   GL218618   9.687   1.774   6.544  0.1829  0.2836 -0.3705
 1206loPI   C1A18619   9.529   1.247   6.898 -0.0916  0.1640 -0.2441
 1206loPI   C2A18620   9.523   1.322   7.402  0.1512 -0.3096  0.0870
 1206loPI   C3A18621   9.369   1.439   7.812  0.3177  0.0631 -0.3482
 1206loPI   C4A18622   9.291   1.370   8.183  0.1680 -0.2125  0.2057
 1206loPI   C5A18623   9.311   1.233   8.601 -0.1407  0.0440  0.1340
 1206loPI   C6A18624   9.384   1.176   8.965 -0.2102  0.3512 -0.1620
 1206loPI   C1B18625   9.693   1.734   6.981 -0.4001 -0.0463  0.1901
 1206loPI   C2B18626   9.684   1.795   7.374 -0.0302  0.0822  0.1417
 1206loPI   C3B18627   9.520   1.858   7.661  0.0638  0.0614 -0.1353
 1206loPI   C4B18628   9.395   1.869   8.081  0.2068  0.2338  0.1251
 1207loPI    C118629   7.050   3.217   5.878 -0.0809  0.4084  0.0862
 1207loPI    C218630   6.749   3.338   5.644 -0.0364  0.1010 -0.1374
 1207loPI    C318631   6.755   2.964   5.784  0.1424  0.1644  0.0298
 1207loPI   PO418632   7.033   3.344   6.119  0.0483 -0.0733  0.1844
 1207loPI   GL118633   7.024   3.329   6.584  0.0727 -0.1533  0.0941
 1207loPI   GL218634   7.198   2.933   6.620  0.0102 -0.0372 -0.0597
 1207loPI   C1A18635   7.247   3.570   6.933  0.2628 -0.2931  0.0877
 1207loPI   C2A18636   7.171   3.547   7.381  0.2172 -0.1181 -0.2936
 1207loPI   C3A18637   7.165   3.591   7.791 -0.1617 -0.1571 -0.0486
 1207loPI   C4A18638   7.109   3.545   8.219  0.0417 -0.1861 -0.0258
 1207loPI   C5A18639   6.806   3.555   8.549 -0.1933 -0.0460  0.0827
 1207loPI   C6A18640   6.340   3.630   8.544  0.1657 -0.1955 -0.0939
 1207loPI   C1B18641   7.037   3.099   7.097  0.4027 -0.1327 -0.0740
 1207loPI   C2B18642   7.111   3.089   7.575 -0.1827 -0.1358  0.1396
 1207loPI   C3B18643   6.961   3.138   7.970  0.1359 -0.1556 -0.1845
 1207loPI   C4B18644   6.988   3.067   8.344  0.2000  0.0662  0.0639
 1208loPI    C118645  11.870  13.421   5.744  0.1599  0.1073  0.0167
 1208loPI    C218646  11.993  13.140   5.488  0.2039  0.1619 -0.0222
 1208loPI    C318647  11.693  13.384   5.388  0.2475  0.2091 -0.0380
 1208loPI   PO418648  11.884  13.322   5.976 -0.1390 -0.0407  0.0477
 1208loPI   GL118649  11.928  13.575   6.372 -0.0678 -0.0758  0.1173
 1208loPI   GL218650  11.614  13.480   6.406  0.0386 -0.0304 -0.1704
 1208loPI   C1A18651  12.128  13.536   6.668 -0.0025 -0.0309 -0.2044
 1208loPI   C2A18652  12.174  13.602   7.131 -0.2323  0.2649 -0.1873
 1208loPI   C3A18653  12.112  13.522   7.632  0.0608  0.2189 -0.0124
 1208loPI   C4A18654  12.051  13.503   8.061 -0.1113 -0.1879 -0.2228
 1208loPI   C5A18655  12.241  13.584   8.420  0.2892  0.2495 -0.0232
 1208loPI   C6A18656  12.397  13.699   8.799 -0.1425  0.1872  0.3229
 1208loPI   C1B18657  11.649  13.446   6.875 -0.4175 -0.0874  0.0153
 1208loPI   C2B18658  11.534  13.384   7.344 -0.0237 -0.2213  0.1288
 1208loPI   C3B18659  11.570  13.431   7.763  0.2317 -0.0727 -0.2329
 1208loPI   C4B18660  11.592  13.274   8.284  0.2342 -0.1483 -0.0522
 1209loPI    C118661  15.172   9.326   6.444 -0.0739 -0.1676  0.0023
 1209loPI    C218662  14.972   9.371   6.101 -0.0409  0.0012  0.0044
 1209loPI    C318663  15.284   9.608   6.183  0.1836 -0.2815 -0.0144
 1209loPI   PO418664  15.006   9.289   6.596 -0.1834 -0.3344  0.1240
 1209loPI   GL118665  14.929   9.335   6.971 -0.1914 -0.3168  0.0286
 1209loPI   GL218666  14.931   9.707   7.130  0.0727  0.0984 -0.0037
 1209loPI   C1A18667  14.789   9.209   7.418 -0.1718 -0.1036  0.3567
 1209loPI   C2A18668  14.621   9.198   7.868  0.3027 -0.3400  0.0684
 1209loPI   C3A18669  14.361   8.954   8.189 -0.3326 -0.0285 -0.1919
 1209loPI   C4A18670  14.019   8.850   8.480  0.1514  0.2330  0.1608
 1209loPI   C5A18671  13.655   8.824   8.729  0.0109  0.1017  0.1982
 1209loPI   C6A18672  13.656   8.491   9.049  0.0326 -0.2825 -0.2094
 1209loPI   C1B18673  14.754   9.676   7.586 -0.0929 -0.0108  0.0901
 1209loPI   C2B18674  14.725   9.831   7.992  0.0276 -0.2125  0.1942
 1209loPI   C3B18675  14.829  10.036   8.425 -0.2898 -0.0605  0.0652
 1209loPI   C4B18676  15.183  10.055   8.690  0.1076  0.0972 -0.0793
 1210loPI    C118677   8.194   1.689   6.020  0.0368  0.2103 -0.0942
 1210loPI    C218678   8.253   1.856   5.662 -0.0245 -0.0556 -0.2310
 1210loPI    C318679   8.082   1.495   5.688  0.0740 -0.0836  0.0612
 1210loPI   PO418680   8.374   1.839   6.148 -0.0902 -0.2342 -0.3226
 1210loPI   GL118681   8.275   1.984   6.577 -0.0348 -0.0359  0.4274
 1210loPI   GL218682   8.005   1.847   6.567  0.0796 -0.1021  0.0980
 1210loPI   C1A18683   8.271   1.956   6.980  0.1604 -0.3293  0.0146
 1210loPI   C2A18684   8.255   1.962   7.405 -0.0446 -0.0985 -0.0067
 1210loPI   C3A18685   8.094   1.994   7.909  0.1427  0.2820  0.4332
 1210loPI   C4A18686   8.072   2.040   8.333  0.1436 -0.1768 -0.1776
 1210loPI   C5A18687   7.866   1.704   8.597 -0.2588  0.1205 -0.1764
 1210loPI   C6A18688   7.748   1.382   8.928  0.1946 -0.0321 -0.3229
 1210loPI   C1B18689   7.681   1.798   6.945  0.0533  0.1825 -0.0445
 1210loPI   C2B18690   7.684   1.840   7.354 -0.0714 -0.0574  0.3456
 1210loPI   C3B18691   7.632   1.803   7.724 -0.0988 -0.3092 -0.1895
 1210loPI   C4B18692   7.609   1.803   8.126 -0.1315 -0.0242 -0.5013
 1211loPI    C118693   6.909   7.018   5.467 -0.1661  0.1192 -0.0150
 1211loPI    C218694   7.003   7.288   5.187 -0.0555 -0.0779 -0.1707
 1211loPI    C318695   7.254   6.986   5.266 -0.0489  0.0199  0.1984
 1211loPI   PO418696   6.968   7.148   5.717  0.0829 -0.3701 -0.2360
 1211loPI   GL118697   6.887   7.210   6.104 -0.3892  0.1031 -0.3751
 1211loPI   GL218698   6.558   7.327   6.214  0.0160 -0.0183  0.2414
 1211loPI   C1A18699   6.937   7.223   6.519  0.0383 -0.0239  0.0703
 1211loPI   C2A18700   6.866   7.296   7.024 -0.1019  0.0932 -0.1322
 1211loPI   C3A18701   6.856   7.264   7.522 -0.3728  0.1938  0.0675
 1211loPI   C4A18702   6.857   7.264   7.916 -0.1645  0.0461  0.1311
 1211loPI   C5A18703   7.020   7.184   8.253  0.1542  0.3688 -0.0641
 1211loPI   C6A18704   6.835   7.029   8.527  0.0302  0.1208  0.1574
 1211loPI   C1B18705   6.548   7.586   6.577 -0.0410  0.4033  0.0355
 1211loPI   C2B18706   6.450   7.602   6.966  0.0271 -0.1054 -0.0571
 1211loPI   C3B18707   6.504   7.634   7.429  0.0026 -0.2580 -0.5838
 1211loPI   C4B18708   6.528   7.700   7.921  0.3728  0.3159  0.2701
 1212loPI    C118709  13.344   3.840   5.561  0.0824 -0.0155  0.1764
 1212loPI    C218710  13.643   4.093   5.477  0.1246 -0.1140  0.0273
 1212loPI    C318711  13.281   4.151   5.317  0.0286  0.0779  0.3085
 1212loPI   PO418712  13.424   3.802   5.910  0.2218  0.1639 -0.3336
 1212loPI   GL118713  13.509   3.831   6.350 -0.1368  0.0084 -0.4189
 1212loPI   GL218714  13.480   4.107   6.451 -0.0906 -0.0603 -0.1933
 1212loPI   C1A18715  13.516   3.748   6.849 -0.0680  0.1866 -0.0406
 1212loPI   C2A18716  13.489   3.742   7.247 -0.0064 -0.2070  0.1577
 1212loPI   C3A18717  13.450   3.714   7.663 -0.0290 -0.0150 -0.3681
 1212loPI   C4A18718  13.516   3.600   8.160  0.1370  0.0542  0.0575
 1212loPI   C5A18719  13.499   3.314   8.472 -0.0176 -0.3666 -0.0706
 1212loPI   C6A18720  13.128   3.022   8.724 -0.2663 -0.0008 -0.3899
 1212loPI   C1B18721  13.625   4.227   6.858 -0.0182 -0.0508  0.0913
 1212loPI   C2B18722  13.546   4.220   7.259 -0.0913 -0.2527  0.2151
 1212loPI   C3B18723  13.632   4.192   7.649 -0.0376  0.0451 -0.1020
 1212loPI   C4B18724  13.621   4.103   8.085  0.0079 -0.4305 -0.3180
 1213loPI    C118725   1.888   2.905   5.355  0.0886 -0.1488  0.1665
 1213loPI    C218726   2.219   2.989   5.564  0.2075 -0.2157  0.0063
 1213loPI    C318727   2.224   3.007   5.164 -0.0776  0.1250  0.0130
 1213loPI   PO418728   1.723   2.857   5.541  0.0093  0.0204  0.0097
 1213loPI   GL118729   1.761   2.763   5.926 -0.2094 -0.2717  0.2042
 1213loPI   GL218730   1.983   2.919   5.978 -0.5851 -0.1843  0.0536
 1213loPI   C1A18731   1.780   2.717   6.374 -0.2883  0.1960  0.0190
 1213loPI   C2A18732   1.766   2.812   6.741  0.0835  0.3196 -0.1291
 1213loPI   C3A18733   1.661   2.779   7.111 -0.2823  0.3598  0.0369
 1213loPI   C4A18734   1.821   2.829   7.566  0.1419  0.5183 -0.1057
 1213loPI   C5A18735   1.730   2.834   8.027 -0.0499  0.3825  0.0720
 1213loPI   C6A18736   1.671   2.534   8.222  0.0559  0.2333  0.4162
 1213loPI   C1B18737   1.871   3.229   6.389 -0.3663  0.2159 -0.0336
 1213loPI   C2B18738   1.860   3.259   6.879  0.2517 -0.2583 -0.0442
 1213loPI   C3B18739   1.958   3.209   7.300 -0.2357  0.0771  0.1274
 1213loPI   C4B18740   1.896   3.251   7.825  0.0890  0.1120  0.1835
 1214POPI    C118741  12.397  11.135   5.686  0.0776 -0.1330  0.1341
 1214POPI    C218742  12.347  10.800   5.472  0.2345 -0.1990  0.1990
 1214POPI    C318743  12.494  11.129   5.298  0.0085 -0.1396  0.1168
 1214POPI   PO418744  12.469  11.123   5.873  0.0774 -0.0672 -0.0439
 1214POPI   GL118745  12.480  11.075   6.334 -0.2002 -0.1172 -0.3122
 1214POPI   GL218746  12.353  11.283   6.419 -0.2216 -0.2831 -0.3195
 1214POPI   C1A18747  12.586  10.892   6.763  0.0738 -0.0508  0.2366
 1214POPI   D2A18748  12.516  10.883   7.151 -0.4306  0.0695 -0.0858
 1214POPI   C3A18749  12.680  10.999   7.588  0.0649 -0.0815  0.1483
 1214POPI   C4A18750  12.720  10.954   8.031 -0.1004  0.0079  0.0559
 1214POPI   C1B18751  12.306  11.286   6.890 -0.2055  0.1248  0.0036
 1214POPI   C2B18752  12.220  11.286   7.281  0.0179 -0.0574  0.0969
 1214POPI   C3B18753  12.262  11.301   7.717 -0.1828  0.0272 -0.1318
 1214POPI   C4B18754  12.195  11.561   8.178  0.1415 -0.0338  0.0671
 1215POPI    C118755   3.530  15.782   5.601 -0.2624 -0.2574 -0.0174
 1215POPI    C218756   3.442  16.085   5.355 -0.0402 -0.2284 -0.0624
 1215POPI    C318757   3.687  15.793   5.234  0.2241 -0.1159  0.1871
 1215POPI   PO418758   3.290  15.699   5.777  0.1032 -0.2013 -0.0561
 1215POPI   GL118759   3.291  15.705   6.244 -0.1291 -0.3492  0.2451
 1215POPI   GL218760   3.535  15.693   6.372  0.0942 -0.2136  0.1676
 1215POPI   C1A18761   3.148  15.571   6.669 -0.1908  0.0258  0.0444
 1215POPI   D2A18762   3.153  15.535   6.967 -0.1290 -0.1258  0.0382
 1215POPI   C3A18763   3.105  15.687   7.402 -0.0013 -0.0640 -0.2171
 1215POPI   C4A18764   3.170  15.685   7.872 -0.2125 -0.1894 -0.2918
 1215POPI   C1B18765   3.669  15.588   6.665 -0.0004 -0.0429  0.2107
 1215POPI   C2B18766   3.606  15.597   7.096  0.1217 -0.1048 -0.0278
 1215POPI   C3B18767   3.624  15.724   7.540  0.3463  0.1169  0.1749
 1215POPI   C4B18768   3.673  15.871   7.930  0.1041  0.1746  0.2209
 1216POPI    C118769   1.023   9.365   6.082 -0.1224 -0.0848 -0.0880
 1216POPI    C218770   0.794   9.601   6.310 -0.0836 -0.1248 -0.0073
 1216POPI    C318771   0.705   9.548   5.924 -0.0619  0.0645 -0.0392
 1216POPI   PO418772   1.230   9.450   6.108 -0.0515  0.1888 -0.1403
 1216POPI   GL118773   1.548   9.470   6.426 -0.2212  0.1276 -0.5253
 1216POPI   GL218774   1.357   9.576   6.627  0.2216 -0.0012 -0.2808
 1216POPI   C1A18775   1.835   9.446   6.787  0.1578 -0.1342  0.0194
 1216POPI   D2A18776   2.070   9.340   7.094  0.2148  0.1991  0.0908
 1216POPI   C3A18777   2.101   9.330   7.502  0.1257  0.4187 -0.0681
 1216POPI   C4A18778   2.155   9.355   7.961  0.0968 -0.0938  0.1312
 1216POPI   C1B18779   1.420   9.346   6.977  0.1189  0.0074  0.2900
 1216POPI   C2B18780   1.636   9.318   7.301  0.1578 -0.1926  0.0575
 1216POPI   C3B18781   1.684   9.156   7.695 -0.0039  0.3894 -0.2380
 1216POPI   C4B18782   1.757   9.014   8.147  0.0710  0.0110  0.2134
 1217POPI    C118783  14.465   9.552   5.969  0.0677  0.0871  0.1878
 1217POPI    C218784  14.565   9.200   5.808  0.0282  0.0839  0.1701
 1217POPI    C318785  14.569   9.531   5.584  0.2280  0.1218  0.2284
 1217POPI   PO418786  14.283   9.572   6.141  0.0755  0.1948 -0.0097
 1217POPI   GL118787  14.180   9.679   6.451 -0.0534 -0.3829 -0.1700
 1217POPI   GL218788  14.089   9.357   6.620 -0.1871  0.0153  0.1558
 1217POPI   C1A18789  13.944   9.822   6.814 -0.1846  0.0672  0.1150
 1217POPI   D2A18790  14.215  10.061   7.147  0.0088 -0.1737  0.0901
 1217POPI   C3A18791  14.352   9.952   7.625  0.0761  0.0574 -0.4962
 1217POPI   C4A18792  14.342  10.214   8.107 -0.2528  0.0439  0.3139
 1217POPI   C1B18793  13.974   9.178   6.986  0.1674  0.0329 -0.1062
 1217POPI   C2B18794  13.998   8.865   7.360  0.1047 -0.2229  0.2580
 1217POPI   C3B18795  13.774   8.635   7.587 -0.0494 -0.1501  0.3668
 1217POPI   C4B18796  13.770   8.362   7.808 -0.0963  0.1335  0.2844
 1218POPI    C118797   9.685   7.389   6.142  0.2481 -0.2575  0.1488
 1218POPI    C218798   9.451   7.260   5.844 -0.0859  0.2338  0.1879
 1218POPI    C318799   9.830   7.363   5.770  0.0009 -0.1714  0.0445
 1218POPI   PO418800   9.601   7.573   6.362  0.1067 -0.1322 -0.0095
 1218POPI   GL118801   9.526   7.537   6.762  0.2732 -0.1619 -0.1340
 1218POPI   GL218802   9.232   7.308   6.765 -0.1117  0.1720 -0.0565
 1218POPI   C1A18803   9.388   7.816   7.116  0.0436 -0.1844 -0.0381
 1218POPI   D2A18804   9.277   7.825   7.499  0.4810  0.1722  0.0291
 1218POPI   C3A18805   9.515   7.837   7.827  0.1927  0.0237 -0.1584
 1218POPI   C4A18806   9.368   7.775   8.250 -0.2225  0.1031  0.0385
 1218POPI   C1B18807   9.257   7.254   7.123 -0.2825  0.0819 -0.1687
 1218POPI   C2B18808   9.285   7.275   7.544 -0.1421 -0.0036 -0.0949
 1218POPI   C3B18809   9.217   7.323   7.964 -0.2790  0.1985 -0.0233
 1218POPI   C4B18810   9.224   7.314   8.427  0.1895  0.1824 -0.1332
 1219POPI    C118811   9.716  14.321   5.562  0.2675 -0.0353  0.2138
 1219POPI    C218812   9.904  14.542   5.287  0.0354 -0.0364  0.0507
 1219POPI    C318813   9.514  14.597   5.355 -0.0103 -0.3483  0.0562
 1219POPI   PO418814   9.857  14.315   5.750  0.2692  0.0944  0.0582
 1219POPI   GL118815  10.035  14.283   6.139  0.0625 -0.0293 -0.1017
 1219POPI   GL218816  10.321  14.453   6.140 -0.0928 -0.2670  0.0723
 1219POPI   C1A18817   9.942  14.416   6.591  0.1150  0.2758 -0.4278
 1219POPI   D2A18818   9.838  14.425   7.085  0.4206 -0.2772 -0.1439
 1219POPI   C3A18819   9.962  14.496   7.475  0.0641 -0.0485  0.1199
 1219POPI   C4A18820   9.928  14.565   7.861 -0.2039 -0.2074 -0.1523
 1219POPI   C1B18821  10.382  14.509   6.534 -0.1930 -0.2705  0.1158
 1219POPI   C2B18822  10.438  14.473   6.888  0.2464 -0.2341 -0.4026
 1219POPI   C3B18823  10.561  14.555   7.284  0.0058 -0.0337 -0.0953
 1219POPI   C4B18824  10.527  14.615   7.743  0.5079  0.3534 -0.4051
 1220POPI    C118825   1.029   8.872   6.127 -0.0526  0.1741  0.0769
 1220POPI    C218826   0.726   9.019   5.911  0.0280  0.2496  0.0143
 1220POPI    C318827   1.094   9.003   5.754  0.0214 -0.0151  0.0217
 1220POPI   PO418828   1.163   9.045   6.423 -0.1464  0.0046  0.1631
 1220POPI   GL118829   1.000   9.198   6.797 -0.2251  0.0151 -0.1126
 1220POPI   GL218830   0.759   9.431   6.779 -0.1984 -0.0519 -0.0634
 1220POPI   C1A18831   0.871   9.151   7.156 -0.0558  0.0747  0.1183
 1220POPI   D2A18832   0.981   9.219   7.484 -0.0438 -0.0573  0.2882
 1220POPI   C3A18833   0.802   8.948   7.749  0.2081  0.0299 -0.0793
 1220POPI   C4A18834   0.651   8.584   8.044  0.3065  0.2040  0.4465
 1220POPI   C1B18835   1.083   9.682   7.023 -0.0905  0.1307 -0.0019
 1220POPI   C2B18836   1.220   9.623   7.323 -0.2297  0.0925 -0.1856
 1220POPI   C3B18837   1.338   9.531   7.749  0.1417 -0.0245 -0.3695
 1220POPI   C4B18838   1.225   9.596   8.224 -0.0026 -0.2781 -0.1750
 1221POPI    C118839   5.265   9.047   5.803 -0.2378  0.1268 -0.1119
 1221POPI    C218840   5.289   8.722   5.570 -0.0342  0.0916 -0.0439
 1221POPI    C318841   4.941   8.916   5.608 -0.1089 -0.0011 -0.2429
 1221POPI   PO418842   5.452   8.919   6.065 -0.0114  0.1566 -0.0721
 1221POPI   GL118843   5.560   9.067   6.422  0.0437 -0.0695  0.1203
 1221POPI   GL218844   5.809   9.405   6.436  0.0712  0.1902 -0.0207
 1221POPI   C1A18845   5.493   9.213   6.780 -0.0522  0.2146 -0.0941
 1221POPI   D2A18846   5.610   9.220   7.162  0.4817 -0.0996 -0.1680
 1221POPI   C3A18847   5.586   9.231   7.586 -0.0613  0.0249  0.0023
 1221POPI   C4A18848   5.518   9.211   7.970  0.0437 -0.0001 -0.1457
 1221POPI   C1B18849   6.037   9.260   6.833 -0.1781  0.1088 -0.1185
 1221POPI   C2B18850   6.069   9.404   7.338 -0.2240 -0.1451 -0.0198
 1221POPI   C3B18851   6.018   9.356   7.787 -0.0574 -0.0241 -0.1517
 1221POPI   C4B18852   6.048   9.427   8.186 -0.1404 -0.0263  0.3567
 1222POPI    C118853   8.231   5.299   5.895  0.0456 -0.5158 -0.2312
 1222POPI    C218854   8.247   5.626   5.665  0.0525 -0.2831  0.0916
 1222POPI    C318855   8.427   5.288   5.547  0.0145 -0.1836 -0.2625
 1222POPI   PO418856   8.285   5.402   6.108  0.2649 -0.0353  0.0014
 1222POPI   GL118857   8.257   5.369   6.495  0.2181 -0.1139 -0.1830
 1222POPI   GL218858   8.391   5.669   6.553  0.0660  0.0402  0.1360
 1222POPI   C1A18859   8.202   5.159   6.784 -0.2279  0.3777 -0.0800
 1222POPI   D2A18860   8.280   5.186   7.224 -0.2677  0.0259 -0.1095
 1222POPI   C3A18861   8.158   5.136   7.582  0.1095 -0.1354 -0.3580
 1222POPI   C4A18862   8.177   5.279   7.985 -0.1363  0.1615 -0.1152
 1222POPI   C1B18863   8.335   5.643   6.937  0.0555 -0.1778 -0.1293
 1222POPI   C2B18864   8.387   5.659   7.321 -0.0221  0.0677  0.1221
 1222POPI   C3B18865   8.267   5.705   7.737 -0.1239 -0.1201  0.1903
 1222POPI   C4B18866   8.270   5.796   8.161 -0.0531  0.0623 -0.0386
 1223POPI    C118867   1.811   9.430   5.766 -0.0378  0.0165 -0.0637
 1223POPI    C218868   2.128   9.438   5.522 -0.0990  0.2806 -0.1371
 1223POPI    C318869   1.776   9.301   5.389 -0.0360  0.0587 -0.0784
 1223POPI   PO418870   1.898   9.391   6.007 -0.0434  0.0596  0.1472
 1223POPI   GL118871   2.107   9.477   6.371  0.0531  0.0746  0.1916
 1223POPI   GL218872   2.256   9.766   6.401  0.2341  0.0041 -0.3401
 1223POPI   C1A18873   2.329   9.326   6.680 -0.0884  0.0761 -0.1452
 1223POPI   D2A18874   2.583   9.372   7.115  0.1709 -0.1386  0.0569
 1223POPI   C3A18875   2.626   9.309   7.435  0.3006  0.1780  0.0916
 1223POPI   C4A18876   2.835   9.324   7.921 -0.4830 -0.2258  0.1144
 1223POPI   C1B18877   2.238   9.756   6.872 -0.0595  0.3874  0.0937
 1223POPI   C2B18878   2.334   9.744   7.376  0.1063  0.0775 -0.0382
 1223POPI   C3B18879   2.517   9.709   7.757 -0.1303  0.0874 -0.1401
 1223POPI   C4B18880   2.629   9.727   8.176 -0.1969 -0.0405  0.1804
 1224POPI    C118881  11.062   3.202   5.813 -0.0084 -0.0200  0.1110
 1224POPI    C218882  10.930   3.372   5.475 -0.1283 -0.1500  0.0917
 1224POPI    C318883  10.763   3.033   5.607 -0.0784 -0.1027  0.2792
 1224POPI   PO418884  11.055   3.324   6.079  0.3307  0.1752 -0.0899
 1224POPI   GL118885  11.219   3.290   6.549  0.3232  0.0117  0.5441
 1224POPI   GL218886  11.405   3.088   6.688 -0.0997  0.2953 -0.6073
 1224POPI   C1A18887  10.929   3.053   6.773 -0.1359  0.1454 -0.1741
 1224POPI   D2A18888  10.803   3.033   7.217  0.0546  0.0105 -0.0674
 1224POPI   C3A18889  10.798   3.104   7.654  0.1919 -0.0088 -0.1247
 1224POPI   C4A18890  10.905   3.030   7.999 -0.0813 -0.0272 -0.2680
 1224POPI   C1B18891  11.329   3.138   7.063 -0.3063 -0.2332  0.0666
 1224POPI   C2B18892  11.268   3.102   7.538  0.0027 -0.1484  0.0419
 1224POPI   C3B18893  11.443   3.206   7.944  0.0003  0.4564 -0.0631
 1224POPI   C4B18894  11.423   3.245   8.324  0.1755 -0.1279 -0.1738
 1225POPI    C118895  17.329  14.933   5.793  0.0738  0.2445  0.1557
 1225POPI    C218896  17.680  14.945   5.601  0.0695  0.1810  0.1440
 1225POPI    C318897  17.338  14.963   5.394  0.0634 -0.0774  0.1290
 1225POPI   PO418898  17.357  14.802   5.953 -0.0116 -0.3405 -0.2282
 1225POPI   GL118899  17.507  14.756   6.252 -0.1618 -0.3424  0.0006
 1225POPI   GL218900  17.446  15.114   6.299 -0.1114 -0.1602  0.0700
 1225POPI   C1A18901  17.660  14.859   6.723 -0.1207  0.3138  0.1343
 1225POPI   D2A18902  17.657  14.918   7.170  0.0382  0.1247 -0.1378
 1225POPI   C3A18903  17.574  14.898   7.618  0.0650  0.3875  0.0929
 1225POPI   C4A18904  17.592  14.918   8.016 -0.2838 -0.4630  0.0133
 1225POPI   C1B18905  17.265  15.181   6.646 -0.2424 -0.2697 -0.1940
 1225POPI   C2B18906  17.250  15.205   7.108 -0.0417 -0.0033  0.3296
 1225POPI   C3B18907  17.267  15.273   7.487  0.1966  0.1600 -0.2018
 1225POPI   C4B18908  17.274  15.384   7.869 -0.3437  0.0520 -0.0253
 1226POPI    C118909  14.357  15.274   5.446  0.1674  0.2058 -0.1137
 1226POPI    C218910  14.561  14.965   5.296  0.0002 -0.0467  0.1666
 1226POPI    C318911  14.308  15.171   5.063 -0.0242 -0.2361  0.0236
 1226POPI   PO418912  14.332  15.264   5.690  0.2617  0.1779  0.0852
 1226POPI   GL118913  14.298  15.208   6.104  0.2762  0.0924 -0.0487
 1226POPI   GL218914  14.515  15.445   6.096 -0.2927  0.2318 -0.4729
 1226POPI   C1A18915  14.408  14.987   6.525  0.0992 -0.1116 -0.3467
 1226POPI   D2A18916  14.399  14.916   6.904  0.1659  0.0055 -0.1556
 1226POPI   C3A18917  14.512  15.059   7.315  0.0186  0.1823  0.2338
 1226POPI   C4A18918  14.374  15.061   7.696  0.1472 -0.1689 -0.0188
 1226POPI   C1B18919  14.515  15.525   6.430 -0.0258 -0.2813 -0.3139
 1226POPI   C2B18920  14.540  15.506   6.922 -0.0686  0.0552 -0.2064
 1226POPI   C3B18921  14.584  15.579   7.389 -0.0238  0.0400  0.1478
 1226POPI   C4B18922  14.506  15.522   7.804 -0.0732  0.0779  0.2018
 1227POPI    C118923   8.398  12.604   5.555  0.1647 -0.1725  0.1216
 1227POPI    C218924   8.471  12.447   5.194 -0.0999 -0.1605  0.0604
 1227POPI    C318925   8.155  12.686   5.248 -0.0766 -0.1827  0.3070
 1227POPI   PO418926   8.468  12.394   5.717 -0.1233 -0.1306 -0.2616
 1227POPI   GL118927   8.582  12.420   6.189  0.1361 -0.2627 -0.2733
 1227POPI   GL218928   8.742  12.243   6.370  0.2455 -0.0971 -0.0352
 1227POPI   C1A18929   8.448  12.734   6.490 -0.0415 -0.1813  0.0343
 1227POPI   D2A18930   8.470  12.780   6.894  0.0880 -0.0707  0.0215
 1227POPI   C3A18931   8.489  12.747   7.345 -0.0795  0.0139 -0.2278
 1227POPI   C4A18932   8.571  12.786   7.777  0.0390  0.2235  0.2528
 1227POPI   C1B18933   8.862  12.307   6.867  0.1471 -0.0805  0.3142
 1227POPI   C2B18934   8.822  12.312   7.399  0.2655  0.1036 -0.3193
 1227POPI   C3B18935   8.924  12.323   7.868 -0.0918 -0.0127 -0.1572
 1227POPI   C4B18936   8.959  12.543   8.344  0.0596 -0.3453 -0.0197
 1228POPI    C118937  16.816   3.059   5.613  0.1845 -0.2619  0.2366
 1228POPI    C218938  16.781   2.769   5.340  0.1216 -0.0434  0.0081
 1228POPI    C318939  16.775   3.152   5.226  0.1702  0.0500  0.3103
 1228POPI   PO418940  16.754   2.838   5.887  0.3143  0.1926  0.2092
 1228POPI   GL118941  16.482   2.636   6.153  0.1883 -0.1984 -0.0528
 1228POPI   GL218942  16.246   2.767   6.134  0.3556  0.2117  0.1286
 1228POPI   C1A18943  16.351   2.588   6.597 -0.0442 -0.1722 -0.0289
 1228POPI   D2A18944  16.408   2.528   7.079 -0.0689  0.3671  0.2702
 1228POPI   C3A18945  16.341   2.519   7.474 -0.1591  0.3364 -0.0946
 1228POPI   C4A18946  16.349   2.520   7.865 -0.1554 -0.4572 -0.1470
 1228POPI   C1B18947  16.016   2.937   6.486 -0.2252  0.0147  0.0582
 1228POPI   C2B18948  16.053   2.936   6.908  0.2316 -0.0796 -0.1651
 1228POPI   C3B18949  16.081   2.927   7.430  0.0093  0.0751  0.2069
 1228POPI   C4B18950  15.898   2.861   7.856  0.3618 -0.1001 -0.1029
 1229POPI    C118951   4.241   4.588   5.770 -0.0009 -0.1343  0.0155
 1229POPI    C218952   3.912   4.644   5.549  0.1271  0.5410 -0.0246
 1229POPI    C318953   4.274   4.682   5.382  0.2380 -0.1106  0.0398
 1229POPI   PO418954   4.137   4.685   5.970  0.2694  0.1494 -0.0325
 1229POPI   GL118955   4.268   4.897   6.295  0.1700 -0.0009 -0.1251
 1229POPI   GL218956   4.019   5.168   6.263  0.3102 -0.3218  0.0234
 1229POPI   C1A18957   4.252   4.716   6.709 -0.0213  0.1289 -0.1088
 1229POPI   D2A18958   4.163   4.696   7.175 -0.0152 -0.0191 -0.2305
 1229POPI   C3A18959   4.382   4.760   7.496 -0.0171  0.0761  0.2162
 1229POPI   C4A18960   4.167   4.738   7.851 -0.0028 -0.3826  0.0818
 1229POPI   C1B18961   3.877   5.069   6.665  0.2012 -0.3082 -0.1615
 1229POPI   C2B18962   3.903   5.109   7.096 -0.1618 -0.1413 -0.0019
 1229POPI   C3B18963   3.958   5.108   7.506 -0.2268  0.0159  0.2143
 1229POPI   C4B18964   3.886   5.163   8.000 -0.1969  0.0196  0.3721
 1230POPI    C118965   7.084  10.125   5.951  0.2629 -0.2238 -0.2237
 1230POPI    C218966   6.743  10.067   5.750  0.0627 -0.0633  0.0616
 1230POPI    C318967   6.960  10.397   5.685 -0.0919  0.0736  0.2291
 1230POPI   PO418968   7.004  10.055   6.166 -0.0640  0.0996 -0.3573
 1230POPI   GL118969   7.048  10.200   6.515  0.1229 -0.0082 -0.2442
 1230POPI   GL218970   7.272  10.279   6.602 -0.0029  0.2717 -0.1539
 1230POPI   C1A18971   6.842  10.028   6.750  0.0206 -0.2123 -0.0105
 1230POPI   D2A18972   6.703  10.121   7.219 -0.2046 -0.0268  0.1536
 1230POPI   C3A18973   6.800  10.028   7.588 -0.0342  0.0620 -0.1380
 1230POPI   C4A18974   6.685   9.980   7.937 -0.4706  0.2307 -0.0247
 1230POPI   C1B18975   7.183  10.159   7.070  0.0398 -0.1008  0.0760
 1230POPI   C2B18976   7.269  10.161   7.464  0.0294  0.0231 -0.2734
 1230POPI   C3B18977   7.223  10.024   7.869  0.1822  0.2450 -0.0646
 1230POPI   C4B18978   7.340  10.042   8.276  0.0689  0.1333  0.3549
 1231POPI    C118979  10.801  10.430   5.773 -0.0698  0.0740 -0.2788
 1231POPI    C218980  11.062  10.630   5.546  0.1654  0.0752 -0.0133
 1231POPI    C318981  11.036  10.232   5.516  0.2199  0.0718 -0.0175
 1231POPI   PO418982  10.903  10.467   5.991  0.0769  0.1621 -0.0743
 1231POPI   GL118983  11.087  10.238   6.347  0.1055 -0.3246  0.0221
 1231POPI   GL218984  11.033  10.619   6.508  0.1249 -0.0352 -0.0820
 1231POPI   C1A18985  11.415  10.100   6.704 -0.1521  0.0298  0.0318
 1231POPI   D2A18986  11.393  10.142   7.134  0.2533 -0.1177 -0.2028
 1231POPI   C3A18987  11.457  10.186   7.583 -0.0493  0.2334  0.0239
 1231POPI   C4A18988  11.491  10.193   8.036 -0.2172  0.2114 -0.0797
 1231POPI   C1B18989  11.141  10.460   6.887 -0.2130  0.1551 -0.1477
 1231POPI   C2B18990  11.199  10.549   7.351  0.0737 -0.2407  0.3164
 1231POPI   C3B18991  11.229  10.626   7.873  0.0662  0.0929 -0.2748
 1231POPI   C4B18992  11.138  10.593   8.373  0.0914  0.0052  0.3608
 1232POPI    C118993  14.479  12.427   5.717  0.3594 -0.1192  0.0022
 1232POPI    C218994  14.440  12.061   5.559 -0.1098  0.0472 -0.2878
 1232POPI    C318995  14.468  12.381   5.320 -0.2746  0.2536 -0.0361
 1232POPI   PO418996  14.367  12.501   5.959  0.1122 -0.2594  0.0056
 1232POPI   GL118997  13.982  12.603   6.303  0.3261  0.1258  0.2497
 1232POPI   GL218998  13.692  12.404   6.301 -0.0686  0.1552 -0.0142
 1232POPI   C1A18999  14.172  12.600   6.812 -0.0026  0.0524 -0.0154
 1232POPI   D2A19000  14.194  12.524   7.275 -0.1897  0.2665  0.0600
 1232POPI   C3A19001  14.127  12.706   7.669 -0.3112  0.0853  0.2048
 1232POPI   C4A19002  14.285  12.732   8.142  0.0543  0.2717 -0.1888
 1232POPI   C1B19003  13.534  12.492   6.741  0.1646  0.0838 -0.2912
 1232POPI   C2B19004  13.617  12.569   7.216 -0.2453 -0.0253 -0.1572
 1232POPI   C3B19005  13.592  12.562   7.723  0.0786  0.0353 -0.0775
 1232POPI   C4B19006  13.766  12.621   8.140  0.1856  0.0182 -0.0899
 1233POPI    C119007   6.299   3.109   5.908 -0.2138 -0.2184  0.0083
 1233POPI    C219008   6.244   3.446   5.700  0.0183 -0.0294  0.2472
 1233POPI    C319009   6.326   3.104   5.509 -0.3120  0.0266 -0.0026
 1233POPI   PO419010   6.450   3.183   6.105 -0.0746  0.2050  0.4034
 1233POPI   GL119011   6.456   3.451   6.466 -0.0022 -0.2617 -0.3538
 1233POPI   GL219012   6.249   3.285   6.590 -0.2322 -0.2042  0.0884
 1233POPI   C1A19013   6.670   3.486   6.832 -0.1933 -0.1392 -0.0165
 1233POPI   D2A19014   6.701   3.484   7.247 -0.0134  0.0641 -0.4945
 1233POPI   C3A19015   6.721   3.475   7.675  0.0645 -0.0528  0.0190
 1233POPI   C4A19016   6.575   3.448   8.080 -0.0900 -0.0323  0.1074
 1233POPI   C1B19017   6.201   3.364   7.043  0.1496  0.2117 -0.0718
 1233POPI   C2B19018   6.211   3.353   7.493 -0.1298  0.2962  0.0760
 1233POPI   C3B19019   6.120   3.272   7.962  0.2944 -0.1890  0.2204
 1233POPI   C4B19020   6.177   3.207   8.348  0.0567 -0.0774  0.4323
 1234POPI    C119021  13.844  17.534   5.614  0.0629 -0.1376 -0.0381
 1234POPI    C219022  14.001  17.375   5.283  0.0344  0.2307 -0.2345
 1234POPI    C319023  13.872  17.753   5.281 -0.2354  0.1464  0.1172
 1234POPI   PO419024  14.072  17.487   5.824  0.0907 -0.0938  0.0001
 1234POPI   GL119025  14.226  17.344   6.279 -0.1127  0.1436 -0.0873
 1234POPI   GL219026  14.271  17.108   6.052  0.2790  0.1063 -0.1762
 1234POPI   C1A19027  14.236  17.248   6.678  0.1843 -0.1754  0.0856
 1234POPI   D2A19028  14.124  17.264   7.094  0.0070  0.2197  0.3033
 1234POPI   C3A19029  14.048  17.336   7.409 -0.4330 -0.0687 -0.1771
 1234POPI   C4A19030  14.088  17.363   7.864 -0.1930  0.0554  0.0180
 1234POPI   C1B19031  14.488  16.904   6.429  0.2542  0.2433 -0.1603
 1234POPI   C2B19032  14.530  16.911   6.895 -0.1136  0.1037  0.2755
 1234POPI   C3B19033  14.463  16.966   7.392 -0.0704  0.2800 -0.0216
 1234POPI   C4B19034  14.433  17.013   7.841 -0.0032  0.2326 -0.3143
 1235POPI    C119035   1.589   1.445   5.396 -0.0481 -0.1062  0.0520
 1235POPI    C219036   1.316   1.180   5.270 -0.0777 -0.0760  0.0525
 1235POPI    C319037   1.232   1.571   5.265  0.0249 -0.0549 -0.0996
 1235POPI   PO419038   1.623   1.395   5.658  0.4455  0.1955 -0.1521
 1235POPI   GL119039   1.498   1.210   6.092  0.1089  0.1346 -0.2038
 1235POPI   GL219040   1.573   0.952   6.171 -0.2012  0.2225  0.0235
 1235POPI   C1A19041   1.305   1.320   6.483 -0.1368 -0.0221  0.0178
 1235POPI   D2A19042   1.221   1.293   7.007  0.1050  0.3853  0.2715
 1235POPI   C3A19043   1.304   1.342   7.353  0.1897  0.2868 -0.0105
 1235POPI   C4A19044   1.343   1.228   7.718  0.7296 -0.2654  0.1295
 1235POPI   C1B19045   1.649   0.861   6.666  0.2520 -0.1936 -0.0479
 1235POPI   C2B19046   1.606   0.920   7.120  0.0496  0.0962 -0.0148
 1235POPI   C3B19047   1.559   0.845   7.496 -0.2478  0.0606  0.3120
 1235POPI   C4B19048   1.594   0.815   7.917 -0.2566  0.0200  0.2341
 1236POPI    C119049   5.939  15.092   6.044 -0.0172  0.3422  0.0967
 1236POPI    C219050   5.730  15.326   5.796 -0.1429  0.1910  0.0586
 1236POPI    C319051   5.972  15.044   5.648 -0.2836  0.0433  0.1069
 1236POPI   PO419052   6.053  15.323   6.212 -0.1247 -0.2028 -0.0898
 1236POPI   GL119053   5.889  15.435   6.590 -0.2460 -0.2422 -0.0053
 1236POPI   GL219054   5.595  15.335   6.696 -0.0411 -0.0938 -0.0425
 1236POPI   C1A19055   5.959  15.430   7.037 -0.1409 -0.3619  0.3428
 1236POPI   D2A19056   5.871  15.325   7.478 -0.1564 -0.2165 -0.0080
 1236POPI   C3A19057   5.858  15.324   7.966 -0.0029  0.0343 -0.2059
 1236POPI   C4A19058   5.711  15.097   8.398  0.2161  0.1810  0.0664
 1236POPI   C1B19059   5.510  15.249   7.195 -0.0407 -0.1372 -0.3222
 1236POPI   C2B19060   5.372  15.251   7.615 -0.0449 -0.2370 -0.0819
 1236POPI   C3B19061   5.325  15.232   8.064  0.2808  0.1068 -0.2252
 1236POPI   C4B19062   5.260  15.339   8.540 -0.0383 -0.3931 -0.4061
 1237POPI    C119063  17.486   4.513   5.187  0.0007 -0.3195 -0.0079
 1237POPI    C219064  17.099   4.410   5.187 -0.0494 -0.1388  0.2103
 1237POPI    C319065  17.327   4.332   4.868 -0.2456 -0.3192  0.1121
 1237POPI   PO419066  17.596   4.495   5.427  0.3621 -0.1826  0.0042
 1237POPI   GL119067  17.664   4.313   5.776 -0.0584  0.2059 -0.2431
 1237POPI   GL219068  17.673   4.032   5.879 -0.0092  0.1087 -0.0228
 1237POPI   C1A19069  17.826   4.314   6.232  0.0711  0.0901 -0.1186
 1237POPI   D2A19070  17.997   4.253   6.618 -0.0234 -0.0409  0.0106
 1237POPI   C3A19071  17.872   4.255   7.099 -0.0830 -0.4893  0.3147
 1237POPI   C4A19072  17.799   4.152   7.510 -0.4141 -0.1466 -0.0081
 1237POPI   C1B19073  17.733   3.802   6.167  0.2482 -0.2213 -0.3000
 1237POPI   C2B19074  17.738   3.784   6.614  0.1742  0.2826 -0.1640
 1237POPI   C3B19075  17.706   3.762   7.041  0.0620  0.0878 -0.0661
 1237POPI   C4B19076  17.721   3.623   7.499 -0.3468 -0.2588 -0.2025
 1238POPI    C119077   3.784   3.586   5.863 -0.3357 -0.2215 -0.1505
 1238POPI    C219078   3.622   3.729   5.527  0.0852  0.0540 -0.2434
 1238POPI    C319079   4.014   3.654   5.544  0.0197 -0.2398  0.0965
 1238POPI   PO419080   3.660   3.867   6.112 -0.1074  0.0838  0.2309
 1238POPI   GL119081   3.994   3.775   6.516  0.2373  0.0167 -0.0078
 1238POPI   GL219082   3.919   3.488   6.404  0.1589 -0.2310 -0.2015
 1238POPI   C1A19083   3.872   3.657   6.914  0.1038 -0.1646 -0.1503
 1238POPI   D2A19084   3.832   3.713   7.368 -0.1943 -0.2339  0.0093
 1238POPI   C3A19085   3.892   3.708   7.834 -0.1640 -0.1286  0.0622
 1238POPI   C4A19086   3.833   3.574   8.277  0.1948  0.1235 -0.3031
 1238POPI   C1B19087   3.681   3.213   6.764 -0.1513  0.0121  0.0840
 1238POPI   C2B19088   3.728   3.215   7.171 -0.2496 -0.1301 -0.7222
 1238POPI   C3B19089   3.777   3.262   7.582  0.3060 -0.0815  0.1771
 1238POPI   C4B19090   3.720   3.208   7.949 -0.1117  0.2326  0.1415
 1239POPI    C119091   9.085  11.819   5.391 -0.0748  0.0802 -0.0447
 1239POPI    C219092   9.211  12.093   5.129 -0.0593 -0.0119 -0.1341
 1239POPI    C319093   9.121  11.723   5.005 -0.1758 -0.0193 -0.0302
 1239POPI   PO419094   9.116  11.776   5.707 -0.1970 -0.0717  0.0287
 1239POPI   GL119095   8.988  11.593   6.091  0.0597 -0.1276  0.0738
 1239POPI   GL219096   9.163  11.904   6.195  0.2328  0.1394 -0.0747
 1239POPI   C1A19097   9.076  11.457   6.441  0.1212  0.0910 -0.0358
 1239POPI   D2A19098   8.981  11.450   6.868 -0.1899 -0.1309  0.2421
 1239POPI   C3A19099   9.083  11.449   7.290 -0.3072  0.0136 -0.0297
 1239POPI   C4A19100   9.114  11.492   7.697 -0.0653 -0.0835 -0.0697
 1239POPI   C1B19101   9.161  11.946   6.724 -0.2069 -0.0451 -0.0522
 1239POPI   C2B19102   9.223  11.908   7.264 -0.3574 -0.0075 -0.0326
 1239POPI   C3B19103   9.240  12.001   7.648 -0.1674  0.0289 -0.0345
 1239POPI   C4B19104   9.229  11.994   8.156 -0.0925 -0.1782  0.1396
 1240POPI    C119105  13.194   0.188   5.819  0.0132  0.0350 -0.0397
 1240POPI    C219106  13.039   0.429   5.540 -0.1182 -0.0843 -0.0708
 1240POPI    C319107  13.337   0.179   5.446  0.0726  0.1210 -0.0193
 1240POPI   PO419108  13.218   0.344   6.011 -0.0635  0.1248 -0.0898
 1240POPI   GL119109  13.492   0.404   6.433  0.2338  0.1032 -0.1754
 1240POPI   GL219110  13.231   0.667   6.408  0.1125  0.0821 -0.2927
 1240POPI   C1A19111  13.486   0.385   6.894  0.2051 -0.0908 -0.1245
 1240POPI   D2A19112  13.447   0.359   7.335 -0.0773  0.2165 -0.1315
 1240POPI   C3A19113  13.414   0.466   7.762  0.2062  0.3604 -0.0016
 1240POPI   C4A19114  13.317   0.514   8.246  0.1477 -0.0846  0.0676
 1240POPI   C1B19115  13.112   0.777   6.819 -0.2941 -0.0477 -0.1012
 1240POPI   C2B19116  13.134   0.767   7.159 -0.1360  0.2114  0.0200
 1240POPI   C3B19117  13.032   0.802   7.553  0.2659 -0.0315  0.1944
 1240POPI   C4B19118  12.928   0.812   7.995  0.1974  0.2362 -0.3012
 1241POPI    C119119  13.366  10.987   5.821  0.0413  0.2019 -0.1108
 1241POPI    C219120  13.634  10.736   5.662  0.0036  0.0283  0.0945
 1241POPI    C319121  13.345  10.891   5.434  0.0704 -0.0580 -0.0503
 1241POPI   PO419122  13.462  10.951   6.128 -0.0254 -0.0805 -0.0928
 1241POPI   GL119123  13.217  10.921   6.463 -0.0100  0.0204 -0.1127
 1241POPI   GL219124  13.410  11.119   6.605  0.3264 -0.2520  0.0564
 1241POPI   C1A19125  13.059  10.681   6.882 -0.3185  0.0517 -0.1046
 1241POPI   D2A19126  12.977  10.684   7.364 -0.0320  0.1201  0.3115
 1241POPI   C3A19127  13.067  10.482   7.788 -0.0440 -0.5457 -0.1176
 1241POPI   C4A19128  13.046  10.495   8.164 -0.1610 -0.0949 -0.2382
 1241POPI   C1B19129  13.385  11.084   7.021 -0.2305  0.2308  0.3295
 1241POPI   C2B19130  13.290  11.067   7.426 -0.1952 -0.0097 -0.0664
 1241POPI   C3B19131  13.150  10.967   7.780 -0.1812 -0.1415 -0.0442
 1241POPI   C4B19132  13.196  10.977   8.291 -0.0897  0.2216  0.0697
 1242POPI    C119133  17.013  11.856   6.017  0.2222 -0.0574 -0.0043
 1242POPI    C219134  17.064  11.876   5.621  0.0212 -0.1579 -0.0360
 1242POPI    C319135  17.320  12.063   5.864  0.1356 -0.0812 -0.2135
 1242POPI   PO419136  16.771  11.860   6.074 -0.1231 -0.1132  0.1899
 1242POPI   GL119137  16.609  11.727   6.503 -0.1574 -0.2420  0.2818
 1242POPI   GL219138  16.801  11.512   6.399  0.0189  0.0276  0.4027
 1242POPI   C1A19139  16.675  11.580   6.977  0.0537 -0.0060 -0.1622
 1242POPI   D2A19140  16.704  11.426   7.349 -0.1513  0.3071 -0.1326
 1242POPI   C3A19141  17.083  11.562   7.561  0.1056 -0.2766  0.3121
 1242POPI   C4A19142  17.189  11.890   7.768  0.3911  0.0009  0.1991
 1242POPI   C1B19143  17.106  11.585   6.780  0.0104  0.0450  0.4163
 1242POPI   C2B19144  17.383  11.673   7.108 -0.1843 -0.0033  0.1479
 1242POPI   C3B19145  17.546  11.760   7.427  0.2381 -0.1383 -0.0979
 1242POPI   C4B19146  17.695  12.054   7.749 -0.2467 -0.0789  0.1301
 1243POPI    C119147   6.221  13.794   5.622 -0.0574  0.0782 -0.0982
 1243POPI    C219148   6.129  13.571   5.302  0.0876  0.0694 -0.1341
 1243POPI    C319149   6.510  13.603   5.422  0.0750  0.3416 -0.1617
 1243POPI   PO419150   6.072  13.722   5.799 -0.2454  0.0560  0.1780
 1243POPI   GL119151   6.077  13.456   6.142  0.1380 -0.1233  0.0693
 1243POPI   GL219152   5.810  13.663   6.258 -0.1597 -0.0914  0.3952
 1243POPI   C1A19153   6.298  13.650   6.544 -0.0885  0.0502 -0.0534
 1243POPI   D2A19154   6.245  13.711   7.006 -0.3052  0.2816  0.0093
 1243POPI   C3A19155   6.323  13.637   7.452  0.2841 -0.0934  0.0708
 1243POPI   C4A19156   6.347  13.556   7.885 -0.0163 -0.0008 -0.0455
 1243POPI   C1B19157   5.712  13.619   6.692  0.0292 -0.2818 -0.3456
 1243POPI   C2B19158   5.760  13.538   7.187 -0.0153 -0.0996  0.1469
 1243POPI   C3B19159   5.871  13.452   7.579 -0.0034  0.1069 -0.0723
 1243POPI   C4B19160   5.856  13.540   8.010  0.3736  0.3158 -0.3691
 1244POPI    C119161  10.553  12.869   5.544  0.2540  0.0517 -0.1645
 1244POPI    C219162  10.351  13.213   5.572  0.0436 -0.0713 -0.1467
 1244POPI    C319163  10.590  13.146   5.258  0.1800  0.1394 -0.0897
 1244POPI   PO419164  10.628  12.905   5.872  0.0681  0.0060  0.0610
 1244POPI   GL119165  10.728  12.957   6.215  0.0117 -0.1052 -0.0698
 1244POPI   GL219166  11.013  12.917   6.307  0.0910  0.1473  0.1025
 1244POPI   C1A19167  10.794  12.752   6.702 -0.0988 -0.0546 -0.3394
 1244POPI   D2A19168  10.730  12.802   7.151 -0.1494  0.1244 -0.4145
 1244POPI   C3A19169  10.769  12.812   7.679  0.0298  0.0815 -0.0102
 1244POPI   C4A19170  10.723  12.942   8.110 -0.1225 -0.1507 -0.0723
 1244POPI   C1B19171  11.417  12.965   6.686 -0.1913 -0.2413  0.3930
 1244POPI   C2B19172  11.459  13.003   7.078  0.3799  0.0135  0.0382
 1244POPI   C3B19173  11.375  12.941   7.505 -0.3268  0.1251  0.2036
 1244POPI   C4B19174  11.367  12.924   7.950 -0.2127 -0.0344 -0.1799
 1245POPI    C119175  11.803   7.889   5.987 -0.0644  0.0980 -0.1420
 1245POPI    C219176  11.469   7.713   5.856  0.0133 -0.1389 -0.0262
 1245POPI    C319177  11.787   7.743   5.615  0.0461 -0.2820 -0.0017
 1245POPI   PO419178  11.791   7.883   6.309 -0.0887 -0.0303 -0.0006
 1245POPI   GL119179  11.633   7.921   6.633 -0.1198  0.1342 -0.1638
 1245POPI   GL219180  11.559   8.232   6.697 -0.1380  0.0118  0.0396
 1245POPI   C1A19181  11.786   7.903   7.061 -0.2371 -0.2633 -0.0483
 1245POPI   D2A19182  11.846   7.993   7.558  0.1831 -0.0571  0.2106
 1245POPI   C3A19183  11.850   7.861   7.943 -0.2693 -0.2666  0.1338
 1245POPI   C4A19184  11.844   7.870   8.440 -0.2381  0.3516 -0.0759
 1245POPI   C1B19185  11.486   8.251   7.228 -0.1488 -0.4125  0.1229
 1245POPI   C2B19186  11.501   8.344   7.682  0.0302 -0.0485  0.1254
 1245POPI   C3B19187  11.577   8.279   7.999  0.3768  0.0044  0.1428
 1245POPI   C4B19188  11.415   8.121   8.387  0.1059 -0.2996  0.1261
 1246POPI    C119189   9.301   8.297   5.907  0.0312  0.1382  0.3019
 1246POPI    C219190   9.117   7.954   5.997 -0.2599  0.2373  0.1002
 1246POPI    C319191   8.991   8.173   5.687  0.4272  0.1320 -0.2736
 1246POPI   PO419192   9.271   8.426   6.076 -0.2552 -0.2801  0.3331
 1246POPI   GL119193   9.475   8.560   6.482 -0.2514 -0.0599 -0.0128
 1246POPI   GL219194   9.587   8.851   6.593  0.1324 -0.0146 -0.0957
 1246POPI   C1A19195   9.830   8.430   6.720 -0.1397 -0.1045 -0.0570
 1246POPI   D2A19196   9.939   8.388   7.239 -0.1498  0.0172  0.3963
 1246POPI   C3A19197   9.997   8.434   7.548 -0.1126  0.0578  0.1328
 1246POPI   C4A19198  10.071   8.423   8.018  0.3363  0.2153  0.1326
 1246POPI   C1B19199   9.608   8.805   6.999  0.1456  0.3490 -0.0030
 1246POPI   C2B19200   9.700   8.794   7.443  0.1114  0.0839  0.0649
 1246POPI   C3B19201   9.598   8.818   7.810  0.0941 -0.1786  0.1389
 1246POPI   C4B19202   9.779   8.833   8.157  0.0166  0.1147 -0.1755
 1247DPPI    C119203  13.312   7.994   6.215 -0.0331 -0.1086  0.1542
 1247DPPI    C219204  13.351   7.730   5.917 -0.1240 -0.0644  0.1026
 1247DPPI    C319205  13.667   7.943   6.037 -0.1124 -0.0008 -0.0385
 1247DPPI   PO419206  12.994   7.941   6.262 -0.3897  0.0701 -0.1792
 1247DPPI   GL119207  12.947   7.679   6.627 -0.1137  0.1584 -0.1653
 1247DPPI   GL219208  12.609   7.575   6.670 -0.2371 -0.0819 -0.0655
 1247DPPI   C1A19209  13.108   7.866   6.973  0.0693  0.1157  0.0223
 1247DPPI   C2A19210  13.188   7.842   7.442  0.0938  0.1333  0.1283
 1247DPPI   C3A19211  13.189   7.758   7.835  0.1643 -0.0635  0.0152
 1247DPPI   C4A19212  13.241   7.729   8.271 -0.1170 -0.1135 -0.1167
 1247DPPI   C1B19213  12.606   7.735   7.073  0.3032  0.1855 -0.2318
 1247DPPI   C2B19214  12.682   7.713   7.500  0.0024 -0.0599  0.2577
 1247DPPI   C3B19215  12.703   7.671   7.953  0.3424  0.0511 -0.0838
 1247DPPI   C4B19216  12.734   7.571   8.381  0.3125  0.1197  0.0969
 1248DPPI    C119217  12.461  12.950   5.452  0.2478 -0.1724 -0.0291
 1248DPPI    C219218  12.208  12.912   5.145 -0.1550  0.0399  0.2668
 1248DPPI    C319219  12.400  13.258   5.205  0.1383 -0.0897  0.1000
 1248DPPI   PO419220  12.355  12.873   5.704 -0.0088  0.1037 -0.0308
 1248DPPI   GL119221  12.165  12.981   6.080 -0.0021  0.1229  0.2731
 1248DPPI   GL219222  12.333  13.272   6.240 -0.1142  0.3195 -0.0081
 1248DPPI   C1A19223  11.953  13.020   6.542 -0.1034  0.3970  0.1910
 1248DPPI   C2A19224  11.980  13.058   6.889 -0.3301 -0.0721 -0.0546
 1248DPPI   C3A19225  11.921  13.077   7.368 -0.0793 -0.0395 -0.1843
 1248DPPI   C4A19226  11.937  13.037   7.815  0.0735  0.0173 -0.0997
 1248DPPI   C1B19227  12.441  13.173   6.548 -0.0638  0.2713 -0.1730
 1248DPPI   C2B19228  12.507  13.217   6.978  0.0748  0.0732  0.3837
 1248DPPI   C3B19229  12.469  13.146   7.478 -0.0990 -0.0943 -0.4468
 1248DPPI   C4B19230  12.477  13.210   7.966 -0.1166  0.0345  0.1947
 1249DPPI    C119231  11.165   8.517   6.088 -0.0088 -0.0680 -0.0359
 1249DPPI    C219232  10.827   8.584   5.884 -0.1506  0.0578  0.2342
 1249DPPI    C319233  11.041   8.892   6.022  0.2080 -0.0137 -0.1430
 1249DPPI   PO419234  11.149   8.439   6.278  0.0333 -0.0618  0.0919
 1249DPPI   GL119235  11.075   8.198   6.640  0.2374  0.0828 -0.3449
 1249DPPI   GL219236  10.918   8.532   6.720  0.0034  0.1803 -0.2811
 1249DPPI   C1A19237  11.232   7.900   6.958 -0.0826 -0.2274 -0.0969
 1249DPPI   C2A19238  11.428   7.752   7.396  0.3263 -0.0337 -0.2475
 1249DPPI   C3A19239  11.380   7.839   7.844 -0.0772  0.3560  0.1037
 1249DPPI   C4A19240  11.257   7.682   8.202 -0.1344 -0.0637  0.3757
 1249DPPI   C1B19241  10.988   8.630   7.160  0.1578 -0.0343  0.3283
 1249DPPI   C2B19242  11.017   8.700   7.663  0.0570 -0.1690  0.3063
 1249DPPI   C3B19243  11.219   8.667   8.018 -0.1085  0.0146  0.1840
 1249DPPI   C4B19244  11.331   8.683   8.436  0.1068  0.0771  0.4407
 1250DPPI    C119245   9.818   6.893   5.859 -0.0238  0.0217  0.3121
 1250DPPI    C219246  10.179   7.034   5.762 -0.1511  0.0611 -0.1243
 1250DPPI    C319247  10.078   6.659   5.664 -0.2365  0.0568 -0.0209
 1250DPPI   PO419248   9.831   6.910   6.138 -0.1494 -0.0091 -0.1576
 1250DPPI   GL119249   9.488   6.937   6.464 -0.2858 -0.0949 -0.1396
 1250DPPI   GL219250   9.773   7.107   6.586 -0.0732  0.3045  0.3287
 1250DPPI   C1A19251   9.512   6.875   6.936  0.1506  0.0196  0.0146
 1250DPPI   C2A19252   9.627   6.963   7.361 -0.0689  0.1527  0.1192
 1250DPPI   C3A19253   9.578   6.951   7.766  0.0013  0.0778  0.0459
 1250DPPI   C4A19254   9.670   6.913   8.236 -0.2714  0.1129  0.4556
 1250DPPI   C1B19255  10.055   7.106   6.955 -0.0505  0.4509  0.3052
 1250DPPI   C2B19256  10.180   7.055   7.380  0.1227 -0.2618 -0.0756
 1250DPPI   C3B19257  10.191   7.085   7.821  0.0212  0.1874 -0.2791
 1250DPPI   C4B19258  10.132   7.109   8.214  0.1961  0.0693  0.0482
 1251DPPI    C119259   1.298   6.848   5.942  0.1764 -0.0083  0.0528
 1251DPPI    C219260   1.060   7.106   5.750  0.2862  0.0191 -0.0469
 1251DPPI    C319261   1.449   7.083   5.656  0.3379  0.0218  0.1613
 1251DPPI   PO419262   1.293   6.836   6.221  0.0782 -0.2702  0.0073
 1251DPPI   GL119263   1.305   6.814   6.639  0.0169 -0.1536  0.2466
 1251DPPI   GL219264   1.440   7.141   6.617  0.1279 -0.0065  0.2728
 1251DPPI   C1A19265   1.173   6.752   7.044 -0.0103  0.1267  0.0477
 1251DPPI   C2A19266   1.102   6.631   7.486 -0.0629 -0.1427  0.0826
 1251DPPI   C3A19267   1.064   6.690   7.933  0.1373  0.0201  0.0291
 1251DPPI   C4A19268   0.929   6.904   8.242  0.1595 -0.0659 -0.2098
 1251DPPI   C1B19269   1.422   7.185   7.037 -0.3174  0.2408 -0.3207
 1251DPPI   C2B19270   1.587   7.247   7.410 -0.1042  0.0162  0.0063
 1251DPPI   C3B19271   1.644   7.671   7.722 -0.0335 -0.1240 -0.1767
 1251DPPI   C4B19272   1.605   7.744   8.160  0.1048  0.0842 -0.3629
 1252DPPI    C119273  14.709   7.225   5.856  0.0563 -0.0057 -0.0902
 1252DPPI    C219274  14.526   7.580   5.843  0.0860  0.0299  0.3154
 1252DPPI    C319275  14.586   7.373   5.506  0.0070  0.3759  0.0833
 1252DPPI   PO419276  14.715   7.215   6.157 -0.3525 -0.1387  0.0777
 1252DPPI   GL119277  14.720   6.948   6.452 -0.0469 -0.0384  0.3105
 1252DPPI   GL219278  14.864   6.741   6.467 -0.0051 -0.2019 -0.3514
 1252DPPI   C1A19279  14.758   6.870   6.988  0.3150  0.1342  0.0399
 1252DPPI   C2A19280  14.926   6.776   7.434 -0.2296  0.1220  0.1002
 1252DPPI   C3A19281  14.981   6.686   7.888  0.1812  0.1367 -0.2781
 1252DPPI   C4A19282  15.019   6.713   8.426  0.0358  0.0397  0.0656
 1252DPPI   C1B19283  15.092   6.526   6.918  0.1988  0.0500  0.2899
 1252DPPI   C2B19284  15.283   6.437   7.326 -0.1878  0.1017 -0.1998
 1252DPPI   C3B19285  15.314   6.353   7.746  0.5054 -0.0555 -0.1123
 1252DPPI   C4B19286  15.276   6.387   8.223 -0.1510  0.0161 -0.0242
 1253DPPI    C119287   9.135  12.310   5.840 -0.1899 -0.3153  0.1455
 1253DPPI    C219288   8.930  12.294   5.497 -0.1585  0.2202  0.0943
 1253DPPI    C319289   9.287  12.475   5.509 -0.0256 -0.0504  0.3485
 1253DPPI   PO419290   9.035  12.487   5.985  0.0315 -0.0231  0.0370
 1253DPPI   GL119291   9.286  12.610   6.319 -0.1387  0.1883 -0.1379
 1253DPPI   GL219292   9.201  12.384   6.490  0.0217  0.2969 -0.1119
 1253DPPI   C1A19293   8.920  12.782   6.582 -0.1114 -0.0794 -0.1155
 1253DPPI   C2A19294   8.925  12.742   7.121 -0.0638 -0.0633  0.0620
 1253DPPI   C3A19295   9.003  12.951   7.483  0.1602  0.0384 -0.3027
 1253DPPI   C4A19296   9.020  12.883   7.914  0.2024 -0.1291 -0.1785
 1253DPPI   C1B19297   9.323  12.442   6.928 -0.2514 -0.2902  0.1995
 1253DPPI   C2B19298   9.328  12.425   7.298 -0.1442  0.0905  0.3116
 1253DPPI   C3B19299   9.390  12.530   7.654 -0.3705 -0.0142 -0.2980
 1253DPPI   C4B19300   9.852  12.427   7.783 -0.0973 -0.0282 -0.1151
 1254DPPI    C119301   9.536  15.724   5.908  0.0775  0.0182 -0.1507
 1254DPPI    C219302   9.463  15.496   5.587 -0.1083 -0.1500  0.0086
 1254DPPI    C319303   9.523  15.889   5.544 -0.1606 -0.1665 -0.2285
 1254DPPI   PO419304   9.339  15.649   6.126  0.1155  0.2496  0.1306
 1254DPPI   GL119305   9.383  15.616   6.543 -0.0690  0.1447 -0.0533
 1254DPPI   GL219306   9.107  15.389   6.496 -0.4020  0.1520 -0.1113
 1254DPPI   C1A19307   9.405  15.664   7.020  0.1860 -0.3358  0.0580
 1254DPPI   C2A19308   9.366  15.784   7.456  0.0062  0.0278  0.2013
 1254DPPI   C3A19309   9.298  15.716   7.859  0.1239  0.0373 -0.2640
 1254DPPI   C4A19310   9.344  15.754   8.419 -0.1919 -0.0044 -0.0971
 1254DPPI   C1B19311   9.124  15.228   6.880  0.1295  0.0524 -0.0787
 1254DPPI   C2B19312   9.227  15.247   7.267 -0.3083 -0.1263 -0.0298
 1254DPPI   C3B19313   9.169  15.157   7.587 -0.1401  0.0260  0.1245
 1254DPPI   C4B19314   9.187  15.281   8.022  0.3617  0.1388  0.3072
 1255DPPI    C119315  10.754   9.296   5.648  0.1524 -0.1808  0.0366
 1255DPPI    C219316  10.772   8.912   5.538  0.1328 -0.1239 -0.1708
 1255DPPI    C319317  10.898   9.197   5.288  0.1783  0.0031 -0.0048
 1255DPPI   PO419318  10.880   9.360   5.936 -0.2324  0.1626 -0.1447
 1255DPPI   GL119319  10.754   9.166   6.321 -0.0115 -0.0770 -0.3483
 1255DPPI   GL219320  10.573   9.021   6.469 -0.1721 -0.0734 -0.0100
 1255DPPI   C1A19321  10.703   9.440   6.754  0.0381 -0.0023  0.1677
 1255DPPI   C2A19322  10.728   9.572   7.165  0.4230  0.0232 -0.1490
 1255DPPI   C3A19323  10.802   9.550   7.657 -0.1692 -0.0351 -0.2501
 1255DPPI   C4A19324  10.838   9.582   8.010  0.2577  0.2560  0.0195
 1255DPPI   C1B19325  10.597   9.003   6.951 -0.0859  0.0464  0.2103
 1255DPPI   C2B19326  10.582   9.053   7.377  0.2212 -0.1372 -0.3079
 1255DPPI   C3B19327  10.750   9.038   7.839  0.0360 -0.1744 -0.0785
 1255DPPI   C4B19328  10.567   9.169   8.356  0.1133 -0.1692 -0.1214
 1256DPPI    C119329   8.004   7.065   5.713  0.1001 -0.2087  0.0093
 1256DPPI    C219330   8.326   7.036   5.477  0.0988 -0.0350 -0.0150
 1256DPPI    C319331   8.053   6.743   5.481  0.1242 -0.0620 -0.1915
 1256DPPI   PO419332   8.095   7.124   5.942 -0.0143  0.1920  0.1079
 1256DPPI   GL119333   7.884   7.192   6.299  0.1041  0.1638  0.1202
 1256DPPI   GL219334   7.886   7.408   6.498  0.0127  0.0988 -0.1746
 1256DPPI   C1A19335   7.772   6.915   6.654 -0.1068 -0.1771 -0.0833
 1256DPPI   C2A19336   7.690   6.998   7.080  0.1530  0.0563 -0.1186
 1256DPPI   C3A19337   7.735   6.977   7.586  0.0489 -0.2350  0.2794
 1256DPPI   C4A19338   7.768   7.033   8.005 -0.2034  0.4038  0.1742
 1256DPPI   C1B19339   7.871   7.407   6.899  0.2551  0.1641 -0.2238
 1256DPPI   C2B19340   7.819   7.441   7.378  0.2214  0.0455 -0.0275
 1256DPPI   C3B19341   7.840   7.482   7.837 -0.1136 -0.0089 -0.2323
 1256DPPI   C4B19342   7.852   7.516   8.265  0.1294 -0.0038 -0.0209
 1257DPPI    C119343  10.179  15.318   5.689 -0.0253 -0.1376 -0.0522
 1257DPPI    C219344   9.950  15.568   5.475 -0.0393  0.0163  0.1401
 1257DPPI    C319345  10.344  15.549   5.407 -0.0687 -0.0599 -0.0142
 1257DPPI   PO419346   9.983  15.329   5.883 -0.2480  0.1000  0.1182
 1257DPPI   GL119347  10.000  15.255   6.268 -0.1184  0.1361 -0.2265
 1257DPPI   GL219348   9.829  15.437   6.461 -0.2771 -0.2366  0.2288
 1257DPPI   C1A19349  10.162  14.961   6.643 -0.2432  0.0351 -0.1572
 1257DPPI   C2A19350  10.191  14.875   7.056 -0.0232  0.1393  0.0309
 1257DPPI   C3A19351  10.147  14.908   7.581  0.1902 -0.0963  0.1981
 1257DPPI   C4A19352   9.971  15.088   7.852 -0.2551 -0.0872 -0.2235
 1257DPPI   C1B19353   9.776  15.365   6.864  0.1847  0.0959 -0.2886
 1257DPPI   C2B19354   9.707  15.414   7.381 -0.2316  0.0902  0.1690
 1257DPPI   C3B19355   9.635  15.418   7.717  0.2290 -0.2131  0.0495
 1257DPPI   C4B19356   9.638  15.361   8.192  0.0832  0.1238 -0.0027
 1258DPPI    C119357  17.383   8.799   6.240 -0.1660 -0.1387  0.1738
 1258DPPI    C219358  17.499   9.084   6.495  0.1208 -0.0889 -0.0072
 1258DPPI    C319359  17.410   9.178   6.116 -0.1919 -0.1796  0.0407
 1258DPPI   PO419360  17.226   8.709   6.410  0.0342  0.0348  0.0989
 1258DPPI   GL119361  17.167   8.513   6.847 -0.0274 -0.2383 -0.0355
 1258DPPI   GL219362  16.864   8.522   6.887 -0.2364  0.0507 -0.2224
 1258DPPI   C1A19363  17.383   8.793   7.143  0.0153 -0.0411 -0.0932
 1258DPPI   C2A19364  17.232   8.868   7.582 -0.2011  0.1539 -0.1360
 1258DPPI   C3A19365  17.188   8.753   8.030 -0.0290  0.1712  0.0497
 1258DPPI   C4A19366  17.324   8.810   8.480 -0.4178 -0.0314  0.2193
 1258DPPI   C1B19367  16.824   8.700   7.344  0.1435  0.0593  0.1956
 1258DPPI   C2B19368  16.667   8.886   7.730  0.0146  0.0618 -0.1369
 1258DPPI   C3B19369  16.443   9.058   8.078 -0.1326 -0.0548  0.3512
 1258DPPI   C4B19370  16.191   9.151   8.405 -0.1134  0.2138 -0.0450
 1259DPPI    C119371   6.057   6.037   5.595  0.0862  0.1588  0.1003
 1259DPPI    C219372   6.339   6.307   5.507  0.2229  0.0386  0.1662
 1259DPPI    C319373   6.442   5.932   5.599  0.0255 -0.0810 -0.0853
 1259DPPI   PO419374   5.863   6.242   5.873  0.1315  0.0299 -0.1028
 1259DPPI   GL119375   5.740   6.174   6.343 -0.0872  0.0266 -0.0058
 1259DPPI   GL219376   5.767   5.884   6.348  0.4268 -0.0865 -0.0208
 1259DPPI   C1A19377   5.563   6.388   6.753  0.0467  0.2818  0.0457
 1259DPPI   C2A19378   5.723   6.419   7.219 -0.0657  0.0224 -0.2816
 1259DPPI   C3A19379   5.726   6.491   7.678  0.3758 -0.0880 -0.2259
 1259DPPI   C4A19380   5.661   6.471   8.052 -0.3638  0.0815  0.0349
 1259DPPI   C1B19381   6.054   6.047   6.685  0.0410 -0.1412  0.0584
 1259DPPI   C2B19382   6.097   6.024   7.158 -0.1366 -0.2308  0.3855
 1259DPPI   C3B19383   6.079   6.111   7.605  0.2105 -0.0884 -0.0362
 1259DPPI   C4B19384   5.990   6.085   8.133 -0.0988  0.3927 -0.1449
 1260DPPI    C119385   6.372  12.998   5.984  0.0474  0.2608  0.2148
 1260DPPI    C219386   6.244  13.232   5.686 -0.1215  0.0784  0.1415
 1260DPPI    C319387   6.274  12.837   5.631  0.0864  0.0722  0.2888
 1260DPPI   PO419388   6.649  13.057   6.075  0.0856 -0.2741  0.0710
 1260DPPI   GL119389   6.826  13.357   6.293  0.1069 -0.0207 -0.1514
 1260DPPI   GL219390   7.023  13.150   6.434 -0.0575 -0.1946 -0.0252
 1260DPPI   C1A19391   6.663  13.329   6.723 -0.2381 -0.0040 -0.0634
 1260DPPI   C2A19392   6.544  13.317   7.115 -0.3085  0.1801 -0.0824
 1260DPPI   C3A19393   6.797  13.178   7.532 -0.2536  0.6332 -0.4969
 1260DPPI   C4A19394   6.666  13.235   8.038 -0.1823 -0.1228  0.0176
 1260DPPI   C1B19395   7.074  12.973   6.794  0.0475 -0.0351 -0.0246
 1260DPPI   C2B19396   7.137  12.869   7.174 -0.2683 -0.0188  0.0924
 1260DPPI   C3B19397   7.160  12.771   7.658 -0.0176  0.2516 -0.3035
 1260DPPI   C4B19398   7.024  12.878   8.066  0.2911 -0.1178  0.1512
 1261DPPI    C119399   9.853  10.644   5.418  0.0906  0.0672  0.0196
 1261DPPI    C219400   9.462  10.577   5.364  0.1570 -0.0285 -0.3705
 1261DPPI    C319401   9.625  10.921   5.241  0.2061 -0.0124 -0.2609
 1261DPPI   PO419402   9.909  10.636   5.664 -0.0078  0.0106  0.1786
 1261DPPI   GL119403   9.826  10.873   6.062  0.3972 -0.1884  0.1783
 1261DPPI   GL219404   9.952  11.212   6.053  0.1471  0.2332  0.2343
 1261DPPI   C1A19405   9.814  10.648   6.437  0.2298 -0.1924 -0.0910
 1261DPPI   C2A19406   9.753  10.663   6.828  0.1034 -0.2938  0.0709
 1261DPPI   C3A19407   9.690  10.742   7.282 -0.5884  0.2294  0.2753
 1261DPPI   C4A19408   9.822  10.717   7.698  0.1889 -0.0066  0.0664
 1261DPPI   C1B19409   9.937  11.134   6.508  0.2797  0.1150 -0.2889
 1261DPPI   C2B19410   9.845  11.172   6.941  0.0857 -0.2249 -0.1344
 1261DPPI   C3B19411   9.865  11.233   7.341 -0.0466 -0.0963  0.0373
 1261DPPI   C4B19412   9.903  11.251   7.739  0.1891 -0.0659 -0.0139
 1262DPPI    C119413   9.973   1.207   5.898  0.0505  0.2362  0.1246
 1262DPPI    C219414   9.987   0.881   5.668 -0.0416  0.2286  0.1293
 1262DPPI    C319415   9.794   1.207   5.540 -0.1176  0.2146  0.2074
 1262DPPI   PO419416   9.967   1.066   6.142  0.1798  0.1811 -0.0937
 1262DPPI   GL119417   9.964   1.085   6.523 -0.0726 -0.0254 -0.1923
 1262DPPI   GL219418  10.031   1.415   6.702 -0.1426 -0.1352  0.1944
 1262DPPI   C1A19419   9.843   0.925   6.845  0.2984 -0.2588 -0.4069
 1262DPPI   C2A19420   9.838   0.933   7.260 -0.2262 -0.2854 -0.1667
 1262DPPI   C3A19421   9.704   0.832   7.622  0.0608 -0.1625 -0.3176
 1262DPPI   C4A19422   9.572   0.933   8.035  0.0078 -0.0646  0.2533
 1262DPPI   C1B19423  10.035   1.444   7.131  0.1698  0.2851  0.0378
 1262DPPI   C2B19424   9.923   1.433   7.596  0.1479  0.0164  0.0441
 1262DPPI   C3B19425   9.831   1.425   8.042  0.2205  0.1058 -0.0686
 1262DPPI   C4B19426   9.770   1.248   8.447  0.2450  0.2456  0.0772
 1263DPPI    C119427  15.186   8.893   6.227 -0.3678 -0.1155  0.1694
 1263DPPI    C219428  14.791   8.945   6.256 -0.2896  0.6402  0.0837
 1263DPPI    C319429  14.966   8.939   5.896 -0.2319  0.1501  0.1130
 1263DPPI   PO419430  15.337   8.818   6.382  0.2914 -0.2435 -0.1831
 1263DPPI   GL119431  15.682   8.734   6.645  0.4494  0.0013 -0.1092
 1263DPPI   GL219432  15.423   8.442   6.710  0.0448  0.1783  0.2079
 1263DPPI   C1A19433  15.504   8.758   7.022  0.0384  0.1783 -0.0949
 1263DPPI   C2A19434  15.436   8.807   7.424  0.0575 -0.0351 -0.0750
 1263DPPI   C3A19435  15.711   8.905   7.735  0.2098 -0.3217  0.1629
 1263DPPI   C4A19436  15.887   8.904   8.155  0.1802 -0.0538 -0.0529
 1263DPPI   C1B19437  15.355   8.300   7.072 -0.3694 -0.2800  0.1243
 1263DPPI   C2B19438  15.228   8.343   7.549  0.1680  0.1430 -0.2950
 1263DPPI   C3B19439  15.244   8.314   7.875  0.3036 -0.1908  0.2945
 1263DPPI   C4B19440  15.244   8.342   8.340 -0.0993 -0.1025  0.0172
 1264DPPI    C119441  14.808  13.642   5.559  0.0604  0.0100  0.1958
 1264DPPI    C219442  15.024  13.467   5.271 -0.2746 -0.0817 -0.0053
 1264DPPI    C319443  15.076  13.855   5.352 -0.2546 -0.0277 -0.2669
 1264DPPI   PO419444  14.764  13.506   5.733 -0.1903  0.1466 -0.2608
 1264DPPI   GL119445  14.798  13.549   6.127  0.0510 -0.1058  0.1517
 1264DPPI   GL219446  14.745  13.344   6.353  0.2501 -0.1425  0.1520
 1264DPPI   C1A19447  14.899  13.800   6.503  0.0470  0.1039 -0.3592
 1264DPPI   C2A19448  14.986  13.736   6.939 -0.0618 -0.2213  0.1246
 1264DPPI   C3A19449  15.020  13.836   7.483  0.0079 -0.0327  0.2045
 1264DPPI   C4A19450  15.052  13.805   7.855 -0.0733  0.0321 -0.0654
 1264DPPI   C1B19451  14.844  13.272   6.733  0.1864 -0.2722 -0.0035
 1264DPPI   C2B19452  14.863  13.315   7.143 -0.0779  0.3478 -0.1006
 1264DPPI   C3B19453  14.873  13.294   7.620  0.1484  0.5914 -0.0139
 1264DPPI   C4B19454  14.845  13.340   8.072 -0.2985 -0.0564  0.1349
 1265DPPI    C119455   8.433   6.567   5.833  0.0365  0.0833  0.1202
 1265DPPI    C219456   8.700   6.792   5.637 -0.1971 -0.0051 -0.3132
 1265DPPI    C319457   8.529   6.480   5.454 -0.3662 -0.1394  0.0636
 1265DPPI   PO419458   8.314   6.673   5.926  0.5071 -0.0675  0.1293
 1265DPPI   GL119459   8.221   6.828   6.351 -0.1947 -0.1937  0.1194
 1265DPPI   GL219460   8.563   6.720   6.336 -0.0056  0.1079  0.1996
 1265DPPI   C1A19461   8.255   7.049   6.702  0.2849  0.0272  0.1435
 1265DPPI   C2A19462   8.205   7.103   7.194 -0.0960  0.0748  0.3304
 1265DPPI   C3A19463   8.246   7.069   7.598 -0.1516  0.0361 -0.4194
 1265DPPI   C4A19464   8.265   7.214   8.116 -0.2570 -0.1077  0.1643
 1265DPPI   C1B19465   8.546   6.654   6.773 -0.0642  0.2116 -0.0326
 1265DPPI   C2B19466   8.514   6.672   7.245 -0.0200 -0.3248 -0.1730
 1265DPPI   C3B19467   8.587   6.644   7.681 -0.0700 -0.0439  0.2971
 1265DPPI   C4B19468   8.537   6.648   8.132  0.1423  0.0796 -0.0767
 1266DPPI    C119469   5.388  14.410   5.481  0.0422  0.3163  0.0633
 1266DPPI    C219470   5.312  14.122   5.213 -0.1057  0.4376 -0.0266
 1266DPPI    C319471   5.610  14.382   5.149  0.1692  0.1743  0.1590
 1266DPPI   PO419472   5.435  14.308   5.811 -0.0577 -0.0208  0.1874
 1266DPPI   GL119473   5.514  14.157   6.218  0.0102 -0.1472  0.3954
 1266DPPI   GL219474   5.823  14.211   6.201 -0.0146 -0.0885 -0.0691
 1266DPPI   C1A19475   5.426  14.071   6.600  0.3124 -0.1531  0.2490
 1266DPPI   C2A19476   5.367  13.859   6.999  0.0018 -0.1757 -0.2161
 1266DPPI   C3A19477   5.450  13.914   7.403  0.1067  0.0773  0.2776
 1266DPPI   C4A19478   5.462  13.835   7.807  0.1015 -0.2570 -0.0715
 1266DPPI   C1B19479   5.962  14.041   6.499  0.0521  0.0218 -0.2247
 1266DPPI   C2B19480   5.820  14.061   6.909 -0.0070 -0.2427 -0.2838
 1266DPPI   C3B19481   5.954  13.938   7.392  0.0791  0.0610  0.0078
 1266DPPI   C4B19482   6.024  13.921   7.786 -0.1361 -0.0787  0.0223
 1267PYPI    C119483  15.544   2.315   5.363 -0.0931 -0.2382 -0.0395
 1267PYPI    C219484  15.582   2.708   5.296  0.0117 -0.1933  0.2651
 1267PYPI    C319485  15.808   2.447   5.094 -0.1376 -0.1068 -0.0196
 1267PYPI   PO419486  15.555   2.212   5.643 -0.1090  0.1091 -0.3670
 1267PYPI   GL119487  15.360   2.205   6.039 -0.0339  0.0119  0.1637
 1267PYPI   GL219488  15.564   1.892   5.991 -0.3061  0.0457 -0.2536
 1267PYPI   C1A19489  15.403   2.260   6.535 -0.2019  0.0720 -0.1528
 1267PYPI   C2A19490  15.392   2.262   6.916  0.0451 -0.2800 -0.2148
 1267PYPI   D3A19491  15.451   2.314   7.327 -0.3477 -0.1046 -0.1310
 1267PYPI   C4A19492  15.271   2.277   7.644  0.1349 -0.1510  0.2124
 1267PYPI   C1B19493  15.337   1.840   6.375  0.0798  0.1717  0.0022
 1267PYPI   C2B19494  15.259   1.687   6.831  0.0527  0.1740 -0.0876
 1267PYPI   C3B19495  15.262   1.869   7.262 -0.1308 -0.0592 -0.0768
 1267PYPI   C4B19496  15.167   1.784   7.686 -0.3335 -0.0224  0.4588
 1268PYPI    C119497  10.441  16.547   5.905  0.3526  0.0761  0.0067
 1268PYPI    C219498  10.238  16.531   5.561 -0.1379  0.1020  0.2853
 1268PYPI    C319499  10.582  16.733   5.581  0.0455 -0.1370 -0.2567
 1268PYPI   PO419500  10.328  16.308   5.980  0.0961  0.2104 -0.0840
 1268PYPI   GL119501  10.290  16.079   6.404 -0.2441  0.0980 -0.2736
 1268PYPI   GL219502  10.194  16.396   6.466  0.0392 -0.1688  0.1472
 1268PYPI   C1A19503  10.424  15.886   6.838  0.2301  0.3334 -0.0473
 1268PYPI   C2A19504  10.420  15.935   7.281 -0.2619 -0.2565  0.0495
 1268PYPI   D3A19505  10.322  15.997   7.725  0.3600  0.2856 -0.0704
 1268PYPI   C4A19506  10.270  15.961   8.130 -0.3227 -0.1187 -0.1454
 1268PYPI   C1B19507  10.099  16.304   6.903 -0.1622 -0.1709 -0.4140
 1268PYPI   C2B19508  10.134  16.353   7.347 -0.0943  0.0645  0.3680
 1268PYPI   C3B19509   9.946  16.340   7.765 -0.3043  0.3967  0.0782
 1268PYPI   C4B19510   9.944  16.336   8.170  0.3048 -0.2202  0.2530
 1269PYPI    C119511  14.031   2.263   5.527  0.0660 -0.0143 -0.0874
 1269PYPI    C219512  14.108   2.368   5.149 -0.0244 -0.1057 -0.1318
 1269PYPI    C319513  14.159   1.989   5.265 -0.0531 -0.0899 -0.0673
 1269PYPI   PO419514  14.188   2.371   5.696  0.0106  0.0303 -0.0866
 1269PYPI   GL119515  14.119   2.309   6.122 -0.2519 -0.0050 -0.4479
 1269PYPI   GL219516  14.344   2.034   6.275  0.5145 -0.0412  0.1092
 1269PYPI   C1A19517  14.082   2.396   6.537  0.2632  0.0401 -0.0449
 1269PYPI   C2A19518  14.152   2.446   6.919 -0.3652 -0.1547 -0.0916
 1269PYPI   D3A19519  14.162   2.510   7.349 -0.0578 -0.0076 -0.0452
 1269PYPI   C4A19520  13.989   2.453   7.756  0.1824  0.0751 -0.0561
 1269PYPI   C1B19521  14.476   1.991   6.700 -0.3210 -0.2073  0.0358
 1269PYPI   C2B19522  14.479   2.071   7.055 -0.2397  0.1539 -0.1059
 1269PYPI   C3B19523  14.349   2.032   7.553  0.3806 -0.4684 -0.1327
 1269PYPI   C4B19524  14.317   2.047   8.001 -0.1573  0.0314 -0.1390
 1270PYPI    C119525  17.020   0.839   5.783 -0.1092 -0.2198 -0.0108
 1270PYPI    C219526  16.709   0.967   6.000  0.1297  0.1170  0.1419
 1270PYPI    C319527  16.766   1.107   5.630  0.0306 -0.0419  0.0654
 1270PYPI   PO419528  17.167   0.735   5.911 -0.1791 -0.0577 -0.1708
 1270PYPI   GL119529  17.403   0.719   6.346 -0.2922 -0.0970  0.0214
 1270PYPI   GL219530  17.295   0.372   6.434  0.0455 -0.3522  0.2485
 1270PYPI   C1A19531  17.331   0.916   6.749  0.0280  0.0383 -0.4515
 1270PYPI   C2A19532  17.304   1.025   7.182  0.1197 -0.1131 -0.4043
 1270PYPI   D3A19533  17.319   0.795   7.547 -0.1209  0.1888 -0.4077
 1270PYPI   C4A19534  17.292   1.044   7.914  0.2342  0.1744 -0.4493
 1270PYPI   C1B19535  17.213   0.352   6.858  0.4869 -0.0933 -0.1820
 1270PYPI   C2B19536  17.148   0.429   7.318  0.0193 -0.0177  0.0472
 1270PYPI   C3B19537  17.145   0.394   7.796  0.0958  0.0301  0.1516
 1270PYPI   C4B19538  17.203   0.439   8.235 -0.2685 -0.0342 -0.1370
 1271PYPI    C119539   7.185  14.375   5.897 -0.0360  0.2531  0.2079
 1271PYPI    C219540   7.536  14.319   5.713 -0.0533  0.2590  0.1731
 1271PYPI    C319541   7.199  14.180   5.549 -0.0123 -0.1800  0.4443
 1271PYPI   PO419542   7.228  14.309   6.130  0.0550  0.2912 -0.0871
 1271PYPI   GL119543   7.420  14.181   6.425  0.3006 -0.0716 -0.0243
 1271PYPI   GL219544   7.540  14.422   6.561 -0.2722  0.0571  0.0998
 1271PYPI   C1A19545   7.235  14.045   6.832  0.3161  0.1594 -0.2439
 1271PYPI   C2A19546   7.341  14.089   7.214 -0.1446 -0.1791  0.3964
 1271PYPI   D3A19547   7.357  13.819   7.543  0.2589 -0.3953  0.0353
 1271PYPI   C4A19548   7.510  13.943   7.961  0.0236 -0.1088 -0.1266
 1271PYPI   C1B19549   7.611  14.417   7.031 -0.1705 -0.4770 -0.3123
 1271PYPI   C2B19550   7.506  14.337   7.577 -0.4537 -0.0755 -0.0304
 1271PYPI   C3B19551   7.556  14.431   8.033  0.3192 -0.0499  0.0784
 1271PYPI   C4B19552   7.737  14.198   8.366  0.2649 -0.5451  0.2847
 1272PYPI    C119553   3.610  14.506   5.803  0.2107 -0.3040  0.0902
 1272PYPI    C219554   3.897  14.625   5.551  0.0528  0.0073  0.0530
 1272PYPI    C319555   3.591  14.406   5.416  0.0552  0.0322  0.0071
 1272PYPI   PO419556   3.759  14.457   6.024 -0.1720  0.2993  0.0144
 1272PYPI   GL119557   3.681  14.331   6.305  0.3196 -0.2608  0.0895
 1272PYPI   GL219558   3.306  14.328   6.323 -0.1580  0.0420 -0.0633
 1272PYPI   C1A19559   3.666  14.240   6.755  0.0818 -0.2116 -0.0428
 1272PYPI   C2A19560   3.590  14.333   7.184 -0.2654  0.0111  0.1746
 1272PYPI   D3A19561   3.787  14.334   7.623  0.0227  0.0339  0.1801
 1272PYPI   C4A19562   3.686  14.276   8.035 -0.0663  0.1708  0.1016
 1272PYPI   C1B19563   3.183  14.261   6.798  0.0371  0.0071  0.3232
 1272PYPI   C2B19564   3.122  14.191   7.245  0.0079  0.0757 -0.2438
 1272PYPI   C3B19565   3.252  14.281   7.739 -0.1022  0.3730 -0.1673
 1272PYPI   C4B19566   3.121  14.208   8.090 -0.3203 -0.3126  0.1403
 1273PYPI    C119567   6.290  14.645   5.631  0.0170  0.1789  0.0430
 1273PYPI    C219568   6.172  14.306   5.807  0.2408  0.0716 -0.0114
 1273PYPI    C319569   5.909  14.526   5.602  0.1136 -0.1156 -0.0518
 1273PYPI   PO419570   6.412  14.760   5.867 -0.2867 -0.0650  0.1461
 1273PYPI   GL119571   6.429  14.945   6.338  0.0514 -0.0753 -0.0247
 1273PYPI   GL219572   6.643  14.819   6.464  0.0410 -0.2379 -0.2032
 1273PYPI   C1A19573   6.275  15.065   6.738  0.0470  0.0661  0.3403
 1273PYPI   C2A19574   6.247  14.962   7.182 -0.1635 -0.1872 -0.0632
 1273PYPI   D3A19575   6.274  14.921   7.614  0.3901  0.2911 -0.2526
 1273PYPI   C4A19576   6.253  15.007   8.010 -0.1496  0.2904 -0.3518
 1273PYPI   C1B19577   6.575  14.706   6.887  0.1757 -0.0663  0.2843
 1273PYPI   C2B19578   6.524  14.582   7.288 -0.1195  0.2659  0.1640
 1273PYPI   C3B19579   6.658  14.572   7.673 -0.2128 -0.0807 -0.1847
 1273PYPI   C4B19580   6.580  14.630   8.117  0.2324 -0.0266 -0.0671
 1274PYPI    C119581   0.220  15.804   5.781 -0.3090  0.4487  0.1411
 1274PYPI    C219582   0.585  15.963   5.821 -0.1853  0.1220  0.3545
 1274PYPI    C319583   0.415  15.942   5.460 -0.0762  0.4512  0.2807
 1274PYPI   PO419584   0.078  15.822   5.993  0.2110 -0.0377  0.0520
 1274PYPI   GL119585  -0.096  16.187   6.224 -0.0466  0.1267 -0.1324
 1274PYPI   GL219586   0.246  16.302   6.354 -0.3967 -0.2023  0.0335
 1274PYPI   C1A19587  -0.014  16.097   6.723 -0.1480 -0.2509  0.0123
 1274PYPI   C2A19588  -0.052  16.185   7.152  0.1092 -0.0792  0.0094
 1274PYPI   D3A19589  -0.038  16.290   7.530  0.1695  0.1382 -0.1542
 1274PYPI   C4A19590  -0.068  16.418   7.939 -0.2968 -0.0342 -0.0712
 1274PYPI   C1B19591   0.558  16.386   6.692  0.1278 -0.1243 -0.0121
 1274PYPI   C2B19592   0.509  16.372   7.131 -0.0701 -0.0370 -0.0040
 1274PYPI   C3B19593   0.536  16.419   7.581  0.3283  0.0905 -0.1474
 1274PYPI   C4B19594   0.441  16.437   7.979 -0.0911  0.1336 -0.3873
 1275PYPI    C119595  13.350  14.965   5.488 -0.1040 -0.1478  0.2233
 1275PYPI    C219596  13.541  15.147   5.187 -0.3602  0.0685  0.1881
 1275PYPI    C319597  13.517  14.748   5.197  0.2115  0.0279  0.2681
 1275PYPI   PO419598  13.393  15.107   5.788 -0.2081 -0.2457 -0.0285
 1275PYPI   GL119599  13.281  15.078   6.121  0.0929 -0.1155 -0.2636
 1275PYPI   GL219600  13.005  15.203   6.339 -0.5512 -0.0501  0.0089
 1275PYPI   C1A19601  13.388  14.821   6.418  0.1857 -0.3932  0.1917
 1275PYPI   C2A19602  13.312  14.845   6.896  0.0219 -0.0200  0.3418
 1275PYPI   D3A19603  13.469  14.836   7.297  0.0942  0.0340 -0.2087
 1275PYPI   C4A19604  13.438  14.774   7.732  0.2297 -0.0126 -0.1708
 1275PYPI   C1B19605  12.970  15.177   6.684 -0.3236 -0.5160  0.1213
 1275PYPI   C2B19606  13.029  15.211   7.121 -0.0617  0.0111 -0.3751
 1275PYPI   C3B19607  13.066  15.145   7.558  0.0260 -0.0658  0.1480
 1275PYPI   C4B19608  12.926  15.094   8.044 -0.0712  0.2383 -0.1013
 1276PYPI    C119609  10.802   5.699   5.651  0.1607 -0.0231 -0.0801
 1276PYPI    C219610  10.698   6.022   5.437  0.0890 -0.0862 -0.1413
 1276PYPI    C319611  10.917   5.732   5.269  0.2497 -0.0175 -0.0529
 1276PYPI   PO419612  10.668   5.798   5.927  0.1780  0.2889 -0.0133
 1276PYPI   GL119613  10.696   5.799   6.343  0.2307  0.4133  0.0758
 1276PYPI   GL219614  10.947   5.612   6.370  0.0466  0.1140 -0.2552
 1276PYPI   C1A19615  10.771   5.816   6.759  0.3506  0.0490 -0.2396
 1276PYPI   C2A19616  10.762   5.812   7.183 -0.0573 -0.0081  0.0486
 1276PYPI   D3A19617  10.695   5.896   7.663 -0.1254 -0.2314 -0.2599
 1276PYPI   C4A19618  10.739   5.935   8.005  0.1361 -0.0887  0.2372
 1276PYPI   C1B19619  11.163   5.432   6.747  0.1671  0.2029  0.2177
 1276PYPI   C2B19620  11.100   5.350   7.131 -0.1392 -0.2329 -0.1247
 1276PYPI   C3B19621  11.133   5.538   7.498  0.2944 -0.0211  0.0351
 1276PYPI   C4B19622  11.182   5.393   7.929 -0.1817 -0.3563  0.3128
 1277PYPI    C119623  13.537   8.687   5.671 -0.0146 -0.0697 -0.0415
 1277PYPI    C219624  13.271   8.959   5.794  0.0783 -0.1342  0.3118
 1277PYPI    C319625  13.601   9.075   5.601 -0.1033 -0.0377  0.0538
 1277PYPI   PO419626  13.496   8.514   5.922 -0.2030 -0.0695  0.1054
 1277PYPI   GL119627  13.548   8.541   6.397 -0.0171 -0.2034 -0.1095
 1277PYPI   GL219628  13.801   8.300   6.496  0.2011  0.2509 -0.0119
 1277PYPI   C1A19629  13.439   8.608   6.734  0.1381  0.1329 -0.3657
 1277PYPI   C2A19630  13.412   8.483   7.140  0.1703  0.1246  0.0606
 1277PYPI   D3A19631  13.384   8.265   7.537 -0.0733  0.2343  0.0261
 1277PYPI   C4A19632  13.322   8.324   8.070 -0.2645  0.3405 -0.0545
 1277PYPI   C1B19633  13.557   8.029   6.699 -0.0126 -0.1288  0.2079
 1277PYPI   C2B19634  13.586   7.917   7.190 -0.0840 -0.1250 -0.0771
 1277PYPI   C3B19635  13.704   7.874   7.629 -0.0455 -0.0119 -0.1959
 1277PYPI   C4B19636  13.658   7.891   8.074 -0.0272 -0.3256 -0.0713
 1278PYPI    C119637   2.710   7.092   6.132 -0.0093 -0.1170 -0.2120
 1278PYPI    C219638   3.031   7.130   5.896  0.0866 -0.0397 -0.0704
 1278PYPI    C319639   2.717   7.371   5.845  0.2021  0.1350  0.0316
 1278PYPI   PO419640   2.735   7.192   6.396  0.2171  0.1055 -0.1397
 1278PYPI   GL119641   2.953   7.310   6.764 -0.1129 -0.3929 -0.0360
 1278PYPI   GL219642   3.232   7.142   6.788  0.2095 -0.1626 -0.2820
 1278PYPI   C1A19643   3.122   7.180   7.268  0.0431 -0.1399  0.4611
 1278PYPI   C2A19644   3.072   7.205   7.759 -0.3557  0.0179  0.0157
 1278PYPI   D3A19645   3.080   7.242   8.183 -0.4295  0.4279  0.1785
 1278PYPI   C4A19646   3.344   7.162   8.528  0.1141  0.1492 -0.0296
 1278PYPI   C1B19647   3.490   6.894   7.135  0.2425  0.1222 -0.2221
 1278PYPI   C2B19648   3.491   6.860   7.577  0.2841  0.0521 -0.1972
 1278PYPI   C3B19649   3.363   6.836   8.002  0.3409 -0.0134 -0.1154
 1278PYPI   C4B19650   3.225   6.553   8.447  0.0158  0.1933 -0.0011
 1279PYPI    C119651  16.407  17.158   5.478 -0.0454 -0.1102  0.2117
 1279PYPI    C219652  16.782  17.125   5.343 -0.0752  0.5358 -0.0661
 1279PYPI    C319653  16.495  17.265   5.103 -0.5784 -0.2547  0.0375
 1279PYPI   PO419654  16.442  17.085   5.716  0.3547 -0.0745 -0.0531
 1279PYPI   GL119655  16.572  16.939   6.099 -0.3162  0.1928  0.3312
 1279PYPI   GL219656  16.930  16.954   6.215 -0.1368  0.1436  0.0318
 1279PYPI   C1A19657  16.425  16.836   6.476  0.0916 -0.1056 -0.1288
 1279PYPI   C2A19658  16.339  16.855   6.902 -0.0279  0.2218  0.1537
 1279PYPI   D3A19659  16.366  16.879   7.365 -0.2452  0.1014 -0.0077
 1279PYPI   C4A19660  16.358  17.021   7.731  0.1634  0.0314  0.1574
 1279PYPI   C1B19661  17.023  16.936   6.682 -0.1456  0.2409  0.2079
 1279PYPI   C2B19662  16.905  17.033   7.140 -0.1636  0.1701  0.1812
 1279PYPI   C3B19663  16.826  17.085   7.523 -0.0164  0.3468 -0.1455
 1279PYPI   C4B19664  16.809  17.076   7.954 -0.2821 -0.0927 -0.0896
 1280ERGO   ROH19665   2.384   7.382   6.677 -0.1305 -0.3484 -0.1700
 1280ERGO    R119666   2.231   7.478   6.895 -0.0502 -0.1618 -0.1925
 1280ERGO    R219667   2.133   7.311   7.093 -0.1816 -0.0286 -0.1391
 1280ERGO    R319668   2.263   7.483   7.258 -0.0359 -0.0844 -0.1952
 1280ERGO    R419669   2.060   7.358   7.427  0.0239 -0.0383 -0.0925
 1280ERGO    R519670   2.091   7.571   7.399  0.0723 -0.0465 -0.0884
 1280ERGO    C119671   2.140   7.547   7.777  0.2804 -0.0965 -0.1181
 1280ERGO    C219672   2.218   7.467   8.086 -0.1891  0.2329  0.2325
 1281ERGO   ROH19673   7.870   4.516   6.316 -0.0556  0.0298  0.0676
 1281ERGO    R119674   8.004   4.585   6.556  0.0064 -0.2894  0.1289
 1281ERGO    R219675   7.917   4.788   6.722  0.3886 -0.1031  0.1108
 1281ERGO    R319676   7.922   4.593   6.911 -0.1239 -0.1442  0.0972
 1281ERGO    R419677   7.972   4.840   7.059  0.4395 -0.2593  0.1271
 1281ERGO    R519678   8.095   4.660   7.062  0.0152 -0.5663  0.1420
 1281ERGO    C119679   8.010   4.687   7.433 -0.0120 -0.3889  0.1238
 1281ERGO    C219680   8.115   4.747   7.882 -0.1327  0.0350 -0.2211
 1282ERGO   ROH19681   2.606  13.309   6.513 -0.0085  0.0736 -0.0000
 1282ERGO    R119682   2.676  13.157   6.741  0.0654  0.0107 -0.0646
 1282ERGO    R219683   2.907  13.205   6.887  0.0958 -0.0091 -0.1081
 1282ERGO    R319684   2.733  13.221   7.095  0.1464 -0.0934 -0.0578
 1282ERGO    R419685   2.996  13.201   7.221  0.2196  0.2921 -0.1348
 1282ERGO    R519686   2.824  13.075   7.261  0.3798  0.1083 -0.0010
 1282ERGO    C119687   2.885  13.215   7.610  0.3394  0.3883 -0.1031
 1282ERGO    C219688   2.844  13.287   7.943  0.2193 -0.2241  0.1151
 1283ERGO   ROH19689   8.169  12.141   6.355  0.0219 -0.0524  0.0737
 1283ERGO    R119690   8.313  12.233   6.580 -0.0515  0.0949  0.0606
 1283ERGO    R219691   8.189  12.355   6.796 -0.1591 -0.0409  0.0745
 1283ERGO    R319692   8.319  12.162   6.937  0.0621  0.0916  0.0586
 1283ERGO    R419693   8.234  12.356   7.139 -0.3153 -0.1022  0.0967
 1283ERGO    R519694   8.436  12.281   7.108 -0.1864  0.2029  0.1571
 1283ERGO    C119695   8.382  12.176   7.471 -0.1987 -0.0135  0.0947
 1283ERGO    C219696   8.416  12.227   7.716 -0.1543 -0.2297  0.3337
 1284ERGO   ROH19697  13.319   1.728   6.335 -0.0059  0.0186  0.0062
 1284ERGO    R119698  13.343   1.700   6.616 -0.0382  0.0624  0.0136
 1284ERGO    R219699  13.520   1.849   6.765 -0.0382  0.0682  0.0075
 1284ERGO    R319700  13.297   1.912   6.907 -0.0461  0.1153 -0.0256
 1284ERGO    R419701  13.500   1.853   7.111 -0.1150 -0.0373  0.0045
 1284ERGO    R519702  13.302   1.763   7.095 -0.1510  0.0498 -0.0724
 1284ERGO    C119703  13.279   1.914   7.445 -0.1670 -0.0546 -0.0284
 1284ERGO    C219704  13.348   1.827   7.806  0.0428  0.5792  0.1319
 1285ERGO   ROH19705   0.268  10.869   6.471 -0.2412 -0.2114  0.0035
 1285ERGO    R119706   0.415  10.946   6.699 -0.1266 -0.1574 -0.0867
 1285ERGO    R219707   0.298  10.983   6.946 -0.0332  0.0737 -0.0731
 1285ERGO    R319708   0.487  10.805   7.028 -0.1218  0.0056 -0.0172
 1285ERGO    R419709   0.411  10.953   7.271 -0.0957  0.0762 -0.0519
 1285ERGO    R519710   0.613  10.926   7.192 -0.0955 -0.0230 -0.0173
 1285ERGO    C119711   0.654  10.768   7.537 -0.2153  0.0138  0.0129
 1285ERGO    C219712   0.792  10.756   7.810  0.0171  0.1267  0.1112
 1286ERGO   ROH19713   6.581   5.172   6.430 -0.0716 -0.0855  0.0077
 1286ERGO    R119714   6.477   5.292   6.664 -0.0613 -0.0238 -0.0179
 1286ERGO    R219715   6.280   5.173   6.818 -0.0315 -0.0023  0.0453
 1286ERGO    R319716   6.460   5.209   7.018 -0.0094  0.0843  0.0090
 1286ERGO    R419717   6.201   5.190   7.154  0.0231  0.0682  0.0540
 1286ERGO    R519718   6.347   5.350   7.175 -0.0084  0.0993 -0.0089
 1286ERGO    C119719   6.324   5.234   7.537  0.0756  0.1906  0.0250
 1286ERGO    C219720   6.308   5.136   7.863 -0.0063  0.2715  0.0930
 1287ERGO   ROH19721   3.594   1.215   6.473  0.1268 -0.0562  0.0357
 1287ERGO    R119722   3.661   1.364   6.704  0.0916 -0.0718  0.0556
 1287ERGO    R219723   3.487   1.396   6.916  0.0456 -0.0528  0.0119
 1287ERGO    R319724   3.696   1.298   7.060 -0.0037 -0.0841  0.0636
 1287ERGO    R419725   3.526   1.429   7.258  0.0369  0.0752  0.0013
 1287ERGO    R519726   3.738   1.464   7.226  0.0571 -0.0291 -0.0030
 1287ERGO    C119727   3.745   1.356   7.592 -0.0145  0.1204  0.0437
 1287ERGO    C219728   3.747   1.261   7.943  0.1305 -0.1621 -0.1086
 1288ERGO   ROH19729  13.753  11.342   6.372 -0.1100 -0.1982  0.0727
 1288ERGO    R119730  13.882  11.391   6.618 -0.0230 -0.3633  0.0612
 1288ERGO    R219731  13.796  11.585   6.796  0.2527 -0.2341  0.0583
 1288ERGO    R319732  13.794  11.377   6.971 -0.0192 -0.2261  0.0686
 1288ERGO    R419733  13.749  11.612   7.138  0.3459 -0.1467  0.0648
 1288ERGO    R519734  13.902  11.461   7.167  0.1362 -0.3693  0.0471
 1288ERGO    C119735  13.719  11.433   7.500  0.1451 -0.0884  0.0782
 1288ERGO    C219736  13.678  11.203   7.766  0.0913 -0.2607  0.0732
 1289ERGO   ROH19737   6.300   9.399   6.443 -0.1584 -0.1010  0.1891
 1289ERGO    R119738   6.491   9.391   6.652 -0.0324  0.0547  0.0828
 1289ERGO    R219739   6.540   9.607   6.817 -0.1267  0.0942  0.0659
 1289ERGO    R319740   6.489   9.428   7.014  0.1354  0.0366  0.0853
 1289ERGO    R419741   6.545   9.679   7.155 -0.0916  0.0920  0.0656
 1289ERGO    R519742   6.641   9.487   7.189  0.1289  0.1987  0.0338
 1289ERGO    C119743   6.498   9.552   7.537  0.1748  0.0365  0.0836
 1289ERGO    C219744   6.553   9.478   7.850  0.2522  0.0205  0.1274
 1290ERGO   ROH19745  17.362  11.813   6.442  0.1092 -0.1313 -0.0500
 1290ERGO    R119746  17.486  11.894   6.683  0.0832 -0.2001 -0.0116
 1290ERGO    R219747  17.569  12.154   6.727  0.3481 -0.2684 -0.0433
 1290ERGO    R319748  17.416  12.131   6.950  0.2062 -0.0467 -0.1165
 1290ERGO    R419749  17.589  12.361   7.003  0.3431 -0.1673 -0.1192
 1290ERGO    R519750  17.563  12.186   7.130  0.1374 -0.0832 -0.0577
 1290ERGO    C119751  17.456  12.460   7.373  0.2073  0.0996 -0.2320
 1290ERGO    C219752  17.400  12.512   7.766 -0.2841 -0.3023  0.1134
 1291ERGO   ROH19753  13.998   8.717   6.750  0.0060 -0.0203  0.1034
 1291ERGO    R119754  13.909   8.530   6.943 -0.0207 -0.1369 -0.0182
 1291ERGO    R219755  14.036   8.288   6.986  0.0719 -0.0995 -0.0338
 1291ERGO    R319756  14.045   8.376   7.243 -0.1201 -0.1823  0.0011
 1291ERGO    R419757  14.148   8.102   7.254  0.0223 -0.1164 -0.0259
 1291ERGO    R519758  13.985   8.184   7.373 -0.0841 -0.2500 -0.0926
 1291ERGO    C119759  14.221   8.075   7.652 -0.1868 -0.2040  0.0115
 1291ERGO    C219760  14.225   7.977   8.012 -0.1001  0.1601 -0.0665
 1292ERGO   ROH19761  12.162  11.878   6.138  0.1639 -0.1953  0.0820
 1292ERGO    R119762  12.113  12.093   6.315 -0.2040 -0.1970 -0.0096
 1292ERGO    R219763  11.958  12.067   6.543  0.0033 -0.4234  0.1127
 1292ERGO    R319764  12.179  12.168   6.665 -0.1276  0.1483 -0.0949
 1292ERGO    R419765  11.981  12.141   6.880  0.2039 -0.6159  0.1435
 1292ERGO    R519766  12.092  12.321   6.828 -0.3926 -0.2278  0.1303
 1292ERGO    C119767  12.201  12.279   7.191  0.1980 -0.1914 -0.0335
 1292ERGO    C219768  12.111  12.217   7.559  0.1203  0.0132  0.2471
 1293ERGO   ROH19769  10.473   4.744   6.454 -0.0764 -0.2315  0.0171
 1293ERGO    R119770  10.420   4.861   6.707 -0.0460 -0.0828 -0.0436
 1293ERGO    R219771  10.283   4.729   6.906 -0.0661  0.0511  0.0369
 1293ERGO    R319772  10.503   4.789   7.054 -0.0478  0.0895 -0.0072
 1293ERGO    R419773  10.282   4.784   7.247 -0.0221  0.1697  0.0174
 1293ERGO    R519774  10.425   4.947   7.216 -0.0180  0.1484 -0.0535
 1293ERGO    C119775  10.489   4.873   7.585  0.0205  0.2748 -0.0354
 1293ERGO    C219776  10.495   4.894   7.993 -0.1267 -0.1622  0.0218
 1294ERGO   ROH19777   5.725  17.457   6.585 -0.1296 -0.1720  0.1492
 1294ERGO    R119778   5.740  17.614   6.820  0.0427 -0.1297  0.1116
 1294ERGO    R219779   5.533  17.630   7.003  0.0581  0.1379  0.1144
 1294ERGO    R319780   5.726  17.556   7.179 -0.0166 -0.0297  0.1249
 1294ERGO    R419781   5.496  17.623   7.346  0.0149  0.1050  0.1083
 1294ERGO    R519782   5.697  17.703   7.365  0.0679 -0.0429  0.1461
 1294ERGO    C119783   5.655  17.548   7.711 -0.0802 -0.0715  0.1147
 1294ERGO    C219784   5.634  17.653   8.044 -0.1220  0.2143 -0.1400
 1295ERGO   ROH19785   5.219   2.931   6.509  0.0779 -0.2390  0.0432
 1295ERGO    R119786   5.263   3.060   6.758  0.0045 -0.1739  0.0221
 1295ERGO    R219787   5.057   3.119   6.933 -0.0433 -0.1534 -0.0426
 1295ERGO    R319788   5.212   2.981   7.109 -0.0707 -0.0934  0.0298
 1295ERGO    R419789   5.029   3.137   7.277 -0.0335  0.0371 -0.0500
 1295ERGO    R519790   5.246   3.134   7.290 -0.0338 -0.0033 -0.0520
 1295ERGO    C119791   5.157   3.018   7.643 -0.0534  0.2045  0.0136
 1295ERGO    C219792   5.194   3.021   8.004  0.0662 -0.4409  0.1802
 1296ERGO   ROH19793  15.615  12.495   6.572 -0.2247 -0.0754 -0.0114
 1296ERGO    R119794  15.519  12.528   6.836 -0.0910  0.0829  0.0201
 1296ERGO    R219795  15.462  12.314   7.001 -0.3263  0.1713  0.0614
 1296ERGO    R319796  15.631  12.441   7.171 -0.0896 -0.0386 -0.0119
 1296ERGO    R419797  15.410  12.350   7.341 -0.1954  0.3485  0.0633
 1296ERGO    R519798  15.487  12.554   7.326  0.1158  0.2294 -0.0098
 1296ERGO    C119799  15.538  12.492   7.698  0.1033  0.2547 -0.0044
 1296ERGO    C219800  15.358  12.487   8.043 -0.2739  0.2671  0.1250
 1297ERGO   ROH19801  14.553  12.284   6.382 -0.1592  0.0728  0.0829
 1297ERGO    R119802  14.449  12.177   6.623 -0.0903 -0.1138  0.0339
 1297ERGO    R219803  14.610  12.061   6.816  0.0030 -0.0330  0.0233
 1297ERGO    R319804  14.489  12.241   6.979 -0.1930 -0.1954  0.0564
 1297ERGO    R419805  14.650  12.075   7.159  0.2127  0.1515 -0.0076
 1297ERGO    R519806  14.437  12.117   7.177  0.1607 -0.2147  0.1311
 1297ERGO    C119807  14.558  12.253   7.512  0.1508  0.1065  0.0054
 1297ERGO    C219808  14.455  12.269   7.802 -0.1547 -0.1794  0.0328
 1298ERGO   ROH19809   8.890  17.302   6.405 -0.3807  0.1983  0.0339
 1298ERGO    R119810   8.801  17.125   6.608 -0.2409  0.0773 -0.0099
 1298ERGO    R219811   8.971  17.025   6.802 -0.1642  0.1690 -0.0343
 1298ERGO    R319812   8.784  17.128   6.971 -0.2508 -0.0266 -0.0079
 1298ERGO    R419813   8.909  16.910   7.122 -0.2478 -0.1439 -0.1587
 1298ERGO    R519814   8.696  16.937   7.086 -0.2464 -0.1604 -0.2134
 1298ERGO    C119815   8.697  16.940   7.467 -0.3777 -0.5099 -0.2065
 1298ERGO    C219816   8.638  16.984   7.869 -0.0203 -0.0440 -0.1607
 1299ERGO   ROH19817   8.598   1.463   6.413 -0.3164  0.0833  0.0300
 1299ERGO    R119818   8.535   1.473   6.688 -0.2144  0.0479  0.0548
 1299ERGO    R219819   8.657   1.309   6.875 -0.1022  0.0664 -0.0034
 1299ERGO    R319820   8.713   1.545   6.998 -0.1158  0.0716 -0.0064
 1299ERGO    R419821   8.612   1.372   7.212  0.2305 -0.0517  0.0674
 1299ERGO    R519822   8.538   1.570   7.160  0.0435 -0.0826  0.1969
 1299ERGO    C119823   8.638   1.630   7.523  0.4114 -0.1156  0.1059
 1299ERGO    C219824   8.538   1.582   7.819 -0.2929 -0.1225 -0.1110
 1300ERGO   ROH19825   6.587  16.066   6.677 -0.0260  0.0090 -0.1828
 1300ERGO    R119826   6.501  15.967   6.929 -0.0021  0.0252 -0.1683
 1300ERGO    R219827   6.676  15.858   7.113  0.0221  0.0920 -0.1561
 1300ERGO    R319828   6.567  16.044   7.279 -0.0184  0.0880 -0.1769
 1300ERGO    R419829   6.678  15.840   7.458 -0.0837  0.0528 -0.1577
 1300ERGO    R519830   6.473  15.916   7.458 -0.0850  0.0704 -0.2176
 1300ERGO    C119831   6.576  16.004   7.814 -0.1834  0.0262 -0.1782
 1300ERGO    C219832   6.541  15.970   8.201 -0.4848  0.0827 -0.0623
 1301ERGO   ROH19833   2.566   1.111   6.698 -0.1031 -0.1212  0.0761
 1301ERGO    R119834   2.632   1.188   6.962 -0.1203 -0.0470  0.0604
 1301ERGO    R219835   2.442   1.223   7.160 -0.1330 -0.0373  0.0567
 1301ERGO    R319836   2.599   1.047   7.296 -0.0991  0.0204  0.0892
 1301ERGO    R419837   2.472   1.210   7.504  0.0568  0.1771  0.0495
 1301ERGO    R519838   2.685   1.174   7.480  0.0294  0.1159 -0.0421
 1301ERGO    C119839   2.636   1.038   7.832  0.1991  0.3561  0.0758
 1301ERGO    C219840   2.511   1.083   8.117 -0.2450  0.0778 -0.3559
 1302ERGO   ROH19841   4.301   0.113   6.341  0.1288  0.4813  0.1715
 1302ERGO    R119842   4.261   0.204   6.606 -0.1061  0.2357  0.2248
 1302ERGO    R219843   4.085   0.081   6.781  0.0323 -0.1770  0.0888
 1302ERGO    R319844   4.304   0.069   6.941  0.0079  0.0703  0.1438
 1302ERGO    R419845   4.079   0.092   7.126 -0.0621 -0.2173  0.0885
 1302ERGO    R519846   4.255   0.219   7.121 -0.2138 -0.0061  0.1462
 1302ERGO    C119847   4.281   0.086   7.478 -0.1399 -0.0086  0.1399
 1302ERGO    C219848   4.357   0.134   7.870 -0.2243  0.2845  0.1974
 1303ERGO   ROH19849   7.878   5.936   6.537 -0.1167  0.2798 -0.0702
 1303ERGO    R119850   7.989   5.940   6.797 -0.1021 -0.0353 -0.0687
 1303ERGO    R219851   7.956   6.152   6.970  0.1497 -0.1182  0.0847
 1303ERGO    R319852   7.864   5.960   7.138 -0.0678 -0.1343 -0.0496
 1303ERGO    R419853   7.934   6.184   7.314 -0.0087 -0.2560  0.0886
 1303ERGO    R519854   8.003   5.978   7.332 -0.1549 -0.3129  0.0337
 1303ERGO    C119855   7.834   6.022   7.671 -0.3051 -0.3514 -0.0353
 1303ERGO    C219856   7.918   6.014   7.922 -0.0322  0.1144 -0.2223
 1304ERGO   ROH19857   4.560   5.894   6.331  0.2927 -0.1143  0.0125
 1304ERGO    R119858   4.506   5.737   6.561  0.2416 -0.0696  0.0318
 1304ERGO    R219859   4.698   5.683   6.753  0.1938 -0.0142  0.0977
 1304ERGO    R319860   4.512   5.787   6.921  0.1392  0.0084  0.0230
 1304ERGO    R419861   4.700   5.647   7.096 -0.0687 -0.2062  0.0813
 1304ERGO    R519862   4.484   5.620   7.090 -0.0834 -0.0693 -0.0865
 1304ERGO    C119863   4.526   5.723   7.454 -0.2728 -0.2967  0.0017
 1304ERGO    C219864   4.505   5.778   7.761 -0.1636  0.8062  0.0089
 1305ERGO   ROH19865  16.865   4.630   6.233  0.0056 -0.1420 -0.0035
 1305ERGO    R119866  16.935   4.501   6.475  0.0695 -0.0130  0.0472
 1305ERGO    R219867  17.109   4.613   6.658 -0.0581  0.1868  0.0460
 1305ERGO    R319868  16.903   4.572   6.830 -0.0546  0.0640  0.0223
 1305ERGO    R419869  17.143   4.549   6.996 -0.0500  0.1213  0.0331
 1305ERGO    R519870  16.983   4.403   6.980  0.0068  0.0586 -0.0126
 1305ERGO    C119871  16.970   4.473   7.354 -0.0419 -0.0320  0.0034
 1305ERGO    C219872  16.975   4.443   7.855  0.3019 -0.1693 -0.1196
 1306ERGO   ROH19873   0.344   9.082   6.871  0.1150  0.0480 -0.0189
 1306ERGO    R119874   0.290   8.897   7.079  0.1559  0.0548 -0.0017
 1306ERGO    R219875   0.437   8.888   7.313  0.0722  0.2003  0.0591
 1306ERGO    R319876   0.193   8.914   7.429  0.0086  0.0651 -0.0426
 1306ERGO    R419877   0.344   8.740   7.610  0.0400  0.1750  0.0362
 1306ERGO    R519878   0.149   8.698   7.523  0.1005  0.0482 -0.0387
 1306ERGO    C119879   0.060   8.677   7.893 -0.0384  0.0334 -0.0726
 1306ERGO    C219880   0.169   8.645   8.221 -0.2892 -0.2050  0.0473
 1307ERGO   ROH19881   3.282   9.317   6.623  0.0834 -0.0669  0.1001
 1307ERGO    R119882   3.266   9.468   6.861  0.1042 -0.0629  0.1001
 1307ERGO    R219883   3.090   9.405   7.065  0.1383 -0.0759  0.1307
 1307ERGO    R319884   3.316   9.407   7.217  0.1627 -0.0531  0.0924
 1307ERGO    R419885   3.107   9.513   7.393  0.1854 -0.0936  0.1334
 1307ERGO    R519886   3.298   9.607   7.347  0.1610 -0.0665  0.1071
 1307ERGO    C119887   3.329   9.578   7.726  0.2358 -0.0823  0.0990
 1307ERGO    C219888   3.239   9.629   8.081 -0.0806 -0.0703 -0.0978
 1308ERGO   ROH19889  16.858   0.582   6.276  0.1242  0.2072 -0.1056
 1308ERGO    R119890  16.927   0.683   6.531  0.1891  0.2579 -0.1428
 1308ERGO    R219891  16.775   0.872   6.662  0.1975  0.2524 -0.1221
 1308ERGO    R319892  16.777   0.688   6.862  0.2939  0.2813 -0.0959
 1308ERGO    R419893  16.763   0.947   6.999  0.0437  0.2848 -0.1338
 1308ERGO    R519894  16.909   0.789   7.035  0.1629  0.4110 -0.0721
 1308ERGO    C119895  16.758   0.818   7.384  0.0443  0.3309 -0.1160
 1308ERGO    C219896  16.828   0.833   7.705 -0.2836 -0.1022  0.4098
 1309ERGO   ROH19897  13.117   8.251   6.625  0.0094  0.0135 -0.0831
 1309ERGO    R119898  13.018   8.361   6.866 -0.0055 -0.0198 -0.0733
 1309ERGO    R219899  12.811   8.245   7.009 -0.0108 -0.0452 -0.0957
 1309ERGO    R319900  12.990   8.254   7.213 -0.0178 -0.0662 -0.0894
 1309ERGO    R419901  12.732   8.209   7.344 -0.0088 -0.1351 -0.1052
 1309ERGO    R519902  12.874   8.367   7.389 -0.0355 -0.1266 -0.0651
 1309ERGO    C119903  12.854   8.197   7.730 -0.0141 -0.2073 -0.1048
 1309ERGO    C219904  12.878   8.097   8.107  0.2622 -0.2299 -0.2654
 1310ERGO   ROH19905  17.386   6.101   6.505  0.0498  0.0785  0.1281
 1310ERGO    R119906  17.497   6.046   6.760  0.0435  0.0452  0.1239
 1310ERGO    R219907  17.547   6.244   6.947 -0.0166  0.0142  0.1742
 1310ERGO    R319908  17.393   6.087   7.107  0.0078 -0.0589  0.1259
 1310ERGO    R419909  17.623   6.160   7.273 -0.0162 -0.0520  0.1570
 1310ERGO    R519910  17.551   5.959   7.233  0.0284 -0.0574  0.1018
 1310ERGO    C119911  17.524   5.964   7.613  0.0071 -0.1592  0.1015
 1310ERGO    C219912  17.447   5.869   7.918 -0.2492  0.2166 -0.4885
 1311ERGO   ROH19913  12.263   9.389   6.515 -0.1365 -0.0750  0.1154
 1311ERGO    R119914  12.181   9.492   6.765 -0.0889 -0.0940  0.1387
 1311ERGO    R219915  12.075   9.333   6.965  0.0732 -0.1286  0.1954
 1311ERGO    R319916  12.272   9.445   7.114  0.0750 -0.0134  0.1087
 1311ERGO    R419917  12.067   9.368   7.309  0.1863 -0.1178  0.1974
 1311ERGO    R519918  12.156   9.565   7.286  0.0730 -0.0663  0.1488
 1311ERGO    C119919  12.247   9.493   7.649  0.2538 -0.0035  0.1171
 1311ERGO    C219920  12.158   9.359   7.957  0.1553 -0.1052  0.0275
 1312ERGO   ROH19921  12.969  11.413   6.414 -0.2568 -0.0268 -0.2492
 1312ERGO    R119922  12.826  11.356   6.652 -0.0584 -0.1142 -0.1484
 1312ERGO    R219923  12.939  11.219   6.864  0.1963  0.0128 -0.1959
 1312ERGO    R319924  12.858  11.437   7.005  0.0985 -0.0322 -0.1811
 1312ERGO    R419925  12.910  11.232   7.208  0.2062 -0.0128 -0.1940
 1312ERGO    R519926  12.727  11.347   7.184  0.1511 -0.1010 -0.1785
 1312ERGO    C119927  12.818  11.445   7.541  0.1202 -0.0701 -0.1789
 1312ERGO    C219928  12.761  11.512   7.891 -0.3064 -0.0125  0.2039
 1313ERGO   ROH19929   1.066   8.497   6.590  0.1150  0.0330  0.0531
 1313ERGO    R119930   1.243   8.533   6.807  0.1307  0.1153  0.0253
 1313ERGO    R219931   1.295   8.781   6.918 -0.0353  0.1248  0.0684
 1313ERGO    R319932   1.221   8.658   7.149  0.1072  0.0193  0.0610
 1313ERGO    R419933   1.351   8.906   7.235 -0.2880  0.2425  0.0709
 1313ERGO    R519934   1.400   8.704   7.301  0.0161  0.3121  0.0935
 1313ERGO    C119935   1.315   8.863   7.637 -0.3014  0.2119  0.0653
 1313ERGO    C219936   1.200   9.124   7.940  0.1123 -0.1440  0.0182
 1314ERGO   ROH19937   9.025   7.862   6.528  0.1760 -0.1770 -0.2051
 1314ERGO    R119938   8.871   7.783   6.752  0.2129 -0.2713 -0.2149
 1314ERGO    R219939   8.971   7.618   6.950  0.4044  0.0348 -0.0658
 1314ERGO    R319940   8.892   7.821   7.114 -0.0012  0.0175 -0.2241
 1314ERGO    R419941   8.907   7.586   7.288  0.5207  0.1422 -0.0317
 1314ERGO    R519942   8.736   7.719   7.264  0.2174 -0.2166 -0.1268
 1314ERGO    C119943   8.796   7.757   7.639  0.2077  0.1885 -0.1604
 1314ERGO    C219944   8.908   7.703   8.061 -0.0408  0.3253  0.0374
 1315ERGO   ROH19945  14.424  10.680   6.609  0.0228  0.1735 -0.0546
 1315ERGO    R119946  14.530  10.686   6.871  0.0386  0.0168 -0.0570
 1315ERGO    R219947  14.396  10.801   7.084  0.1292  0.0476 -0.0173
 1315ERGO    R319948  14.436  10.557   7.198 -0.0392 -0.0165 -0.0924
 1315ERGO    R419949  14.439  10.746   7.422  0.2920 -0.0625 -0.0543
 1315ERGO    R519950  14.592  10.599   7.374  0.1171 -0.2071 -0.1828
 1315ERGO    C119951  14.501  10.485   7.726  0.2286 -0.1870 -0.1463
 1315ERGO    C219952  14.749  10.483   8.076 -0.1757  0.0301  0.2610
 1316ERGO   ROH19953   3.984   0.443   6.372 -0.3562  0.0624 -0.0885
 1316ERGO    R119954   3.905   0.583   6.605 -0.2510  0.0038 -0.0171
 1316ERGO    R219955   3.753   0.467   6.804 -0.0939 -0.0693  0.0589
 1316ERGO    R319956   3.956   0.551   6.964 -0.0187 -0.0367 -0.0522
 1316ERGO    R419957   3.774   0.409   7.144 -0.0069  0.1157  0.0869
 1316ERGO    R519958   3.850   0.612   7.169  0.0608  0.1110 -0.0516
 1316ERGO    C119959   3.977   0.453   7.492  0.1145  0.2542 -0.0011
 1316ERGO    C219960   3.915   0.485   7.892  0.1151  0.0644 -0.0910
 1317ERGO   ROH19961   6.014   4.520  10.621  0.0040  0.1516 -0.0030
 1317ERGO    R119962   5.982   4.623  10.359 -0.0690  0.0730 -0.0259
 1317ERGO    R219963   6.186   4.750  10.223 -0.1506  0.1761 -0.0613
 1317ERGO    R319964   6.130   4.564  10.032 -0.0375  0.0935 -0.0142
 1317ERGO    R419965   6.219   4.799   9.882 -0.1367  0.0858 -0.0728
 1317ERGO    R519966   6.033   4.690   9.853 -0.0767 -0.0113 -0.0630
 1317ERGO    C119967   6.186   4.653   9.505 -0.0226 -0.0443 -0.0352
 1317ERGO    C219968   6.239   4.668   9.156  0.3307  0.1624  0.1022
 1318ERGO   ROH19969   5.758  11.624   6.361  0.2270  0.1497 -0.1171
 1318ERGO    R119970   5.724  11.737   6.619  0.2328  0.2012 -0.1368
 1318ERGO    R219971   5.589  11.606   6.822  0.0420  0.3237 -0.1716
 1318ERGO    R319972   5.819  11.652   6.959  0.0455  0.1359 -0.0985
 1318ERGO    R419973   5.609  11.665   7.162 -0.0255  0.4070 -0.1836
 1318ERGO    R519974   5.760  11.816   7.123  0.1467  0.2489 -0.1733
 1318ERGO    C119975   5.837  11.742   7.489 -0.0614  0.2792 -0.1220
 1318ERGO    C219976   5.846  11.611   7.808  0.3925 -0.2086  0.2101
 1319ERGO   ROH19977   5.375  10.485   6.708  0.0254  0.1272  0.0477
 1319ERGO    R119978   5.387  10.656   6.933  0.0592  0.1059  0.0628
 1319ERGO    R219979   5.209  10.637   7.144 -0.0083  0.1886  0.0164
 1319ERGO    R319980   5.436  10.617   7.292 -0.0567  0.0530  0.0729
 1319ERGO    R419981   5.232  10.704   7.482 -0.0312  0.2699  0.0015
 1319ERGO    R519982   5.424  10.800   7.446  0.0526  0.1081  0.0159
 1319ERGO    C119983   5.459  10.724   7.818 -0.0899  0.1901  0.0458
 1319ERGO    C219984   5.525  10.593   8.185  0.0721  0.1813 -0.0526
 1320ERGO   ROH19985  15.895   5.304   6.343 -0.1381  0.0575  0.0804
 1320ERGO    R119986  15.813   5.323   6.614 -0.2396  0.0173  0.0545
 1320ERGO    R219987  15.696   5.112   6.749  0.0085 -0.1160  0.0810
 1320ERGO    R319988  15.896   5.157   6.927 -0.0944  0.2092  0.1168
 1320ERGO    R419989  15.669   5.073   7.091  0.0725 -0.3514  0.0593
 1320ERGO    R519990  15.787   5.254   7.116 -0.3071 -0.1178  0.1613
 1320ERGO    C119991  15.841   5.092   7.457  0.0130 -0.1832  0.0802
 1320ERGO    C219992  15.712   5.145   7.881  0.2512  0.0886 -0.0798
 1321ERGO   ROH19993   7.350  13.520   6.285  0.0395 -0.1008  0.0183
 1321ERGO    R119994   7.325  13.614   6.551 -0.0090 -0.1537  0.0329
 1321ERGO    R219995   7.123  13.530   6.720  0.0369 -0.2887  0.0238
 1321ERGO    R319996   7.331  13.468   6.885  0.0733 -0.2014  0.0105
 1321ERGO    R419997   7.095  13.471   7.060  0.0899 -0.2767  0.0302
 1321ERGO    R519998   7.280  13.582   7.089  0.0503 -0.2074  0.0068
 1321ERGO    C119999   7.273  13.379   7.412  0.1550 -0.1877  0.0214
 1321ERGO    C220000   7.218  13.356   7.782 -0.3494 -0.2327  0.0944
 1322ERGO   ROH20001  14.495   9.620   6.855 -0.2121 -0.0200 -0.0497
 1322ERGO    R120002  14.455   9.599   7.134 -0.1019 -0.0262 -0.0342
 1322ERGO    R220003  14.204   9.602   7.249 -0.0578 -0.0863  0.0591
 1322ERGO    R320004  14.287   9.369   7.361  0.0398 -0.0642  0.0348
 1322ERGO    R420005  14.068   9.460   7.533 -0.0250 -0.1844  0.0263
 1322ERGO    R520006  14.269   9.406   7.597 -0.0029 -0.1007  0.0400
 1322ERGO    C120007  14.066   9.158   7.803  0.0856 -0.2206 -0.0156
 1322ERGO    C220008  13.947   8.895   7.958  0.1317 -0.0105  0.0077
 1323ERGO   ROH20009  16.904   7.425   6.711 -0.0951  0.2071  0.0090
 1323ERGO    R120010  16.923   7.313   6.970 -0.1452  0.1542 -0.0096
 1323ERGO    R220011  17.109   7.399   7.156 -0.0623 -0.0052 -0.0172
 1323ERGO    R320012  16.889   7.431   7.313 -0.0221  0.1281  0.0126
 1323ERGO    R420013  17.109   7.386   7.502 -0.0406 -0.1466 -0.0221
 1323ERGO    R520014  16.921   7.276   7.493 -0.1428  0.0234 -0.0531
 1323ERGO    C120015  16.902   7.409   7.850  0.0097 -0.1039  0.0030
 1323ERGO    C220016  16.900   7.512   8.159  0.1124 -0.0016  0.0575
 1324ERGO   ROH20017   5.940   0.255   6.396  0.2154 -0.0433  0.0739
 1324ERGO    R120018   5.935   0.428   6.620  0.1507 -0.0360  0.0667
 1324ERGO    R220019   5.715   0.449   6.787  0.0812  0.0125 -0.0314
 1324ERGO    R320020   5.897   0.391   6.980 -0.0156 -0.0181  0.0521
 1324ERGO    R420021   5.674   0.518   7.123 -0.0458  0.0481 -0.0535
 1324ERGO    R520022   5.884   0.577   7.131 -0.0341 -0.0032  0.0322
 1324ERGO    C120023   5.821   0.504   7.500 -0.2106  0.0401  0.0120
 1324ERGO    C220024   5.793   0.423   7.782  0.1804 -0.0215 -0.0419
 1325ERGO   ROH20025  11.639   3.651   6.626  0.0037  0.1239  0.0246
 1325ERGO    R120026  11.509   3.589   6.870 -0.3004  0.2125 -0.1111
 1325ERGO    R220027  11.642   3.480   7.086 -0.6748 -0.2465 -0.0983
 1325ERGO    R320028  11.535   3.692   7.218 -0.3091 -0.1089 -0.0116
 1325ERGO    R420029  11.603   3.500   7.429 -0.6057 -0.3026 -0.0866
 1325ERGO    R520030  11.409   3.594   7.396 -0.4576  0.0359 -0.0342
 1325ERGO    C120031  11.480   3.711   7.752 -0.2220 -0.2060  0.0016
 1325ERGO    C220032  11.598   3.679   8.123 -0.3167 -0.3508  0.1841
 1326ERGO   ROH20033   5.718   6.971   6.419  0.0979  0.1779 -0.1009
 1326ERGO    R120034   5.732   6.900   6.693 -0.2308  0.2547 -0.0586
 1326ERGO    R220035   5.970   6.897   6.834 -0.2698 -0.4218  0.0390
 1326ERGO    R320036   5.835   7.062   7.002  0.1584  0.0972 -0.1026
 1326ERGO    R420037   6.012   6.910   7.177 -0.3027 -0.2809  0.0366
 1326ERGO    R520038   5.797   6.932   7.198 -0.2553  0.3465 -0.0116
 1326ERGO    C120039   5.909   7.073   7.534  0.0801  0.2885 -0.0977
 1326ERGO    C220040   5.854   6.989   7.922  0.0801 -0.3158  0.0381
 1327ERGO   ROH20041   9.518  14.951   6.533 -0.2231 -0.0996  0.1186
 1327ERGO    R120042   9.559  14.821   6.781 -0.0333 -0.0484  0.1140
 1327ERGO    R220043   9.735  14.917   6.973 -0.2579  0.2685  0.1601
 1327ERGO    R320044   9.516  14.903   7.133 -0.2730 -0.1648  0.1158
 1327ERGO    R420045   9.742  14.873   7.316 -0.2222  0.3297  0.1683
 1327ERGO    R520046   9.572  14.739   7.297  0.0466 -0.0377  0.1500
 1327ERGO    C120047   9.540  14.834   7.665 -0.2155 -0.0415  0.1315
 1327ERGO    C220048   9.577  14.872   8.005  0.1111  0.0382 -0.1980
 1328ERGO   ROH20049   3.325  16.215   6.299 -0.1144  0.1075  0.0144
 1328ERGO    R120050   3.222  16.121   6.545 -0.1128  0.0556 -0.0059
 1328ERGO    R220051   3.379  15.992   6.733 -0.0975  0.0880 -0.0056
 1328ERGO    R320052   3.283  16.185   6.898 -0.1726  0.0404  0.0093
 1328ERGO    R420053   3.401  15.988   7.078  0.2584  0.2445 -0.0212
 1328ERGO    R520054   3.199  16.066   7.087  0.1603  0.0024  0.1461
 1328ERGO    C120055   3.323  16.167   7.433  0.3952  0.2907 -0.0163
 1328ERGO    C220056   3.332  16.124   7.713  0.1170  0.1931 -0.2570
 1329ERGO   ROH20057  10.887  17.415   6.453 -0.0809  0.1862  0.0544
 1329ERGO    R120058  10.917  17.299   6.710 -0.1726 -0.0234 -0.0266
 1329ERGO    R220059  11.062  17.420   6.912 -0.0083 -0.3163  0.0430
 1329ERGO    R320060  10.831  17.388   7.052 -0.0296 -0.1570  0.0438
 1329ERGO    R420061  11.037  17.419   7.257 -0.0186 -0.2827  0.0414
 1329ERGO    R520062  10.893  17.257   7.242 -0.1225 -0.1857  0.0501
 1329ERGO    C120063  10.805  17.389   7.589 -0.0445 -0.1135  0.0414
 1329ERGO    C220064  10.850  17.489   7.918 -0.3591 -0.1022  0.2598
 1330ERGO   ROH20065  14.473   3.615   6.182  0.0304 -0.0298 -0.0665
 1330ERGO    R120066  14.319   3.594   6.419 -0.0418 -0.1826 -0.1256
 1330ERGO    R220067  14.360   3.395   6.606  0.1336 -0.1025 -0.0746
 1330ERGO    R320068  14.382   3.605   6.777 -0.1988 -0.0410 -0.1020
 1330ERGO    R420069  14.332   3.374   6.950  0.2274 -0.1101 -0.0673
 1330ERGO    R520070  14.219   3.560   6.947 -0.0961 -0.3005 -0.0701
 1330ERGO    C120071  14.336   3.559   7.311 -0.0300 -0.0568 -0.0886
 1330ERGO    C220072  14.373   3.402   7.677 -0.0461 -0.3338  0.0120
 1331ERGO   ROH20073  12.199   0.722   6.582  0.0798  0.1457  0.0648
 1331ERGO    R120074  12.069   0.605   6.804 -0.0765  0.2520  0.0311
 1331ERGO    R220075  12.208   0.484   7.011 -0.2332 -0.0965 -0.0595
 1331ERGO    R320076  12.063   0.656   7.164  0.0927  0.0793  0.0602
 1331ERGO    R420077  12.160   0.454   7.352 -0.3246 -0.2711 -0.0866
 1331ERGO    R520078  11.954   0.516   7.324 -0.2052  0.1667 -0.0609
 1331ERGO    C120079  11.998   0.597   7.694 -0.0719 -0.2078  0.0100
 1331ERGO    C220080  11.840   0.595   7.996 -0.1239  0.2324  0.1534
 1332ERGO   ROH20081  15.078   7.980   6.639 -0.0965  0.1699  0.0903
 1332ERGO    R120082  15.034   7.854   6.889 -0.4203  0.2374  0.0727
 1332ERGO    R220083  15.239   7.802   7.067 -0.5104 -0.4435  0.0080
 1332ERGO    R320084  15.081   7.940   7.239 -0.0504  0.0257  0.0793
 1332ERGO    R420085  15.220   7.745   7.407 -0.4502 -0.2993  0.0360
 1332ERGO    R520086  15.004   7.775   7.395 -0.3884  0.2611  0.1691
 1332ERGO    C120087  15.060   7.841   7.767  0.0167  0.2251  0.1192
 1332ERGO    C220088  15.034   7.896   8.220  0.0135 -0.2242 -0.0014
 1333ERGO   ROH20089   2.176  10.777   6.636  0.1232  0.0668 -0.0745
 1333ERGO    R120090   2.258  10.676   6.888  0.1271 -0.0733 -0.1309
 1333ERGO    R220091   2.516  10.702   6.981  0.0521  0.1625  0.0184
 1333ERGO    R320092   2.393  10.813   7.196 -0.1937 -0.1974  0.0702
 1333ERGO    R420093   2.659  10.737   7.294  0.0121  0.3716  0.0133
 1333ERGO    R520094   2.467  10.681   7.382  0.1343 -0.1071  0.0126
 1333ERGO    C120095   2.626  10.862   7.679 -0.2419  0.1555  0.0590
 1333ERGO    C220096   2.590  10.939   7.996  0.1032  0.2430 -0.2695
 1334ERGO   ROH20097   0.600   9.980   6.846  0.1823  0.2102 -0.0221
 1334ERGO    R120098   0.724   9.995   7.100  0.0687  0.0520  0.0439
 1334ERGO    R220099   0.583   9.968   7.336 -0.0308 -0.1369 -0.0353
 1334ERGO    R320100   0.766   9.774   7.387 -0.0221 -0.1434 -0.0905
 1334ERGO    R420101   0.643   9.830   7.647  0.0240 -0.1740 -0.0622
 1334ERGO    R520102   0.856   9.832   7.601  0.0160 -0.1691 -0.0993
 1334ERGO    C120103   0.850   9.567   7.876  0.0641 -0.2020 -0.1297
 1334ERGO    C220104   0.749   9.384   8.139 -0.2390 -0.1562 -0.1126
 1335ERGO   ROH20105   5.696   1.949   6.385  0.1192  0.0128 -0.0988
 1335ERGO    R120106   5.817   1.960   6.641  0.0847 -0.0117 -0.0814
 1335ERGO    R220107   5.714   2.111   6.848  0.0580 -0.0303 -0.0823
 1335ERGO    R320108   5.723   1.875   6.982  0.0381 -0.0425 -0.1013
 1335ERGO    R420109   5.690   2.079   7.191  0.0280 -0.0576 -0.0868
 1335ERGO    R520110   5.844   1.926   7.182  0.0238 -0.0632 -0.0866
 1335ERGO    C120111   5.683   1.839   7.517 -0.0081 -0.0850 -0.1071
 1335ERGO    C220112   5.768   1.847   7.852  0.0010  0.1307  0.3871
 1336ERGO   ROH20113   8.508   2.613  10.981 -0.1091 -0.2446  0.0192
 1336ERGO    R120114   8.560   2.491  10.731 -0.1309 -0.1874 -0.0133
 1336ERGO    R220115   8.374   2.484  10.527 -0.0971 -0.0114 -0.0513
 1336ERGO    R320116   8.575   2.597  10.383 -0.0057 -0.0741  0.0256
 1336ERGO    R420117   8.426   2.436  10.188 -0.1440  0.1853 -0.0881
 1336ERGO    R520118   8.640   2.427  10.228 -0.1493 -0.0198 -0.0969
 1336ERGO    C120119   8.645   2.514   9.856 -0.0854  0.2408 -0.0374
 1336ERGO    C220120   8.606   2.509   9.502  0.1434  0.0899  0.0023
 1337ERGO   ROH20121  17.056   9.008   6.778 -0.2922 -0.1046  0.0558
 1337ERGO    R120122  16.975   9.050   7.046 -0.0857  0.0418  0.0968
 1337ERGO    R220123  17.118   9.209   7.221 -0.0383  0.2718 -0.1503
 1337ERGO    R320124  16.879   9.335   7.251 -0.1001  0.1326 -0.0320
 1337ERGO    R420125  16.982   9.305   7.524 -0.1152 -0.1429 -0.0463
 1337ERGO    R520126  16.786   9.240   7.451 -0.0820 -0.1479 -0.1469
 1337ERGO    C120127  16.678   9.479   7.729 -0.2181 -0.5149  0.1253
 1337ERGO    C220128  16.747   9.514   8.065 -0.2208  0.0887  0.0866
 1338ERGO   ROH20129   8.757   0.556   6.618  0.3503  0.1610  0.0268
 1338ERGO    R120130   8.831   0.623   6.883  0.1549  0.3865  0.0281
 1338ERGO    R220131   8.715   0.832   7.023 -0.3309  0.1768 -0.0445
 1338ERGO    R320132   8.667   0.638   7.207  0.0468  0.1081 -0.0099
 1338ERGO    R420133   8.681   0.886   7.362 -0.3829  0.1651 -0.0475
 1338ERGO    R520134   8.795   0.705   7.398 -0.0419  0.3718 -0.0370
 1338ERGO    C120135   8.616   0.737   7.733 -0.0585  0.0938 -0.0168
 1338ERGO    C220136   8.598   0.751   8.002  0.0350 -0.0520 -0.3283
 1339ERGO   ROH20137   7.064   1.159   6.503 -0.2278  0.0138  0.0091
 1339ERGO    R120138   7.003   1.290   6.747 -0.3126 -0.0744  0.0364
 1339ERGO    R220139   6.840   1.178   6.939 -0.0230 -0.3448  0.1359
 1339ERGO    R320140   7.053   1.225   7.102 -0.0024  0.0195  0.0130
 1339ERGO    R420141   6.822   1.211   7.283  0.1016 -0.1957  0.1292
 1339ERGO    R520142   6.967   1.374   7.270 -0.1170 -0.0072 -0.0221
 1339ERGO    C120143   7.011   1.274   7.635  0.1935  0.2331  0.0098
 1339ERGO    C220144   6.981   1.228   7.998  0.0690  0.0397 -0.0338
 1340ERGO   ROH20145   4.643   8.235   6.681  0.1157  0.2192 -0.0028
 1340ERGO    R120146   4.586   8.119   6.933 -0.0731  0.2712 -0.0209
 1340ERGO    R220147   4.784   8.031   7.105 -0.2097  0.0651  0.0318
 1340ERGO    R320148   4.660   8.196   7.281 -0.0924  0.1897  0.0014
 1340ERGO    R420149   4.813   8.012   7.449 -0.3395  0.0187  0.0416
 1340ERGO    R520150   4.601   8.054   7.465 -0.3015  0.2429 -0.0229
 1340ERGO    C120151   4.714   8.155   7.814 -0.3048  0.1088  0.0188
 1340ERGO    C220152   4.711   8.122   8.078 -0.0421 -0.1078 -0.1398
 1341ERGO   ROH20153  13.068   3.974   6.728 -0.2112  0.2251 -0.1335
 1341ERGO    R120154  13.148   4.056   6.986 -0.1934  0.3080 -0.1641
 1341ERGO    R220155  12.974   4.171   7.167 -0.2769  0.0143 -0.0469
 1341ERGO    R320156  13.062   3.971   7.329  0.1205  0.1152 -0.1299
 1341ERGO    R420157  12.955   4.174   7.512 -0.1538 -0.1132 -0.0389
 1341ERGO    R520158  13.154   4.085   7.519  0.0006  0.2184 -0.1359
 1341ERGO    C120159  13.027   3.988   7.865  0.2910 -0.0928 -0.1123
 1341ERGO    C220160  13.133   3.933   8.182  0.0171 -0.1170 -0.1845
 1342ERGO   ROH20161   1.943  11.991   6.779 -0.0630 -0.0347 -0.0206
 1342ERGO    R120162   1.979  12.122   7.027 -0.1744 -0.0050 -0.0202
 1342ERGO    R220163   1.819  12.071   7.246 -0.0657 -0.2221  0.0102
 1342ERGO    R320164   2.057  12.025   7.370  0.0231  0.0691 -0.0423
 1342ERGO    R420165   1.883  12.134   7.580 -0.2442 -0.6188  0.1260
 1342ERGO    R520166   2.081  12.208   7.522 -0.3775 -0.1124  0.2585
 1342ERGO    C120167   2.144  12.127   7.890 -0.2649 -0.5765  0.1442
 1342ERGO    C220168   1.949  12.192   8.184  0.0790 -0.3742  0.2064
 1343ERGO   ROH20169   4.380   9.059   6.798 -0.3251 -0.1130  0.1724
 1343ERGO    R120170   4.574   9.167   6.974 -0.1882 -0.1478  0.0437
 1343ERGO    R220171   4.536   9.403   7.111 -0.0290 -0.1099  0.0234
 1343ERGO    R320172   4.595   9.249   7.328  0.0407 -0.0903  0.0191
 1343ERGO    R420173   4.605   9.525   7.427 -0.0378 -0.0848  0.0159
 1343ERGO    R520174   4.761   9.374   7.446  0.0128 -0.0357  0.0021
 1343ERGO    C120175   4.700   9.451   7.814  0.0226 -0.0518  0.0074
 1343ERGO    C220176   4.754   9.503   8.169 -0.0497  0.0208  0.0550
 1344ERGO   ROH20177  13.339   9.066   6.880 -0.0405 -0.1219  0.1222
 1344ERGO    R120178  13.318   9.078   7.162 -0.1132  0.0541  0.1107
 1344ERGO    R220179  13.532   9.027   7.329 -0.2146 -0.0836  0.2031
 1344ERGO    R320180  13.470   9.272   7.430  0.0137  0.0409  0.0484
 1344ERGO    R420181  13.648   9.152   7.630 -0.0266  0.0405  0.0806
 1344ERGO    R520182  13.450   9.236   7.666  0.0522  0.2273  0.0805
 1344ERGO    C120183  13.658   9.455   7.900  0.2974  0.2295 -0.1360
 1344ERGO    C220184  13.872   9.363   8.219 -0.2405 -0.4420 -0.3146
 1345ERGO   ROH20185  11.106  15.178   6.484  0.0526 -0.1168 -0.0683
 1345ERGO    R120186  11.087  15.070   6.744  0.0128  0.0151 -0.0153
 1345ERGO    R220187  11.287  15.099   6.933  0.0265  0.0293 -0.0295
 1345ERGO    R320188  11.085  15.199   7.085  0.0647  0.1803 -0.0774
 1345ERGO    R420189  11.283  15.106   7.279 -0.0267  0.0881 -0.0315
 1345ERGO    R520190  11.072  15.052   7.272 -0.0587  0.2194 -0.0559
 1345ERGO    C120191  11.090  15.204   7.622 -0.0218  0.2641 -0.0776
 1345ERGO    C220192  11.100  15.222   7.976  0.1968 -0.2191  0.1062
 1346ERGO   ROH20193   9.170   9.141   6.530  0.1692 -0.1881  0.0084
 1346ERGO    R120194   9.284   9.208   6.780 -0.0028 -0.1134  0.0675
 1346ERGO    R220195   9.142   9.337   6.979 -0.2287 -0.3240  0.0408
 1346ERGO    R320196   9.222   9.125   7.129 -0.0404 -0.2653  0.0273
 1346ERGO    R420197   9.213   9.350   7.316  0.0995 -0.2002 -0.0296
 1346ERGO    R520198   9.382   9.217   7.281  0.0954 -0.1818 -0.1568
 1346ERGO    C120199   9.331   9.160   7.654  0.4674 -0.0730 -0.0832
 1346ERGO    C220200   9.237   9.272   7.916 -0.0520 -0.1038  0.3557
 1347W        W20201   2.617   8.519   4.743  0.1417  0.0927 -0.3441
 1348W        W20202  14.646  12.228  15.008 -0.4289  0.0767  0.2048
 1349W        W20203  14.891   5.232  11.795  0.0717  0.0075 -0.0513
 1350W        W20204  13.165   9.212  13.687  0.0078 -0.0279 -0.1425
 1351W        W20205   7.790   7.184  15.206  0.2055 -0.1638 -0.1095
 1352W        W20206  15.235  13.893  16.258  0.0696  0.1023 -0.1547
 1353W        W20207   7.770   7.425  12.253 -0.0696  0.1672 -0.0936
 1354W        W20208  14.792   2.192   3.104  0.2802  0.1485 -0.1376
 1355W        W20209  16.920   0.697  14.047  0.0342  0.1138  0.2059
 1356W        W20210   5.086   3.277   0.022 -0.2657  0.0748  0.1345
 1357W        W20211  13.657   9.372   4.356 -0.1593  0.0280 -0.0248
 1358W        W20212   2.207   1.468   1.787  0.1906  0.1167  0.3262
 1359W        W20213   6.662  11.009   2.489 -0.1865 -0.1156  0.2258
 1360W        W20214   5.164   7.650   3.277 -0.0835  0.3389  0.3602
 1361W        W20215  15.613  11.936  11.742  0.1987  0.0643 -0.0273
 1362W        W20216   5.255  15.897  15.221 -0.1953 -0.0262 -0.2005
 1363W        W20217   5.569   0.246   1.900  0.0723  0.2952 -0.0271
 1364W        W20218   0.216  15.668  15.058 -0.4338  0.1223 -0.0897
 1365W        W20219  16.535  11.792  15.699  0.2265 -0.0272  0.0494
 1366W        W20220   7.323   1.303  17.008  0.1826  0.1537 -0.1654
 1367W        W20221   6.092  13.766   4.770 -0.1210 -0.1175  0.1704
 1368W        W20222   6.538  14.852  11.910  0.0200 -0.3002 -0.2866
 1369W        W20223  15.107   9.478  14.274 -0.0976 -0.0241  0.3611
 1370W        W20224   0.965  16.165  15.845  0.0012  0.1032 -0.1093
 1371W        W20225  12.996   7.325  14.606  0.0371 -0.0031  0.1528
 1372W        W20226  14.000   9.118  13.637  0.1347 -0.2839  0.3782
 1373W        W20227  11.152   2.055   2.235 -0.0180 -0.0499 -0.1747
 1374W        W20228  13.150   4.229   4.806 -0.2104 -0.0766  0.0487
 1375W        W20229   8.852  13.786  13.838  0.2552  0.2285  0.1471
 1376W        W20230   3.809   4.098   2.608 -0.0842 -0.1874  0.3161
 1377W        W20231   0.915  12.737   3.802 -0.0612 -0.1254 -0.0542
 1378W        W20232   9.945  12.525  12.750  0.0305  0.2001  0.1093
 1379W        W20233   0.423   3.867  13.729 -0.1108 -0.1811  0.0460
 1380W        W20234  10.699  14.417  12.019 -0.1428 -0.0270  0.0161
 1381W        W20235   0.224  12.115  13.214  0.1119  0.1292 -0.2476
 1382W        W20236   1.013  10.636   2.026 -0.1302 -0.2027 -0.3323
 1383W        W20237  15.688  11.799   2.917 -0.2956  0.0617  0.0002
 1384W        W20238  12.207  12.150   2.661 -0.0289  0.3517  0.1571
 1385W        W20239  11.408   4.175  15.008  0.1735  0.0742 -0.1235
 1386W        W20240  17.293   9.914  12.452 -0.1269 -0.1192 -0.0069
 1387W        W20241   6.927  11.429   2.071 -0.1245  0.1217 -0.2284
 1388W        W20242  17.110  12.632  13.370 -0.4521  0.0485  0.1917
 1389W        W20243   7.349   3.587  13.973  0.0926  0.0604 -0.1585
 1390W        W20244  11.468  13.156   5.007 -0.1086 -0.4036  0.2408
 1391W        W20245  15.695   5.197  12.857  0.0276  0.2866  0.0552
 1392W        W20246   5.724  14.484   1.799  0.3946 -0.0747  0.0314
 1393W        W20247  14.706   5.973  16.650 -0.2977  0.0295  0.0365
 1394W        W20248   3.100   3.332  15.063 -0.2417 -0.1657  0.2478
 1395W        W20249   7.204   8.370  15.660 -0.0205  0.1898  0.2047
 1396W        W20250   5.550  13.281  12.786 -0.2897  0.1400  0.1784
 1397W        W20251  16.169   9.995   3.678 -0.4627 -0.1875 -0.1352
 1398W        W20252  10.020   2.903  13.305  0.2185  0.2357 -0.2457
 1399W        W20253  13.471  14.884   2.706 -0.1223 -0.2271 -0.1445
 1400W        W20254   8.437   4.063   0.419  0.1757 -0.1585 -0.0786
 1401W        W20255   0.127   8.500  16.712 -0.2087  0.0738 -0.1904
 1402W        W20256   4.952   9.579   3.128  0.1207 -0.0565 -0.1027
 1403W        W20257   2.637   2.183  16.418  0.1210  0.2311 -0.1644
 1404W        W20258   9.147   2.402  13.510  0.0803 -0.2618 -0.0064
 1405W        W20259  10.084   7.755  13.669  0.0378 -0.0649  0.2188
 1406W        W20260   0.777  13.963  12.440 -0.0454 -0.0771 -0.1656
 1407W        W20261   0.618  14.133  13.927  0.2335 -0.1875  0.1638
 1408W        W20262   1.368  15.510  16.731 -0.0598  0.1540 -0.0228
 1409W        W20263   6.989   9.635  12.587  0.2512 -0.0730 -0.1736
 1410W        W20264  12.119   5.074   3.540  0.2313 -0.3067 -0.1016
 1411W        W20265  10.977   0.512   2.455  0.0415 -0.1967  0.2714
 1412W        W20266   0.069  16.929   0.906 -0.0488 -0.2015  0.1862
 1413W        W20267  13.189   9.658   0.673 -0.2598  0.4108  0.1564
 1414W        W20268   3.612   7.619  11.757 -0.0497 -0.0088  0.0282
 1415W        W20269   3.151   9.276  13.744  0.0514  0.0262 -0.3358
 1416W        W20270  11.825  14.354  16.598  0.4723  0.2504  0.0408
 1417W        W20271  17.161   2.567   0.173 -0.1610 -0.1752  0.1025
 1418W        W20272   9.196   5.458   4.360  0.1650  0.0648  0.1676
 1419W        W20273   0.750   0.539  16.687 -0.0640  0.0024 -0.2848
 1420W        W20274   4.972   2.710   4.525 -0.3178  0.2114 -0.0103
 1421W        W20275  10.275   2.486  12.409  0.0340  0.0421 -0.1440
 1422W        W20276  10.165   0.456  12.400  0.0333 -0.3859  0.3071
 1423W        W20277   5.249   0.610  15.216 -0.0064 -0.0792  0.1633
 1424W        W20278  13.411   4.412  13.266 -0.0178  0.2187 -0.0114
 1425W        W20279   3.463   0.837   0.994  0.2234  0.2885  0.0369
 1426W        W20280  17.596   5.220  16.252 -0.2685 -0.1560 -0.1501
 1427W        W20281   9.229  10.913  13.002  0.1990  0.4165  0.2886
 1428W        W20282   3.136  11.472   2.621 -0.0155  0.0377 -0.2431
 1429W        W20283  10.180   9.115  13.148 -0.3903  0.0546 -0.0707
 1430W        W20284  14.761   3.344   3.439 -0.0240  0.0798 -0.2798
 1431W        W20285   3.755  14.922   2.162  0.0438 -0.2053 -0.2446
 1432W        W20286  15.092   2.175  15.203  0.0433 -0.1888 -0.0416
 1433W        W20287   8.713   8.876   3.460  0.2169 -0.0837  0.0259
 1434W        W20288   7.819   0.068  13.365  0.0954 -0.0835 -0.1491
 1435W        W20289   4.631   9.699   4.344  0.2695 -0.1390 -0.0655
 1436W        W20290   4.802  14.124   1.862  0.2724 -0.3556  0.1057
 1437W        W20291   6.254  17.123  15.320  0.3357  0.1404  0.0821
 1438W        W20292   6.725  15.325  14.394 -0.3748 -0.0847 -0.0433
 1439W        W20293  12.222   9.020  16.808 -0.0628  0.3169  0.2082
 1440W        W20294   5.692   2.977   3.152  0.1700 -0.1216 -0.2944
 1441W        W20295  16.951  17.482   4.986  0.2090  0.0032 -0.0788
 1442W        W20296   5.052   7.409  14.646 -0.3441  0.1346 -0.3676
 1443W        W20297   9.704   3.488  16.461 -0.3803 -0.1159 -0.4129
 1444W        W20298   2.229   2.002   3.693  0.0292 -0.0097 -0.3868
 1445W        W20299  11.289   6.688  13.052 -0.2070 -0.3173 -0.2863
 1446W        W20300  15.074   0.643   2.321 -0.5028  0.3340 -0.1116
 1447W        W20301   1.454  13.912   2.670  0.0282 -0.2817 -0.0885
 1448W        W20302   3.382   6.919  16.761  0.3159 -0.1755  0.1821
 1449W        W20303  15.314  11.292  16.595 -0.5131 -0.2241 -0.0735
 1450W        W20304   3.182  16.023   1.566 -0.0583  0.0418 -0.2342
 1451W        W20305   4.133   2.214  14.049  0.0276 -0.0137  0.2617
 1452W        W20306  14.911   1.551  15.594 -0.1528  0.0208  0.0115
 1453W        W20307   9.574  10.234   1.202  0.2005  0.2229  0.0794
 1454W        W20308  14.186  10.535  12.730  0.0510  0.0340 -0.0657
 1455W        W20309  15.120   3.299   3.869 -0.0003  0.0752 -0.0170
 1456W        W20310   4.283   5.914   0.260 -0.0345 -0.1340  0.0898
 1457W        W20311  11.964   6.549   3.545  0.3395  0.0157  0.1064
 1458W        W20312  14.572   9.150  15.912  0.0530 -0.1817  0.2718
 1459W        W20313   0.037   2.512   1.035  0.1542 -0.0388 -0.1145
 1460W        W20314  15.458   8.051  16.332  0.1557 -0.4096  0.0152
 1461W        W20315  17.212   2.382   3.948  0.2661 -0.1218  0.1339
 1462W        W20316  10.269  16.027   5.518  0.0612  0.4890 -0.1167
 1463W        W20317  13.618  13.797   3.992 -0.3229 -0.0042 -0.0113
 1464W        W20318  16.732   0.110   4.105 -0.0622  0.0597  0.1442
 1465W        W20319  17.315   8.760   5.314 -0.0643  0.1342 -0.0237
 1466W        W20320   0.118   9.872   1.545  0.0797 -0.1393  0.2871
 1467W        W20321  10.897   3.432  16.374  0.2285  0.0415  0.1892
 1468W        W20322   2.738   3.267  15.562  0.1399 -0.1777 -0.0576
 1469W        W20323   5.047  12.505   3.514 -0.0070 -0.0746 -0.0416
 1470W        W20324  10.350   9.230  16.665  0.1783 -0.1009  0.0599
 1471W        W20325  10.648  11.738  15.446  0.3506  0.0470 -0.0425
 1472W        W20326   2.730   2.591  15.066  0.2153 -0.3214 -0.0590
 1473W        W20327   1.254   4.293   3.412 -0.0146  0.4873 -0.1543
 1474W        W20328   4.547  14.782  13.233  0.0305 -0.0480  0.1001
 1475W        W20329  15.626   0.780   4.254  0.2923  0.1321 -0.2483
 1476W        W20330   9.732   9.371  15.611  0.2337  0.0045  0.2698
 1477W        W20331  15.579  14.169   5.345 -0.1557  0.1068  0.2083
 1478W        W20332  12.693   6.418  13.207  0.1496  0.1501 -0.1581
 1479W        W20333   7.851   5.993   4.368  0.1521 -0.1725 -0.1858
 1480W        W20334   0.825   4.556  14.432 -0.0223  0.1821 -0.1360
 1481W        W20335  13.951   4.660   4.691 -0.1379  0.3405 -0.1140
 1482W        W20336  14.130   9.770   3.936  0.2050  0.0129 -0.0033
 1483W        W20337   7.372   7.026   3.428 -0.1849  0.0377  0.3123
 1484W        W20338   7.336  10.024  15.939 -0.1084 -0.0851 -0.1602
 1485W        W20339  11.068  12.291  14.351  0.0362 -0.0227 -0.0152
 1486W        W20340  11.599   3.246  13.743 -0.1284  0.1185 -0.0388
 1487W        W20341  16.985   2.610   2.861  0.2997  0.1847  0.1044
 1488W        W20342   2.504   4.853  16.226 -0.1312  0.0547 -0.0281
 1489W        W20343   1.315   8.536  11.886 -0.0997 -0.0836 -0.0173
 1490W        W20344  16.810  17.358  15.012 -0.0963 -0.0196 -0.0662
 1491W        W20345  15.798   2.380  11.928 -0.1192 -0.1455 -0.1398
 1492W        W20346   5.409  16.840   1.672 -0.1207 -0.1751 -0.0139
 1493W        W20347  11.845   4.254   1.632 -0.1985 -0.1083  0.1218
 1494W        W20348   5.305  14.956  12.642 -0.0578 -0.2005 -0.1556
 1495W        W20349   0.475  16.526  15.985 -0.0319 -0.0154 -0.0243
 1496W        W20350   9.561   8.556  13.359 -0.2465  0.0978 -0.0026
 1497W        W20351   9.254  13.738  16.619  0.1787 -0.0133 -0.0588
 1498W        W20352   9.577   1.337  14.504  0.0649  0.1521 -0.1092
 1499W        W20353  15.408   5.531   4.196 -0.0920 -0.0151  0.3524
 1500W        W20354   5.202  15.839  16.207  0.0496 -0.3320  0.0979
 1501W        W20355   3.905  12.317  13.124  0.0098 -0.1026  0.0340
 1502W        W20356   5.027   0.100   1.146 -0.2275 -0.4500 -0.1388
 1503W        W20357   2.685  15.609   0.074  0.2507 -0.0011 -0.2687
 1504W        W20358  10.787  16.105  14.024 -0.0885  0.1569 -0.1720
 1505W        W20359   8.129   1.037   3.807 -0.1884  0.0117  0.0024
 1506W        W20360  15.404  12.513  12.424 -0.2796  0.0414  0.1489
 1507W        W20361   5.243  16.989   2.188 -0.0581  0.1805 -0.2564
 1508W        W20362  13.165   3.660  12.853  0.1527 -0.3223  0.0191
 1509W        W20363   7.697   7.643  12.710  0.0854 -0.1551  0.0224
 1510W        W20364  17.494  11.213   2.564  0.1625  0.0277 -0.5936
 1511W        W20365   2.470   2.432   3.664 -0.0876  0.1257  0.0309
 1512W        W20366   2.762  16.537  13.072  0.0053 -0.1685 -0.0623
 1513W        W20367  11.545   5.418   3.024  0.0578 -0.3213 -0.0840
 1514W        W20368   2.588   3.908  12.063 -0.1019  0.0438  0.3982
 1515W        W20369  14.225   9.389   0.875  0.0470 -0.2139 -0.0934
 1516W        W20370   6.814   5.033   1.966  0.2169  0.0378 -0.2364
 1517W        W20371   0.022  11.119  16.952  0.2880  0.2178 -0.0547
 1518W        W20372  10.243   5.971   5.131 -0.1595  0.0704 -0.0123
 1519W        W20373   7.504  14.701   2.024 -0.0145 -0.1888 -0.2597
 1520W        W20374   4.136   5.266  13.348 -0.1381 -0.0769 -0.0569
 1521W        W20375  10.964  16.794   2.786  0.4415  0.2952 -0.1014
 1522W        W20376  10.497   9.643   2.226  0.0856  0.0653  0.2701
 1523W        W20377   0.410  10.058   1.923 -0.1318  0.1316  0.1433
 1524W        W20378  13.947  15.700  13.721 -0.0595  0.3152 -0.0419
 1525W        W20379   4.204  17.044  16.363 -0.0872  0.1111  0.0930
 1526W        W20380   1.324  17.524  13.838  0.0156 -0.2477 -0.0832
 1527W        W20381  15.884  12.351  13.165  0.1858  0.2393 -0.0621
 1528W        W20382  17.543   2.412   4.316  0.3282 -0.0498 -0.0673
 1529W        W20383   2.966   4.270   0.792 -0.0677  0.1692 -0.0570
 1530W        W20384  17.496   0.322  15.582  0.3707 -0.0664 -0.2886
 1531W        W20385   4.405  11.751  16.330  0.1400  0.1340 -0.0095
 1532W        W20386  15.246  14.225   2.589 -0.1696 -0.0178  0.1277
 1533W        W20387   4.666   2.101   5.270 -0.2827  0.0976 -0.0370
 1534W        W20388  12.363   8.065  16.701 -0.0343  0.0055  0.3020
 1535W        W20389   9.721   4.958   4.561  0.0169  0.0177 -0.0498
 1536W        W20390  10.191   8.638  13.057 -0.1615  0.4372  0.2660
 1537W        W20391  16.568   8.277   5.144  0.0321 -0.3486 -0.2224
 1538W        W20392   9.315  11.894  16.272  0.3032  0.0639 -0.1317
 1539W        W20393   5.569   7.573   4.332  0.0550 -0.1264  0.0134
 1540W        W20394   0.453   2.988   2.495 -0.2217 -0.0714 -0.1599
 1541W        W20395   7.584  11.104  15.812 -0.5147 -0.1946 -0.0031
 1542W        W20396  16.176  13.672  15.062 -0.2761 -0.3633 -0.1166
 1543W        W20397   1.218   7.390   1.848  0.1715 -0.0619 -0.1984
 1544W        W20398  11.197  16.387  14.096 -0.1029  0.2788 -0.0277
 1545W        W20399   6.512   1.094  16.308  0.0967 -0.0738 -0.3269
 1546W        W20400  11.391   2.251   4.137  0.2216 -0.1010  0.1831
 1547W        W20401   3.837  17.034   0.034  0.0099  0.0738  0.3605
 1548W        W20402  10.142   0.723   2.377  0.0996  0.0507  0.2191
 1549W        W20403  12.185   6.769   0.977 -0.1702 -0.0970 -0.1236
 1550W        W20404  16.140  10.756   6.419  0.5405  0.1497 -0.1039
 1551W        W20405  14.955   2.571   4.753  0.1768 -0.2945 -0.0101
 1552W        W20406   3.096   9.245  15.948  0.0328  0.1991  0.1378
 1553W        W20407   6.604   2.607  13.378 -0.0765  0.1895 -0.0154
 1554W        W20408   8.487   2.411   4.867  0.1182  0.0476 -0.2615
 1555W        W20409   7.893  15.505  13.270  0.0512  0.1198  0.0666
 1556W        W20410   1.003  14.959   3.670  0.0645 -0.1515  0.0655
 1557W        W20411   4.527   9.097  12.094  0.3690  0.1109  0.2093
 1558W        W20412   7.474   8.625   1.529 -0.0204 -0.2765 -0.1108
 1559W        W20413   9.421  12.308   1.474  0.0677  0.0799  0.3684
 1560W        W20414   7.915   0.224  15.628 -0.0514  0.1558 -0.0170
 1561W        W20415  12.106  16.041   1.766 -0.0706  0.0766  0.0284
 1562W        W20416  17.011   4.350   1.986 -0.0370 -0.2316  0.0914
 1563W        W20417  10.689   2.473  13.076 -0.3605 -0.1170  0.1012
 1564W        W20418  12.668   3.118  16.967 -0.0284  0.1319 -0.1694
 1565W        W20419   4.385  14.790  12.719  0.2893 -0.3123  0.4010
 1566W        W20420   9.161  13.911   1.332  0.0487 -0.0654  0.1759
 1567W        W20421   5.964  16.887  13.129  0.0672 -0.3640 -0.1364
 1568W        W20422   8.460   9.240  12.416 -0.2668  0.1259  0.1168
 1569W        W20423   2.346   5.558   0.910  0.3110  0.3413 -0.0523
 1570W        W20424   0.039   2.811   2.838 -0.0430 -0.0970 -0.0301
 1571W        W20425  15.712  13.070  17.152 -0.2504 -0.0013  0.3054
 1572W        W20426   1.711   2.457  11.947 -0.0796 -0.0764 -0.0452
 1573W        W20427   9.864   3.278  12.845 -0.1064  0.1405 -0.0570
 1574W        W20428   6.975   9.725   4.667  0.1521  0.3782  0.0079
 1575W        W20429   9.283   0.375   1.287  0.1157 -0.0685  0.0709
 1576W        W20430   2.316   6.671  13.909  0.2105  0.0694  0.0739
 1577W        W20431   1.672   8.469  14.308 -0.1420 -0.1536 -0.1309
 1578W        W20432   7.208   4.664   1.835 -0.1392 -0.1033  0.2265
 1579W        W20433   2.996   9.612  16.345  0.3723  0.1494  0.1351
 1580W        W20434  15.919  17.210  14.221  0.1540  0.1822 -0.1506
 1581W        W20435   6.924   6.045  14.256  0.0503  0.0674 -0.1416
 1582W        W20436  11.649   2.597  14.034 -0.0091 -0.0627  0.1828
 1583W        W20437   6.274  10.580   3.133  0.1327  0.1261  0.2871
 1584W        W20438   6.236   1.707  12.891  0.0847  0.0598  0.0207
 1585W        W20439  12.681   7.559  15.393 -0.0568  0.2561  0.0176
 1586W        W20440  12.400   6.186   2.172  0.1309 -0.3018 -0.2455
 1587W        W20441   5.260   2.924   0.446  0.2642 -0.0376 -0.2012
 1588W        W20442  12.712   9.714   4.037  0.1714  0.0855 -0.3186
 1589W        W20443  16.173   6.404  12.438  0.1002 -0.2300 -0.1108
 1590W        W20444   2.000   7.291  16.466 -0.1031  0.0963  0.2704
 1591W        W20445  14.564  11.178  12.434  0.1559  0.0422 -0.2017
 1592W        W20446   5.416   1.358  16.663 -0.2308  0.0291  0.0423
 1593W        W20447   0.714  12.686   4.247 -0.3266  0.1155  0.3659
 1594W        W20448   4.970  13.483   4.312 -0.0327 -0.2565  0.2713
 1595W        W20449  11.116  15.125  16.982  0.0381 -0.1141  0.2307
 1596W        W20450   4.318  15.367  16.693 -0.2338 -0.3211  0.0295
 1597W        W20451   7.864   6.175   3.793  0.1437 -0.0116 -0.2248
 1598W        W20452  10.963  11.890  16.404 -0.0458 -0.1931  0.1037
 1599W        W20453  11.578   9.216  11.381 -0.3053 -0.0951  0.0069
 1600W        W20454   7.807  17.085   2.923  0.1364 -0.0066 -0.0650
 1601W        W20455  12.497   8.344   5.595 -0.1192 -0.0174 -0.3118
 1602W        W20456   7.974  15.271  15.001  0.2796 -0.1060 -0.2566
 1603W        W20457  16.209   3.046   1.556 -0.0301 -0.1752 -0.0898
 1604W        W20458   5.484   4.494   1.122  0.0647  0.1227  0.3971
 1605W        W20459   4.990  14.014  14.918  0.0513 -0.0999  0.0119
 1606W        W20460   6.680   1.007  12.478 -0.0615 -0.0118 -0.0218
 1607W        W20461   9.866   7.479  12.566 -0.0020 -0.0033  0.0720
 1608W        W20462   8.858   9.116   4.461  0.0459  0.1468 -0.1293
 1609W        W20463   2.725   2.993  16.955 -0.2969  0.1204 -0.0045
 1610W        W20464  11.591  11.672  13.543 -0.3261  0.0180  0.3302
 1611W        W20465  14.776  15.133  12.223 -0.0505 -0.1242  0.0891
 1612W        W20466  14.630   1.833   2.197  0.1656  0.2449 -0.2053
 1613W        W20467  10.856  12.282  14.822 -0.2949  0.0831  0.2435
 1614W        W20468  13.514   3.039   1.667 -0.2468  0.0031  0.0351
 1615W        W20469   2.931   0.819   2.786 -0.1155 -0.2369  0.3611
 1616W        W20470   3.585  15.482  13.945 -0.1503  0.2859 -0.1228
 1617W        W20471  16.741  13.031  13.453  0.1400 -0.0928 -0.0315
 1618W        W20472   6.240   0.509  13.442 -0.0012  0.1635  0.2086
 1619W        W20473  14.315   3.469   3.557  0.0480 -0.0558  0.0082
 1620W        W20474   3.827   8.750  12.566 -0.1845  0.0629  0.1455
 1621W        W20475  17.105   1.228   3.323 -0.3150 -0.0927  0.1203
 1622W        W20476   3.208   0.919  16.575  0.1928  0.2440  0.0611
 1623W        W20477   5.030   2.331  15.497 -0.5137 -0.1021 -0.0291
 1624W        W20478   7.589  14.186   1.787  0.4249  0.1730 -0.0455
 1625W        W20479   5.934  10.518  13.603 -0.0652 -0.0488  0.2177
 1626W        W20480   5.643  17.198   0.602  0.2067  0.1824 -0.0347
 1627W        W20481  16.773   9.637  15.808 -0.2324 -0.1196  0.2110
 1628W        W20482  15.888  12.763  14.837 -0.3094  0.0289 -0.2520
 1629W        W20483   1.228  14.022   3.143  0.2746  0.2195 -0.1953
 1630W        W20484  15.070   7.868   0.095 -0.0738 -0.0964  0.1191
 1631W        W20485   2.525   5.031  15.592 -0.0260  0.0170  0.3415
 1632W        W20486   3.594   6.641  14.711 -0.0631 -0.2043  0.0743
 1633W        W20487  12.200   9.512   0.408  0.1116 -0.0377  0.0128
 1634W        W20488   7.093   9.264   1.358  0.1013 -0.0721  0.0970
 1635W        W20489   6.752   8.818  12.464  0.0145 -0.0800 -0.2464
 1636W        W20490   6.647  10.494   5.218  0.0614  0.0047 -0.0854
 1637W        W20491   0.272   2.314   2.750 -0.3494 -0.0270 -0.2544
 1638W        W20492  15.414   4.488  16.500 -0.2499 -0.0572 -0.0151
 1639W        W20493  12.919  12.484   2.237 -0.0057 -0.0311 -0.1525
 1640W        W20494   2.456  13.022  14.690  0.0467  0.0372 -0.2532
 1641W        W20495   4.228  14.456   0.375  0.0490  0.0120  0.0923
 1642W        W20496  10.814  10.763   4.572 -0.1740  0.0428  0.1642
 1643W        W20497  13.617  12.574   1.093  0.1583  0.0799  0.0739
 1644W        W20498   5.809  14.363   4.291 -0.2457  0.0880 -0.3297
 1645W        W20499   0.441   1.208   4.452 -0.2201  0.0981  0.0341
 1646W        W20500   2.962   3.063   1.829 -0.1155  0.0132 -0.0522
 1647W        W20501  16.188   4.766   2.322  0.1364  0.1672  0.2194
 1648W        W20502  17.288  12.325   2.785 -0.0723  0.1915  0.0923
 1649W        W20503   0.169  17.074   4.881  0.2617  0.1674 -0.1451
 1650W        W20504   1.312   7.357  13.322  0.1685  0.0378 -0.0473
 1651W        W20505  11.716  11.529  17.009  0.0549  0.0048  0.0519
 1652W        W20506   4.542  12.654   3.657 -0.1690  0.1372 -0.1215
 1653W        W20507   5.966   2.124   0.198 -0.0359  0.3294 -0.3806
 1654W        W20508  10.803  12.025   1.040 -0.0562  0.1421  0.1093
 1655W        W20509   2.435   0.601  15.542  0.0195  0.1991  0.1947
 1656W        W20510   9.067   3.385   3.726 -0.1873 -0.2250  0.1792
 1657W        W20511   7.967   2.588   0.134 -0.0208 -0.0153 -0.2604
 1658W        W20512  11.762  15.948  13.548 -0.0050  0.2854 -0.0286
 1659W        W20513   1.267   1.302   4.761 -0.1148  0.2745 -0.1145
 1660W        W20514   5.448   7.106  14.701  0.0842 -0.0274 -0.1646
 1661W        W20515   9.104  17.121   1.927  0.1724 -0.0676 -0.0979
 1662W        W20516   5.676  10.880  15.102  0.3950  0.0414  0.0084
 1663W        W20517  12.283  17.597  12.468  0.2216 -0.2133 -0.1241
 1664W        W20518   0.436   0.161  15.927  0.0636 -0.2301 -0.0253
 1665W        W20519   8.907   1.045   4.855  0.1105  0.1273 -0.0973
 1666W        W20520  13.075  15.251   2.556  0.0889 -0.3201 -0.0522
 1667W        W20521   1.059   1.658   3.760 -0.1686 -0.0149 -0.3954
 1668W        W20522   8.216   0.653   1.305 -0.1287 -0.0335 -0.0813
 1669W        W20523   5.100  13.144   0.709  0.0011 -0.3151  0.0762
 1670W        W20524  10.276   1.618  14.145 -0.0388  0.1488 -0.0757
 1671W        W20525  17.573   7.515   3.581 -0.2472  0.2864 -0.0497
 1672W        W20526   2.188  10.616  16.399 -0.1636  0.3724 -0.1791
 1673W        W20527   9.727   7.242   1.415  0.1680  0.1953  0.1558
 1674W        W20528  13.593  10.966   3.859 -0.0141 -0.0267 -0.1413
 1675W        W20529   9.549  11.003  13.329 -0.2500  0.0791  0.2678
 1676W        W20530   6.311  16.603   0.606  0.0504 -0.3435 -0.0604
 1677W        W20531  11.222  13.177  13.453  0.0434  0.0622  0.2522
 1678W        W20532  15.877  13.540  16.909 -0.1839  0.0461  0.0155
 1679W        W20533   7.088   7.760  14.977 -0.1693 -0.2211 -0.0142
 1680W        W20534  12.616   9.260   2.279  0.0485 -0.1014  0.0335
 1681W        W20535  13.897   4.869  12.535  0.2086  0.0004 -0.0107
 1682W        W20536  10.534   8.576  15.899  0.1125  0.2995  0.0053
 1683W        W20537  14.302   9.098   2.073 -0.1759 -0.0043 -0.1449
 1684W        W20538   1.389   1.486   0.478 -0.1242  0.2257  0.2367
 1685W        W20539   8.819   8.716   0.555  0.3218 -0.3227 -0.1114
 1686W        W20540   0.157   1.133   0.029 -0.0717  0.1914  0.1201
 1687W        W20541   9.567   8.395  15.730 -0.0149  0.3511  0.0522
 1688W        W20542  16.723   6.056   4.780 -0.0934  0.0075  0.1589
 1689W        W20543  12.577   6.481   1.173  0.0963 -0.1183 -0.4923
 1690W        W20544  13.890  10.503   5.063  0.2852 -0.0230  0.0390
 1691W        W20545  13.275   5.764   5.330 -0.0727  0.3081  0.1565
 1692W        W20546  10.950   8.299  16.240 -0.2214 -0.0285  0.0177
 1693W        W20547   7.682   7.620   1.633  0.4235  0.0336  0.1017
 1694W        W20548  11.538   1.345   3.618  0.0810 -0.1698  0.1440
 1695W        W20549   0.653   2.556   1.715  0.0004 -0.1985 -0.0219
 1696W        W20550   7.995   9.396  12.507  0.0101 -0.1641 -0.3699
 1697W        W20551  10.837   4.780  15.886  0.0664  0.0539 -0.0406
 1698W        W20552   0.894   0.020  16.975  0.1890 -0.2071 -0.0724
 1699W        W20553   3.094  13.491  15.834  0.0445 -0.0600 -0.0929
 1700W        W20554   2.091   4.057  13.027  0.1695 -0.0453 -0.0258
 1701W        W20555   9.443  16.727   3.873  0.2562 -0.1022  0.2191
 1702W        W20556  13.598  12.257  16.807  0.0812 -0.0787  0.0688
 1703W        W20557   0.230   4.298  17.191  0.2394  0.1125 -0.0409
 1704W        W20558   3.558  17.088  16.233  0.2662  0.0908 -0.2060
 1705W        W20559   9.767   3.319  12.333 -0.0948  0.0291  0.0394
 1706W        W20560   4.955  13.511   1.991  0.0645 -0.2418  0.1053
 1707W        W20561   5.911  14.985  15.078 -0.0910 -0.2876  0.1969
 1708W        W20562  10.258  17.371  15.521 -0.2422 -0.2917 -0.2688
 1709W        W20563   6.873   3.097   2.273 -0.5002 -0.1078  0.1110
 1710W        W20564  10.190   3.075   3.614 -0.0969 -0.1881  0.0042
 1711W        W20565   7.218  12.495   2.712  0.0424  0.0060  0.2626
 1712W        W20566   5.912   7.146   4.623 -0.1187  0.0918  0.2469
 1713W        W20567  13.727   5.596  15.287 -0.1315  0.2764 -0.0575
 1714W        W20568  15.450  12.234  12.899  0.0766  0.2201  0.1786
 1715W        W20569  11.499   3.036   3.988 -0.1786 -0.0730 -0.4501
 1716W        W20570  16.681   7.333   1.773  0.0773 -0.1613  0.0455
 1717W        W20571   3.979  11.376   6.251  0.2306 -0.4113 -0.0695
 1718W        W20572   5.179  15.670   5.018  0.1285  0.1854  0.1227
 1719W        W20573  13.415   3.454  16.719  0.0863 -0.5056  0.1119
 1720W        W20574  15.796  11.090  16.804  0.1720  0.0708  0.2090
 1721W        W20575   8.520   9.637  16.276 -0.2690  0.0886 -0.1192
 1722W        W20576  10.116   5.950  15.437 -0.4151 -0.4015  0.3042
 1723W        W20577   7.249   0.573   0.477 -0.0810 -0.3094  0.0129
 1724W        W20578   6.856  12.550  15.253  0.2193  0.0495 -0.0497
 1725W        W20579  13.927  16.989   1.405 -0.2675 -0.0075  0.4448
 1726W        W20580   2.401   8.357  16.060 -0.2416  0.3686  0.1059
 1727W        W20581  16.096   4.214  17.075 -0.3214  0.0391  0.0291
 1728W        W20582  15.914  12.791   4.747 -0.0531  0.0897 -0.3073
 1729W        W20583   3.945   7.485  12.557  0.0139 -0.0964 -0.2998
 1730W        W20584  13.817   8.485   4.480  0.0286 -0.1085 -0.0272
 1731W        W20585  10.776   1.187  16.022 -0.0308 -0.1209 -0.1947
 1732W        W20586  15.081  12.457  16.101 -0.0172 -0.0996 -0.1546
 1733W        W20587   6.934   5.877  14.750  0.1104 -0.3145  0.2044
 1734W        W20588  10.165   3.520   2.672  0.1704  0.0982  0.3571
 1735W        W20589   6.286   1.758   2.195 -0.1182 -0.0617  0.2408
 1736W        W20590   2.993  15.888  13.846 -0.1371 -0.1321 -0.0853
 1737W        W20591   5.402  10.767   3.033  0.1740 -0.3237 -0.1670
 1738W        W20592  16.672  10.849   0.021  0.4632  0.4695 -0.1101
 1739W        W20593  11.626  17.145   2.138 -0.1469 -0.1183 -0.3864
 1740W        W20594   1.176  14.065  13.949  0.1302  0.2447  0.1722
 1741W        W20595  12.101   1.001   0.242  0.1286  0.0668 -0.1302
 1742W        W20596  13.746  15.466   3.340 -0.1829 -0.1759 -0.0160
 1743W        W20597   1.244   9.699   2.257  0.0513  0.3138 -0.2392
 1744W        W20598   0.447  12.726   2.228 -0.1120 -0.0622 -0.0273
 1745W        W20599   8.657  15.230  15.645 -0.1039  0.1303  0.3219
 1746W        W20600  10.195   4.700   2.027 -0.4020  0.0616  0.0421
 1747W        W20601   4.980   3.652  14.300 -0.2179  0.0805 -0.0340
 1748W        W20602  16.886  16.399  12.459  0.1642 -0.0119  0.0042
 1749W        W20603   2.638   8.554   1.555 -0.0414  0.0799  0.3773
 1750W        W20604   9.281   1.594   3.544  0.0564 -0.1414 -0.1605
 1751W        W20605  14.712  16.883  13.836  0.2551  0.0041 -0.1279
 1752W        W20606  13.442   3.540   3.991  0.1075 -0.2762  0.0200
 1753W        W20607   0.037   1.598   2.119 -0.1553  0.1999 -0.1094
 1754W        W20608   2.150  12.906  13.278  0.2364  0.0283  0.0045
 1755W        W20609  17.202   7.922   4.297  0.0861  0.1904 -0.1197
 1756W        W20610   6.846   4.353  12.820 -0.4195  0.0132  0.2135
 1757W        W20611   9.783   1.997   4.481  0.0333 -0.1966 -0.0226
 1758W        W20612   4.574  16.390   1.889 -0.1108  0.0082  0.0124
 1759W        W20613   3.900   1.489  15.860 -0.2508 -0.1746 -0.2000
 1760W        W20614  15.190   4.343  12.856  0.0429  0.2627 -0.4300
 1761W        W20615  14.304   2.290   0.327  0.0504  0.2181 -0.2947
 1762W        W20616   5.243   6.239  13.291 -0.3276 -0.0482  0.0091
 1763W        W20617   1.076   1.830   1.705  0.0883 -0.4067  0.1419
 1764W        W20618   5.670   7.384  16.504 -0.0625 -0.0824 -0.0933
 1765W        W20619  16.486   4.234  11.935 -0.3730 -0.3368 -0.1701
 1766W        W20620   2.738  16.708   3.460  0.2333 -0.1192  0.3122
 1767W        W20621   4.506  13.766   2.703 -0.4100  0.0849 -0.0281
 1768W        W20622  13.520  15.698  15.862  0.0715  0.0979  0.3260
 1769W        W20623  15.680  17.458   2.450 -0.1532  0.1265 -0.4634
 1770W        W20624  13.874   2.481   0.180  0.0739 -0.1262  0.2027
 1771W        W20625   9.324  13.350   3.051  0.1266 -0.2718 -0.1538
 1772W        W20626  12.140   6.951   5.154 -0.0242  0.2212 -0.1518
 1773W        W20627   9.218   9.650   3.226  0.1457  0.0086 -0.3232
 1774W        W20628  10.305  12.313   0.210  0.3450  0.2652 -0.0733
 1775W        W20629   8.792   9.740   0.182 -0.0545  0.3108 -0.2093
 1776W        W20630   1.825   2.963   4.794 -0.0332  0.1537 -0.2407
 1777W        W20631   4.638   4.094  13.593  0.0744  0.0129 -0.1664
 1778W        W20632  16.183  13.691  13.774 -0.0828  0.1158  0.1277
 1779W        W20633  15.796   0.075  16.067  0.0516 -0.2236  0.2582
 1780W        W20634  11.463  14.332  16.129  0.0086  0.3180  0.1384
 1781W        W20635  10.459   5.574   0.667 -0.1363 -0.0020  0.3622
 1782W        W20636   6.635   4.091  13.956 -0.3768  0.2437 -0.0973
 1783W        W20637  11.751   6.764  14.197  0.0306  0.1164 -0.1362
 1784W        W20638   6.337   9.770  15.213  0.1077  0.4020  0.0812
 1785W        W20639  16.648  15.546  15.439  0.1439  0.0271 -0.0088
 1786W        W20640  14.264   6.387  13.867 -0.1611 -0.1538 -0.2189
 1787W        W20641   1.422  16.135  16.038 -0.3306  0.1125 -0.1626
 1788W        W20642   8.898  16.027  16.032  0.2673  0.1215 -0.1409
 1789W        W20643  12.636   9.337   0.160 -0.0266 -0.1456 -0.0361
 1790W        W20644   8.062  13.176   3.634 -0.0426  0.3385 -0.0310
 1791W        W20645   3.521  15.761  13.069 -0.1582  0.2044  0.3506
 1792W        W20646  12.137   6.429  13.817  0.2499 -0.3195  0.1655
 1793W        W20647  11.209   6.437  13.875  0.2992 -0.1325 -0.3580
 1794W        W20648  17.323  15.512  16.231  0.1966  0.0536  0.2883
 1795W        W20649  11.946   8.289   3.070  0.0202  0.1545 -0.0735
 1796W        W20650  12.409  17.236   4.736 -0.1941  0.1723  0.3425
 1797W        W20651   9.557  11.679   1.390  0.1021  0.1009 -0.1680
 1798W        W20652  15.063   3.236  12.072 -0.3896  0.0618  0.0832
 1799W        W20653   9.552   5.755  14.568  0.0292  0.0895 -0.1949
 1800W        W20654   0.086  15.375  12.443  0.0297  0.3108  0.1206
 1801W        W20655   5.296  13.452  11.889  0.0366  0.3240  0.0633
 1802W        W20656   0.282  11.387  15.964 -0.1196 -0.0413  0.1911
 1803W        W20657  15.796   8.929   2.573 -0.1215 -0.1871 -0.1258
 1804W        W20658   4.737  14.446  15.168 -0.0680  0.0431 -0.2771
 1805W        W20659   8.993   0.387  16.658 -0.1031 -0.1754  0.3314
 1806W        W20660  11.523  13.886  13.342 -0.4492 -0.1558  0.0013
 1807W        W20661  11.418   8.966  15.835 -0.0366 -0.1025  0.1008
 1808W        W20662   0.106  16.740  13.071  0.2111  0.1294 -0.0811
 1809W        W20663   5.644   9.309   3.570  0.1161 -0.1632 -0.0581
 1810W        W20664  10.758  15.227  12.444 -0.1274  0.0849 -0.2124
 1811W        W20665  13.471   7.489  12.592  0.4243 -0.0299  0.1188
 1812W        W20666   2.877   9.890  14.586 -0.1014 -0.2664 -0.2118
 1813W        W20667  12.966   4.548   0.429 -0.0187 -0.0763  0.1105
 1814W        W20668  12.911  13.470   3.555  0.0399 -0.2233  0.0175
 1815W        W20669   7.085  12.394  13.405  0.0433  0.1613 -0.1029
 1816W        W20670   7.105   4.939   3.080  0.2018 -0.2235  0.0247
 1817W        W20671   2.763   2.619   1.221 -0.2578  0.3554 -0.1254
 1818W        W20672  13.349  10.404   0.521 -0.0171  0.0674 -0.1464
 1819W        W20673   9.494   7.355  16.144  0.0532 -0.1412  0.0475
 1820W        W20674  13.108   1.805  17.114 -0.0866 -0.0776  0.1575
 1821W        W20675  12.997   7.596   3.272 -0.1402  0.1731  0.0672
 1822W        W20676   6.906  15.878  16.407  0.1708  0.0940 -0.1049
 1823W        W20677   7.919   7.381   2.002  0.4458 -0.1629 -0.3012
 1824W        W20678  13.646   9.536   0.881  0.0132  0.1574  0.2516
 1825W        W20679   4.485   5.727   3.457 -0.1770 -0.0763  0.4968
 1826W        W20680  17.540  13.989  15.847  0.0654 -0.3850  0.1261
 1827W        W20681   5.086   0.002  15.851  0.4136  0.1860  0.2376
 1828W        W20682   0.196  16.119   2.972  0.1377  0.1167 -0.2321
 1829W        W20683  14.757  16.979   5.255  0.1925 -0.0477  0.1409
 1830W        W20684  17.085   7.095  13.652 -0.0238  0.4025 -0.2492
 1831W        W20685   7.024   8.893  14.050  0.1800  0.0518  0.0846
 1832W        W20686  11.899   9.326   5.091 -0.2311 -0.1272  0.2335
 1833W        W20687   8.677  10.587   1.099 -0.0204 -0.1502 -0.0036
 1834W        W20688  16.441   0.060   3.203  0.0063 -0.2612 -0.0398
 1835W        W20689  11.347   1.690   5.476  0.1807  0.1546 -0.0578
 1836W        W20690   5.731  12.441  14.361 -0.3777 -0.2165  0.0447
 1837W        W20691   7.594  13.380   2.756  0.0415 -0.3273  0.1135
 1838W        W20692   1.516  11.791   0.453  0.0122  0.1371 -0.0170
 1839W        W20693   5.503  14.138   1.524  0.0831 -0.1233 -0.0876
 1840W        W20694   2.892  11.481   0.013  0.1912 -0.0426 -0.2660
 1841W        W20695   0.187   7.283  13.373  0.1155 -0.1393 -0.0142
 1842W        W20696  11.508   0.946  15.093 -0.0767 -0.0617  0.0831
 1843W        W20697   2.793   3.021   0.968  0.1650 -0.0842 -0.4258
 1844W        W20698   5.265   6.674  14.485 -0.1298  0.0173 -0.1634
 1845W        W20699  11.310  13.603   1.484  0.3789  0.3150 -0.1652
 1846W        W20700  13.105   4.130  13.730 -0.0030 -0.1246  0.1051
 1847W        W20701  11.337   9.683  12.518  0.0070 -0.1411 -0.0093
 1848W        W20702   3.443   6.802  15.651  0.2591  0.0836  0.0019
 1849W        W20703  16.627  16.178  14.486  0.1200  0.0187  0.1886
 1850W        W20704   5.714   8.300   1.259  0.0170  0.4591  0.0130
 1851W        W20705   2.364   2.818  10.890 -0.0261 -0.0507 -0.1475
 1852W        W20706   0.910   8.755   0.085 -0.1406 -0.0370 -0.2868
 1853W        W20707  15.040   9.105  16.111  0.3440 -0.1519  0.5018
 1854W        W20708   5.201   6.199   2.860  0.1370 -0.1030 -0.1899
 1855W        W20709   1.310   8.940  16.133  0.3363 -0.1158 -0.1170
 1856W        W20710   2.835  17.443  12.460  0.0664  0.1936  0.1663
 1857W        W20711   4.652  11.387  12.812  0.2576 -0.1453 -0.3578
 1858W        W20712  12.412  10.181   6.099 -0.0285  0.0168 -0.3630
 1859W        W20713  10.968   7.988  14.556 -0.1244  0.2046  0.1214
 1860W        W20714   7.557   4.982   3.384  0.1212  0.0176  0.0618
 1861W        W20715  17.291   8.481  16.987  0.0090  0.0601 -0.0140
 1862W        W20716  13.947   4.146   2.278 -0.0463  0.1331 -0.2590
 1863W        W20717   1.496   4.134  14.355  0.0054 -0.0882 -0.1418
 1864W        W20718   7.968   0.224  12.692  0.1757  0.0596 -0.0465
 1865W        W20719   4.227   7.513   1.755  0.1348  0.1188 -0.1392
 1866W        W20720  16.175   2.063  11.987 -0.0987  0.0681 -0.0563
 1867W        W20721  10.813  12.355   0.235  0.2817 -0.0965 -0.1392
 1868W        W20722  13.888  12.707   3.496  0.2314  0.1201  0.1272
 1869W        W20723   7.586  13.470   3.292  0.2018 -0.2506  0.2302
 1870W        W20724  16.083   6.923   0.125  0.0425  0.2635  0.0499
 1871W        W20725   4.253  11.964   0.442 -0.1361  0.1715  0.1167
 1872W        W20726  14.739   4.402   0.288 -0.3056 -0.1719  0.1241
 1873W        W20727   5.131   0.828   5.014 -0.3832  0.1286  0.1713
 1874W        W20728   1.983   1.394  15.313 -0.0913  0.3156 -0.1123
 1875W        W20729   1.545   3.235   3.363  0.0446  0.0768  0.0499
 1876W        W20730   3.828   9.142  14.772 -0.1533 -0.0504 -0.0531
 1877W        W20731   2.689  14.698   0.438  0.1046 -0.2622  0.1912
 1878W        W20732  14.786   1.474   0.902 -0.4718 -0.0517  0.0298
 1879W        W20733   2.537   5.264  14.772  0.0045  0.1439  0.4434
 1880W        W20734  15.620   1.520  17.239 -0.1722 -0.1235  0.0108
 1881W        W20735  15.257   3.350  15.297  0.1385  0.0814  0.0475
 1882W        W20736  12.869   6.931   4.523  0.0129  0.0072 -0.0899
 1883W        W20737  16.267   0.248  13.846 -0.0431  0.0317 -0.3961
 1884W        W20738   8.308   6.638  14.087  0.4414 -0.1104  0.5003
 1885W        W20739  15.789   2.485  16.662  0.2066 -0.2444 -0.1264
 1886W        W20740   9.769  11.255   1.277  0.3343  0.0576 -0.2593
 1887W        W20741   7.858   5.025   4.373  0.2094  0.0624 -0.2141
 1888W        W20742   7.718   2.272   2.257  0.0885 -0.1088 -0.0017
 1889W        W20743   6.348  13.259  14.718  0.1959 -0.1646  0.0928
 1890W        W20744   7.544   8.402  17.160  0.1662  0.3558 -0.1327
 1891W        W20745   1.193  15.797  13.115  0.0737 -0.2752 -0.0848
 1892W        W20746  10.932   5.649  14.142 -0.0165 -0.1229  0.3880
 1893W        W20747  13.144  13.487   0.264  0.0549 -0.0886  0.0617
 1894W        W20748   1.958  11.716   3.738 -0.0141  0.3321 -0.1515
 1895W        W20749   0.037  10.587  17.051  0.2039 -0.1914  0.1982
 1896W        W20750   1.047  17.156   1.901 -0.3100 -0.4184  0.2455
 1897W        W20751  10.230  12.825  17.084  0.2089  0.0044  0.4258
 1898W        W20752   6.537  17.249   5.156 -0.0417  0.1103  0.1066
 1899W        W20753   2.523  12.296  13.742 -0.1110  0.3391 -0.3335
 1900W        W20754   7.441  13.268   1.794  0.0709  0.0378 -0.0484
 1901W        W20755   6.934  13.083  12.822 -0.0022 -0.2811 -0.1890
 1902W        W20756   2.258  16.989  14.238  0.0021  0.0852 -0.4196
 1903W        W20757  11.904  11.374  11.673 -0.1338 -0.0052  0.1128
 1904W        W20758   6.089   6.588   3.763  0.2693 -0.0471  0.0496
 1905W        W20759   1.464   6.123  15.394 -0.0867 -0.0112  0.1519
 1906W        W20760   6.232   4.803  13.202 -0.0263  0.0360 -0.2238
 1907W        W20761  16.213  12.878   1.937 -0.0450 -0.0445 -0.4046
 1908W        W20762   4.339  10.769  17.144  0.1320 -0.1364 -0.1033
 1909W        W20763  15.758   1.525  16.372 -0.1306 -0.2392 -0.3628
 1910W        W20764   0.152  12.862  15.187  0.0117 -0.0522 -0.3211
 1911W        W20765  11.512   0.400   3.678  0.2956 -0.1467  0.0758
 1912W        W20766   7.722  15.354   2.661  0.0014  0.0665 -0.1951
 1913W        W20767   9.198  12.443   2.663 -0.4181  0.0889  0.0641
 1914W        W20768   7.696   0.726  14.643  0.2995 -0.0404  0.2307
 1915W        W20769  10.043   6.210  12.452  0.0958 -0.0712  0.1325
 1916W        W20770  11.976  13.668  14.818  0.0973 -0.1818  0.1262
 1917W        W20771  15.156   6.146   4.788 -0.3081 -0.2340 -0.1216
 1918W        W20772   8.845   6.233   1.193  0.0878  0.0199 -0.4208
 1919W        W20773   2.101   8.598  12.107  0.0453 -0.1652  0.3909
 1920W        W20774  13.821   3.082   4.690 -0.0473  0.2056  0.1687
 1921W        W20775  14.588   2.845   4.382  0.1368  0.5796  0.0842
 1922W        W20776  16.906  11.732  12.396  0.2989  0.2751  0.0354
 1923W        W20777  15.127   3.016  13.150  0.2470  0.0967 -0.0185
 1924W        W20778   6.752   4.808   1.484  0.0319  0.1577  0.0506
 1925W        W20779  10.699   8.298   0.431  0.0869 -0.0088 -0.0069
 1926W        W20780  12.624  14.760  11.582 -0.1585 -0.0016  0.1239
 1927W        W20781   2.146   4.784  12.318 -0.0116  0.0638  0.1886
 1928W        W20782   7.065  15.888  12.067 -0.2710 -0.0590 -0.0500
 1929W        W20783   4.957  13.201   5.189 -0.0075  0.2322 -0.4032
 1930W        W20784   7.577   1.483   5.707 -0.1657  0.0678 -0.1887
 1931W        W20785  11.470   0.644  13.140  0.0656  0.2841  0.1246
 1932W        W20786  12.728  10.733  13.285  0.4568 -0.0423  0.2514
 1933W        W20787   4.168  13.031  15.556  0.1546 -0.1083  0.1303
 1934W        W20788   8.047   6.022  17.146 -0.1469 -0.4414  0.3989
 1935W        W20789   7.589   6.459  16.117  0.0455 -0.0511 -0.2316
 1936W        W20790   1.547   9.770  12.202 -0.0114 -0.0722 -0.3991
 1937W        W20791  15.849  11.774  14.500 -0.0895  0.0794  0.1789
 1938W        W20792   5.630   2.434  13.887  0.1253  0.2159  0.0571
 1939W        W20793  12.552  15.253   0.562 -0.0623 -0.3701  0.0534
 1940W        W20794  16.929   9.137   6.313  0.1603 -0.1416  0.0750
 1941W        W20795  15.916  10.485   1.963 -0.2973 -0.0015  0.2986
 1942W        W20796  13.966   9.934  16.087 -0.1508 -0.0470  0.0826
 1943W        W20797   3.724   9.035   0.705 -0.2410  0.1809  0.0767
 1944W        W20798  12.734  13.843   0.906 -0.0220 -0.0117 -0.1420
 1945W        W20799  14.233  15.992  12.291 -0.2535  0.4313 -0.1048
 1946W        W20800  16.406   3.486   4.192  0.1896  0.0292 -0.1407
 1947W        W20801   6.540  12.506   3.588 -0.2622  0.3376  0.3010
 1948W        W20802   6.786   6.494  14.088  0.3007  0.1390 -0.0731
 1949W        W20803  10.551  13.200  16.946 -0.3481  0.0814 -0.1377
 1950W        W20804   4.786  16.414  13.548 -0.3784 -0.0617  0.2303
 1951W        W20805  10.315  17.151  15.962  0.1251 -0.1514  0.1563
 1952W        W20806   0.356   2.612   4.608 -0.1081  0.0653 -0.1586
 1953W        W20807  15.125  10.248   3.794 -0.2146  0.3314 -0.1339
 1954W        W20808  15.454  15.473  15.137 -0.0869  0.0202 -0.2030
 1955W        W20809  16.690   9.129   0.217  0.2248 -0.0475 -0.0854
 1956W        W20810   2.194   2.924   0.174 -0.2713  0.1103 -0.2007
 1957W        W20811   1.685   4.520  16.095 -0.1609 -0.0830 -0.1056
 1958W        W20812   3.837  14.336  14.192  0.2645  0.2282  0.2743
 1959W        W20813  11.915   2.756   0.957 -0.0283 -0.1001  0.2242
 1960W        W20814  11.307  12.588  12.548  0.1442  0.0550  0.1355
 1961W        W20815   7.747  17.224   3.858 -0.3081  0.0080  0.1200
 1962W        W20816   1.594   2.226  13.101 -0.0392 -0.1462 -0.0164
 1963W        W20817   0.542   4.953  14.303  0.0871 -0.2687  0.1528
 1964W        W20818   5.286   7.997  13.219 -0.0870 -0.1724  0.1980
 1965W        W20819   3.651  16.878   1.509  0.0221 -0.1546  0.0371
 1966W        W20820   4.938   2.118  13.165 -0.1223 -0.0755 -0.0425
 1967W        W20821  16.566  15.865   0.546  0.2665 -0.0541 -0.0950
 1968W        W20822  12.225   2.868  15.955  0.0868 -0.2048  0.1354
 1969W        W20823   3.238  11.480  14.545 -0.1484  0.2820  0.1541
 1970W        W20824   8.150   5.575  12.558 -0.0811  0.0996 -0.0601
 1971W        W20825  12.310   7.032  17.051  0.0515 -0.0775  0.2292
 1972W        W20826   0.857   4.722   3.198  0.1699 -0.2812 -0.1446
 1973W        W20827  13.127   5.780  11.943  0.0879  0.0860 -0.2796
 1974W        W20828  17.030  12.925   1.137 -0.1135 -0.0040  0.0407
 1975W        W20829   3.128   3.809   0.568 -0.1943 -0.4906  0.0661
 1976W        W20830  16.154  10.873   4.737  0.0826 -0.0929  0.1060
 1977W        W20831  12.403  13.737  13.128  0.2213 -0.0826  0.0133
 1978W        W20832  11.969   9.846   3.653  0.1890 -0.4032 -0.1655
 1979W        W20833   2.775   9.376  17.165  0.0268  0.1538 -0.0531
 1980W        W20834  14.363  12.461  15.513 -0.2213  0.0379 -0.0649
 1981W        W20835  11.190   9.562   2.201  0.1093 -0.1761  0.0147
 1982W        W20836   5.713   9.166  13.793 -0.0775 -0.0182 -0.1424
 1983W        W20837  11.169  13.078   0.877 -0.3928  0.2483  0.2776
 1984W        W20838   4.962   0.990  15.313  0.3107 -0.2179 -0.1010
 1985W        W20839  13.903  15.183  13.859  0.2434  0.0400  0.0874
 1986W        W20840   8.000   2.833  14.579  0.1842  0.4919  0.0328
 1987W        W20841   7.387  13.746  15.187 -0.2798  0.1405 -0.0161
 1988W        W20842  10.193   8.950   2.726 -0.3888  0.0280  0.2861
 1989W        W20843  15.686   5.083  15.182  0.0969 -0.0368 -0.3177
 1990W        W20844  14.672  15.687  16.937  0.0890 -0.1835 -0.0207
 1991W        W20845  14.215  12.944  13.225  0.2861 -0.0566  0.2047
 1992W        W20846   6.415  15.170  15.376  0.0464 -0.1569 -0.1519
 1993W        W20847  10.098   9.010   4.863 -0.0189 -0.1991 -0.1792
 1994W        W20848  12.254  16.712  13.939  0.2667 -0.2035 -0.1563
 1995W        W20849  12.384   9.746   5.097 -0.1690 -0.0893  0.0529
 1996W        W20850   3.453  17.211  14.022 -0.0723  0.2193 -0.0436
 1997W        W20851  11.555  12.117  13.294  0.0003 -0.0828  0.0932
 1998W        W20852  13.346   1.045   3.940  0.0518  0.1506  0.0124
 1999W        W20853   1.328   0.162  17.144 -0.4261  0.0638 -0.1353
 2000W        W20854  17.314   3.940   2.146  0.1030 -0.0860 -0.1008
 2001W        W20855   4.189   8.668  12.893 -0.0414 -0.3873 -0.1135
 2002W        W20856  13.592  13.640  12.588  0.0062 -0.0013 -0.0358
 2003W        W20857   6.940  12.044  14.573 -0.1327 -0.1505 -0.3295
 2004W        W20858   9.790   4.696  16.967 -0.2374  0.0898 -0.0047
 2005W        W20859   5.163   7.979   1.403 -0.3498  0.0103 -0.2113
 2006W        W20860  12.284   6.688  13.337 -0.2951  0.0304 -0.0511
 2007W        W20861   7.435   3.703   0.918 -0.0988 -0.3412 -0.1401
 2008W        W20862  15.538  13.249  16.709  0.1411  0.1073 -0.2333
 2009W        W20863  11.899  16.116  15.291  0.1971  0.1855  0.0286
 2010W        W20864   5.540   2.916   5.165 -0.0694 -0.0828 -0.0610
 2011W        W20865  15.062   0.295   0.020  0.0718  0.3334  0.1329
 2012W        W20866   0.405   3.749   5.517  0.0242  0.0080 -0.1546
 2013W        W20867  14.774   8.367   2.955  0.0754 -0.0591 -0.4425
 2014W        W20868   0.306  10.411   0.284 -0.0510  0.1371 -0.1431
 2015W        W20869   2.381   7.096   5.279  0.1816  0.3438 -0.0184
 2016W        W20870  14.138   8.816  14.032 -0.0005  0.0110 -0.1699
 2017W        W20871   0.451   5.551   6.194  0.0074  0.2301 -0.3920
 2018W        W20872  10.324   5.398   0.203 -0.2193 -0.2056 -0.0498
 2019W        W20873  15.869   8.452  12.073 -0.1155  0.1272 -0.1288
 2020W        W20874  11.152   6.702  14.836  0.0607  0.1294 -0.2109
 2021W        W20875  10.940   8.228   1.749  0.0022  0.2725 -0.2777
 2022W        W20876  14.677  14.977   3.706  0.1303  0.0781  0.0435
 2023W        W20877   9.029   7.953  13.402  0.0699 -0.0840  0.0664
 2024W        W20878   0.890   3.565   0.148  0.3827  0.1962  0.2508
 2025W        W20879  13.551  15.686   2.065 -0.1506 -0.0470 -0.0284
 2026W        W20880   0.832   8.306  11.641 -0.1444 -0.3871 -0.0960
 2027W        W20881   2.160   3.265   1.785  0.1366  0.1214 -0.4071
 2028W        W20882   1.079   2.316   1.598 -0.1813  0.0185 -0.0718
 2029W        W20883   2.142   3.448   0.257 -0.5729 -0.2012  0.0879
 2030W        W20884  12.498  12.829  15.981  0.0696  0.1697  0.3151
 2031W        W20885   9.471   7.023  14.210  0.2016 -0.0151 -0.1960
 2032W        W20886   3.328   6.654   1.345  0.1407  0.0286 -0.2604
 2033W        W20887   3.659   2.314  14.330  0.0782 -0.4053 -0.1233
 2034W        W20888   7.402  14.445   3.382 -0.1283 -0.1156 -0.1470
 2035W        W20889  15.498  12.422  13.469 -0.3635 -0.0496  0.1015
 2036W        W20890   4.169  16.169  14.707 -0.1814  0.1416  0.1671
 2037W        W20891  11.101   8.526   1.257 -0.0922 -0.0086  0.2878
 2038W        W20892   3.134  14.896   0.202  0.0385  0.1044 -0.0202
 2039W        W20893   0.694  13.193   4.277  0.0231  0.1967 -0.3187
 2040W        W20894   9.326  15.697  16.832 -0.2104 -0.0169  0.1853
 2041W        W20895  10.075  17.454   4.474  0.0145 -0.0618 -0.0529
 2042W        W20896  10.644  15.788   1.176 -0.1496  0.0687 -0.1053
 2043W        W20897   6.335  13.320  16.827 -0.1560  0.1920 -0.0667
 2044W        W20898  15.432   4.860   1.249 -0.5286  0.1639 -0.1710
 2045W        W20899   5.403   1.143   5.277 -0.2121  0.0330 -0.0978
 2046W        W20900   6.400   2.069  16.673  0.2793  0.1924 -0.1132
 2047W        W20901   2.499  10.652   3.803 -0.1589  0.2726  0.1932
 2048W        W20902  10.695  13.026  14.300  0.0150  0.1131 -0.0965
 2049W        W20903  11.745   1.871  13.334 -0.2884 -0.5029  0.2333
 2050W        W20904   7.963  11.576   4.360 -0.1831 -0.1437 -0.0942
 2051W        W20905   4.672   1.856  15.306  0.2681 -0.0074  0.0042
 2052W        W20906   9.249  10.465   0.275 -0.0244  0.3558  0.0026
 2053W        W20907   0.302   7.627   3.174 -0.1393  0.1100  0.2800
 2054W        W20908  15.824   6.636   1.544  0.0750  0.1092  0.4156
 2055W        W20909   9.842   7.822  14.103 -0.4760 -0.0636 -0.0718
 2056W        W20910  10.910   8.833  12.268 -0.1588  0.0322 -0.1931
 2057W        W20911  14.353   7.205  15.404 -0.1713  0.1443 -0.1273
 2058W        W20912   6.084   5.593  15.376  0.2095  0.1239 -0.0756
 2059W        W20913   4.785  10.022   2.955 -0.0849 -0.0463  0.1456
 2060W        W20914  15.934   4.987   1.969 -0.1286  0.1386 -0.0670
 2061W        W20915  16.450   6.237  12.111 -0.0248  0.0801 -0.2260
 2062W        W20916   8.970  10.743   2.414  0.1200  0.2697  0.0477
 2063W        W20917  13.400   6.320   0.766  0.1922  0.2563 -0.3279
 2064W        W20918  16.277   7.167   3.877 -0.0699  0.0377 -0.1372
 2065W        W20919   6.871   8.041  16.363 -0.3472  0.1437 -0.1672
 2066W        W20920   3.766   7.303  15.997 -0.0324 -0.1180  0.2381
 2067W        W20921  10.756  11.664   0.582 -0.2306  0.2752 -0.0421
 2068W        W20922  10.907   2.977   4.543 -0.0638 -0.0449  0.1579
 2069W        W20923  11.072  15.526  13.675 -0.2580  0.0385 -0.0063
 2070W        W20924   4.683  16.335  13.080 -0.1592 -0.0771  0.3121
 2071W        W20925   6.198   3.017   4.468  0.0741 -0.0361 -0.0270
 2072W        W20926   5.487   1.109   3.725 -0.5261 -0.0237 -0.4769
 2073W        W20927   2.783   4.794  14.898 -0.1562  0.0076  0.1560
 2074W        W20928  15.788   3.889  12.570 -0.1462  0.1427  0.0288
 2075W        W20929  16.392   1.041  14.541 -0.3706  0.1092 -0.1317
 2076W        W20930   1.843  17.366  13.915 -0.1255  0.1103 -0.1283
 2077W        W20931   5.596  16.730  16.551  0.0511 -0.2461  0.0853
 2078W        W20932   8.095  12.431  13.200  0.4257 -0.2323  0.0307
 2079W        W20933   9.835   1.432  14.020  0.1031 -0.1485 -0.1001
 2080W        W20934   4.581  10.318   1.721  0.2021  0.1423  0.1935
 2081W        W20935   4.163  12.079   4.856  0.0402  0.0708  0.0526
 2082W        W20936  16.078   6.137   2.497 -0.1145  0.0802 -0.1180
 2083W        W20937  12.035   5.950  15.542 -0.2640  0.0698 -0.2642
 2084W        W20938   1.483  14.636  13.183  0.1029  0.2291 -0.2186
 2085W        W20939   5.401  14.911   0.334 -0.3012 -0.2990  0.1763
 2086W        W20940  13.674   8.729  16.987 -0.1786 -0.3555  0.3451
 2087W        W20941   0.579  15.527   0.539  0.3468 -0.2603 -0.2754
 2088W        W20942  11.235   7.411  16.903 -0.0005  0.2066  0.0685
 2089W        W20943   2.243  13.889   2.974 -0.0979  0.1410  0.0211
 2090W        W20944  12.633   4.999   3.637  0.1919  0.1760 -0.0439
 2091W        W20945   0.626   0.887   4.909 -0.1610  0.0689  0.1934
 2092W        W20946  12.503   0.614  15.873 -0.4058 -0.1415  0.1217
 2093W        W20947   5.504   8.891   5.071  0.1711 -0.0433 -0.2066
 2094W        W20948   2.071   5.108  14.667  0.0316  0.1510  0.2546
 2095W        W20949  11.851   3.474  16.510  0.0186  0.0603  0.0726
 2096W        W20950  14.239  10.459  15.450 -0.0814  0.0065  0.2469
 2097W        W20951  15.534  12.259   4.869  0.0651  0.0347  0.3154
 2098W        W20952  12.146  10.789  15.617 -0.0277 -0.1157  0.0754
 2099W        W20953   4.114   4.681  16.017 -0.1199  0.0228 -0.1132
 2100W        W20954  17.472   3.528  13.245 -0.4487  0.1148 -0.0128
 2101W        W20955  13.924  16.247  16.839 -0.2742  0.0774 -0.3068
 2102W        W20956  13.599   9.914   4.359  0.0527 -0.0706  0.0930
 2103W        W20957   5.607  10.793  12.167  0.1327  0.2325  0.0780
 2104W        W20958   8.098   3.149   5.243 -0.1484  0.0570  0.2789
 2105W        W20959   1.491  12.922  16.204  0.2852 -0.0553 -0.1749
 2106W        W20960  13.141  11.063   2.020  0.2824  0.0401  0.1434
 2107W        W20961   2.216  12.073   4.060 -0.0983  0.0188  0.0978
 2108W        W20962  10.066  15.524   4.491  0.3374 -0.2773 -0.0561
 2109W        W20963   6.199   4.462  11.087  0.1776  0.1208  0.0614
 2110W        W20964  12.634   6.395  13.697  0.0617  0.4544  0.0836
 2111W        W20965   2.326  12.169   2.940 -0.0755 -0.1040  0.0060
 2112W        W20966   3.246   9.321   0.625  0.0808  0.0820  0.2266
 2113W        W20967   9.635  15.155   2.672 -0.1040  0.0921  0.1383
 2114W        W20968  17.217   5.395   4.670 -0.0157 -0.3302  0.1049
 2115W        W20969  13.309   7.204   4.517 -0.2420  0.1584 -0.1274
 2116W        W20970   6.372   5.337  13.146 -0.0813 -0.3858  0.0132
 2117W        W20971   0.921  15.599   2.658  0.1227  0.1390 -0.1302
 2118W        W20972   3.341   0.916  12.132  0.0274 -0.1177  0.2104
 2119W        W20973  17.094   6.308   1.017  0.0119 -0.1509  0.2581
 2120W        W20974   4.292   4.332  13.244  0.0975 -0.2299  0.1758
 2121W        W20975   6.361   7.211   1.698 -0.0877 -0.0114 -0.1495
 2122W        W20976  12.973  10.231  16.217 -0.0281 -0.0683 -0.1905
 2123W        W20977   1.959  12.596   4.460 -0.1304 -0.3798 -0.5222
 2124W        W20978   2.443   1.798  12.796  0.0994  0.2506  0.1087
 2125W        W20979   9.742   5.550   3.420  0.2614 -0.1923  0.2291
 2126W        W20980   1.567   4.070   2.069  0.1884  0.1310 -0.0928
 2127W        W20981   9.760   1.151   2.256  0.4323 -0.0069  0.1752
 2128W        W20982   7.612  10.493  13.615  0.3995  0.0595  0.0981
 2129W        W20983  14.939   2.553  13.168 -0.0309 -0.3155  0.2894
 2130W        W20984  14.079   1.371   4.082  0.0526 -0.4319 -0.1762
 2131W        W20985  14.994  14.757  12.529 -0.0246  0.3234  0.1037
 2132W        W20986   6.915   3.521  12.147 -0.0275  0.1522  0.1879
 2133W        W20987   6.450  12.460   4.862 -0.1007 -0.1096 -0.2870
 2134W        W20988   1.603  14.826  14.803  0.0045 -0.0099 -0.2223
 2135W        W20989   8.344   2.495  14.382 -0.0050  0.1114 -0.1675
 2136W        W20990   4.940   0.225  16.496  0.0177 -0.1258 -0.0836
 2137W        W20991   0.914  10.148  14.140  0.1973 -0.0563 -0.2683
 2138W        W20992   9.881  17.273  12.965  0.4446  0.1678 -0.0611
 2139W        W20993   4.492   0.204   2.036  0.0394 -0.0769  0.1254
 2140W        W20994  11.818   4.863  15.272 -0.0313  0.2550  0.0375
 2141W        W20995   1.478  14.711   4.988 -0.0454 -0.1051  0.1211
 2142W        W20996   7.627   0.336  15.136  0.0319  0.1098  0.1515
 2143W        W20997   0.119   2.676   2.323  0.0975 -0.0174 -0.1563
 2144W        W20998  14.284  17.361  16.051  0.1038 -0.3192  0.0775
 2145W        W20999  13.754   4.364   3.631  0.0995 -0.1119 -0.0804
 2146W        W21000   5.042   8.085  14.638  0.0395  0.2515  0.1541
 2147W        W21001  15.747   9.057   4.108 -0.0656  0.2527 -0.0597
 2148W        W21002   9.824  16.648   1.578  0.0310 -0.3367 -0.0601
 2149W        W21003  11.184   0.551  16.666 -0.1802  0.0080 -0.1554
 2150W        W21004  12.011   7.822   1.214  0.1836  0.1469 -0.0916
 2151W        W21005  15.136  14.320   2.092  0.5733 -0.2027 -0.0544
 2152W        W21006  10.436  10.923   3.452 -0.0407  0.1562  0.0343
 2153W        W21007  13.292   8.142   4.491 -0.2655 -0.0774 -0.0630
 2154W        W21008   2.570   6.853  15.740  0.2155  0.2082 -0.0748
 2155W        W21009  15.080  16.340   3.032 -0.1432  0.0333  0.4414
 2156W        W21010   2.651   9.247  14.122 -0.3258  0.0797  0.0406
 2157W        W21011   1.353  17.326  12.816 -0.0614 -0.0108  0.0580
 2158W        W21012   5.145   8.723  13.619  0.0192 -0.2981  0.0352
 2159W        W21013  16.834  16.001   2.572 -0.0663  0.0346 -0.0187
 2160W        W21014  17.200   6.665  15.051  0.2248  0.1981  0.0184
 2161W        W21015   3.628  10.897   2.046  0.0338  0.2546  0.1687
 2162W        W21016   6.191  11.987   0.895  0.1404 -0.1452 -0.0044
 2163W        W21017   7.429   0.935   0.110 -0.2491 -0.0855  0.0053
 2164W        W21018   4.614  13.082   0.523 -0.3480 -0.1267  0.0461
 2165W        W21019  13.536  15.016   3.304  0.2923 -0.0742 -0.1451
 2166W        W21020   6.653   7.663  15.217 -0.1329  0.2226 -0.3753
 2167W        W21021   8.944   4.088  15.557  0.0772  0.3763  0.1373
 2168W        W21022  11.113  13.188  15.016 -0.1268 -0.0128  0.0160
 2169W        W21023   0.229   3.325   0.131 -0.2241  0.1580  0.2731
 2170W        W21024   8.971   2.174  14.956  0.0859  0.1764 -0.2350
 2171W        W21025  16.731   6.594   2.092 -0.2830 -0.1865 -0.2831
 2172W        W21026   6.780  15.122   2.581  0.3224  0.2012  0.0384
 2173W        W21027  14.631   7.742   1.005  0.1302 -0.0707  0.0123
 2174W        W21028  15.106  15.313  16.729 -0.0050 -0.2134 -0.1454
 2175W        W21029  13.045  10.009  15.698 -0.4488  0.0899 -0.1050
 2176W        W21030   5.173   0.456  16.157 -0.0635  0.4490  0.0132
 2177W        W21031   3.236   9.489   5.568  0.0098 -0.0900 -0.0126
 2178W        W21032   8.467   7.628   1.850  0.6236  0.1122  0.0567
 2179W        W21033   2.812   9.586   0.810 -0.0624 -0.2998  0.3329
 2180W        W21034  14.806  12.126   2.684  0.0479  0.0867 -0.0069
 2181W        W21035   9.492   7.506  12.890 -0.1448 -0.0510  0.2261
 2182W        W21036  15.728   9.618   4.741 -0.0694 -0.2849 -0.1929
 2183W        W21037  15.091  12.616  13.150 -0.0534 -0.1302  0.0279
 2184W        W21038  14.835  11.447  16.434 -0.0989 -0.4795  0.1706
 2185W        W21039  12.854  13.070   1.386  0.1425  0.1424 -0.0963
 2186W        W21040  13.704  14.197   3.691  0.0816  0.0733 -0.4278
 2187W        W21041  10.602   8.117   2.551 -0.2441 -0.0658 -0.0891
 2188W        W21042  10.967   5.549   0.921 -0.2664  0.3658 -0.1345
 2189W        W21043  12.566   8.346   4.639 -0.3850 -0.0451 -0.2100
 2190W        W21044   9.699  16.805   0.629 -0.0612  0.0809 -0.0662
 2191W        W21045  16.432  16.087  12.194  0.2401  0.4711 -0.0086
 2192W        W21046  15.967  15.189   3.482  0.0043 -0.1151 -0.0267
 2193W        W21047   8.692   9.171  13.427 -0.3067  0.1393  0.3096
 2194W        W21048   2.349  11.802  17.174  0.0068  0.2387  0.1233
 2195W        W21049  11.542  16.140   4.961 -0.3504  0.1265  0.1630
 2196W        W21050   9.700  12.111  15.994 -0.0617 -0.1998  0.0451
 2197W        W21051   7.418   0.271   0.875 -0.0466 -0.0856 -0.0365
 2198W        W21052  14.788   0.268  13.862 -0.0291  0.0590 -0.0305
 2199W        W21053   4.116  12.045  15.433 -0.0286  0.1676  0.0549
 2200W        W21054   6.389  12.734  12.037  0.0845 -0.0943 -0.1543
 2201W        W21055  12.864   5.152  15.397  0.2466 -0.0988 -0.2137
 2202W        W21056   1.181  16.766   1.533 -0.1824  0.0960 -0.0942
 2203W        W21057   5.106   2.902  15.451 -0.1364  0.1053 -0.2698
 2204W        W21058   3.184   3.241  14.241  0.1340 -0.0308  0.1936
 2205W        W21059  11.469   4.177   2.673 -0.0736 -0.1321  0.0941
 2206W        W21060   9.874   8.930  13.541 -0.2432  0.0171 -0.0108
 2207W        W21061   9.325   6.866   2.883 -0.2983 -0.3532 -0.1230
 2208W        W21062  17.567   6.476   1.348  0.1224 -0.1435 -0.1431
 2209W        W21063  12.118   3.847   4.642 -0.0156  0.5956  0.3295
 2210W        W21064   9.771  12.068   1.761 -0.2124 -0.0463  0.0046
 2211W        W21065   6.423   4.465  16.771 -0.0226  0.1067  0.2639
 2212W        W21066  13.939   2.510  15.759 -0.1054  0.0383  0.1910
 2213W        W21067  12.802   6.258   2.577  0.3518  0.0476  0.1619
 2214W        W21068   9.994  10.841   2.543 -0.2600 -0.2361  0.0196
 2215W        W21069   9.412   3.243  13.889 -0.1490  0.0372  0.2040
 2216W        W21070  15.666   7.704   1.865  0.0740  0.0418  0.0347
 2217W        W21071  14.867   5.041   2.151 -0.1386 -0.2034 -0.0407
 2218W        W21072   7.882  10.597   0.252 -0.2122  0.2952  0.0175
 2219W        W21073   3.342   1.368  12.432  0.0396  0.0900  0.0600
 2220W        W21074   2.006   2.237   6.043 -0.2818  0.2166  0.2439
 2221W        W21075   9.761   8.126  13.632 -0.0132  0.1300 -0.0883
 2222W        W21076   0.427   4.324   1.040 -0.0548  0.2062  0.0074
 2223W        W21077  15.690  14.307  15.209 -0.0627  0.0925 -0.1101
 2224W        W21078  16.197   7.409   0.386 -0.2138  0.1673  0.3374
 2225W        W21079  13.673   9.077  12.334  0.0341  0.1386 -0.0252
 2226W        W21080  11.408   4.486   5.275  0.0574  0.1978 -0.0010
 2227W        W21081  12.039  14.972   2.036  0.2934 -0.2598  0.3558
 2228W        W21082   2.306   1.134   3.482 -0.0702  0.0946 -0.1652
 2229W        W21083  15.794  16.321   4.210 -0.1075 -0.0245 -0.0706
 2230W        W21084   9.745  14.442   4.468 -0.2370  0.0058  0.0552
 2231W        W21085  10.319   9.360   4.356 -0.0838 -0.0451 -0.1385
 2232W        W21086  16.315   9.209   0.967 -0.1077 -0.1894 -0.2373
 2233W        W21087   9.677   2.129  15.617  0.2252 -0.0305  0.0048
 2234W        W21088  16.714   9.585   4.588 -0.0760 -0.2283  0.1027
 2235W        W21089   1.244  11.319  13.465 -0.0153  0.0366  0.0186
 2236W        W21090   0.974   0.091   2.144  0.0713  0.0895 -0.2876
 2237W        W21091  14.035   3.988   0.385 -0.3487 -0.0664  0.0027
 2238W        W21092   2.280  12.727  13.762  0.1834 -0.1082  0.4840
 2239W        W21093   2.779  11.722   5.217 -0.2079  0.1203 -0.1633
 2240W        W21094   7.365   8.473   6.065  0.2882  0.1352  0.0760
 2241W        W21095   4.583   5.916  15.997 -0.2895  0.1358 -0.0854
 2242W        W21096   1.940  13.851  16.075  0.1372 -0.2828  0.1651
 2243W        W21097  11.267   7.114   4.154 -0.0866 -0.4169  0.3239
 2244W        W21098  15.116   1.975   4.566  0.3555  0.1161 -0.1076
 2245W        W21099   6.854  15.699   4.057  0.2340 -0.4524 -0.1936
 2246W        W21100   0.392   6.277   3.361  0.2322  0.0489 -0.0011
 2247W        W21101  11.267   7.975  15.962 -0.1266  0.0727  0.0081
 2248W        W21102  10.078   9.009  15.677 -0.0399  0.2696 -0.0108
 2249W        W21103   8.968   0.070   4.638 -0.0456 -0.2561  0.0086
 2250W        W21104   0.418   6.514  11.503  0.2016  0.3753  0.2333
 2251W        W21105   7.118   0.160   2.187  0.0227 -0.1016  0.3031
 2252W        W21106  14.541  13.950   3.372  0.1824  0.2233 -0.3408
 2253W        W21107   5.637  14.154   0.764  0.1452 -0.3652 -0.0262
 2254W        W21108  16.814  16.973   4.833 -0.3362 -0.0343  0.0995
 2255W        W21109   1.474  12.521   2.464 -0.2438  0.2511 -0.1962
 2256W        W21110   1.546  10.683   0.534 -0.0143 -0.4027  0.1172
 2257W        W21111   9.236  14.945   3.452  0.0074  0.2969  0.0512
 2258W        W21112   6.957  14.830  12.092 -0.1820 -0.0474 -0.1492
 2259W        W21113   1.031   4.040  13.562 -0.3014 -0.1808  0.0751
 2260W        W21114  14.010  13.301   1.129 -0.0961  0.3278 -0.2021
 2261W        W21115  16.669   4.294   0.435  0.0189 -0.0154  0.1447
 2262W        W21116   9.327   6.848  16.100  0.1776  0.1119  0.3131
 2263W        W21117  16.198   7.722  11.958 -0.0491 -0.0205  0.1794
 2264W        W21118   6.764   9.635   3.105  0.2651  0.1580  0.1995
 2265W        W21119  11.634   2.574   0.527 -0.0007 -0.3983  0.3121
 2266W        W21120  17.419   9.548  14.220 -0.0084 -0.2993 -0.1752
 2267W        W21121   5.452  14.018  14.033  0.1703  0.4096 -0.1393
 2268W        W21122  16.115  17.168   4.608  0.0683 -0.0193  0.4434
 2269W        W21123   4.710  15.706  15.944  0.0293 -0.0977  0.0334
 2270W        W21124  13.661  16.194  13.661  0.0465  0.2151 -0.4438
 2271W        W21125   6.611  16.235  15.079  0.2716 -0.0658 -0.5586
 2272W        W21126   1.066  13.875  17.047  0.4779 -0.2118 -0.1476
 2273W        W21127  12.620  13.378  15.306  0.0624  0.0237  0.0873
 2274W        W21128   6.115  13.808  12.202  0.4101  0.1318  0.0322
 2275W        W21129   2.941   2.541  16.115 -0.1247  0.3021 -0.1210
 2276W        W21130  14.495  12.187   4.010  0.0592 -0.0929 -0.2821
 2277W        W21131  14.458   5.495   4.468 -0.1516 -0.1352  0.3390
 2278W        W21132  11.376   8.283   3.187  0.1699  0.0258  0.1222
 2279W        W21133  12.973   5.319   3.392  0.0197  0.1564 -0.2613
 2280W        W21134   9.582   7.582   1.733  0.0334  0.2402  0.1146
 2281W        W21135   7.806   9.796  13.361  0.0079  0.1035  0.0040
 2282W        W21136   1.342  16.835   2.957 -0.1897 -0.3410 -0.1234
 2283W        W21137   5.359   6.789  15.502 -0.0132 -0.1522 -0.2138
 2284W        W21138  10.376  13.256   3.425 -0.2757 -0.0018 -0.2341
 2285W        W21139  12.877   8.643   5.716 -0.3191 -0.2668  0.0436
 2286W        W21140   3.654   5.776   4.069 -0.2240 -0.0739 -0.1757
 2287W        W21141   0.664   9.665   4.522 -0.1113 -0.0525 -0.0759
 2288W        W21142   7.794  12.965  14.829 -0.0236  0.2994 -0.0961
 2289W        W21143   6.230   9.169  15.343 -0.2234 -0.2872  0.4533
 2290W        W21144  13.580   3.558  14.356 -0.0828 -0.2185 -0.1888
 2291W        W21145   2.073   8.477  14.583 -0.0070 -0.2093 -0.2019
 2292W        W21146  10.077   5.135   4.856  0.0572  0.0252 -0.1610
 2293W        W21147  10.327  16.271  13.808  0.1984  0.0536  0.0246
 2294W        W21148   9.538  15.906  12.727 -0.0635  0.2437 -0.0655
 2295W        W21149   7.998   4.989  14.739 -0.0546  0.1155  0.4011
 2296W        W21150  17.048   8.199   0.690  0.0971 -0.3133 -0.0337
 2297W        W21151   5.330  13.016  16.997  0.1503 -0.0564  0.4530
 2298W        W21152  17.119  15.786  15.481 -0.0600 -0.1152 -0.0715
 2299W        W21153  12.617  12.301   0.794 -0.0540  0.1129 -0.0231
 2300W        W21154  17.049   6.456   4.862 -0.1700  0.0196  0.2454
 2301W        W21155   3.876   6.594   1.896  0.3968  0.0753  0.1150
 2302W        W21156   1.100   0.397   2.721 -0.3060  0.0439 -0.2808
 2303W        W21157   1.114   9.231   2.531 -0.3353  0.2822 -0.2455
 2304W        W21158  14.229   4.792   1.576 -0.1685 -0.3044 -0.2711
 2305W        W21159   6.651  14.564   1.499 -0.1022  0.1076  0.0970
 2306W        W21160  14.630  12.650   4.888  0.0627 -0.0793 -0.0520
 2307W        W21161   0.765   2.202   3.168  0.2009 -0.2835  0.1097
 2308W        W21162  13.530  10.326   4.701 -0.0686 -0.1140 -0.2235
 2309W        W21163   1.783   8.055   3.638 -0.0709  0.0428 -0.1686
 2310W        W21164   7.662  13.607  14.335 -0.0747 -0.3763 -0.2015
 2311W        W21165   5.555   2.925   3.844  0.1401 -0.3120 -0.1046
 2312W        W21166  11.067  13.600  12.363 -0.0621 -0.2785 -0.1272
 2313W        W21167   3.574   9.179   3.367  0.1176 -0.1406  0.2587
 2314W        W21168  11.303   6.801  11.441  0.2511  0.0843 -0.0704
 2315W        W21169   6.459  16.877  13.829  0.1939  0.3021 -0.1404
 2316W        W21170  13.170  15.984   1.948  0.0631  0.0856  0.2694
 2317W        W21171  12.200  14.622  13.980  0.0552  0.3661 -0.2713
 2318W        W21172   9.372  11.166  12.590 -0.0580 -0.1482 -0.1964
 2319W        W21173  16.423   4.446   1.358  0.0923 -0.1743  0.0127
 2320W        W21174  11.725   9.704  16.196  0.0080  0.1473 -0.2004
 2321W        W21175   9.304   8.259  12.668  0.0183  0.0513 -0.0814
 2322W        W21176  14.783  12.085  13.712 -0.2451 -0.1537 -0.0328
 2323W        W21177   8.264   7.878  11.270  0.3134  0.0774  0.0838
 2324W        W21178  14.625  15.482   1.011  0.1853 -0.1312 -0.0747
 2325W        W21179   7.126   0.128   1.619 -0.1244  0.2490 -0.2298
 2326W        W21180  14.201   9.336   4.436  0.0251 -0.1421  0.0594
 2327W        W21181   5.206  11.464   2.415  0.0833  0.0456  0.3404
 2328W        W21182   2.059   2.228  15.029  0.3246 -0.2723 -0.0201
 2329W        W21183  16.896  11.831  13.917  0.1480 -0.0339 -0.1706
 2330W        W21184  16.931   9.635   1.668  0.0273 -0.0663 -0.0649
 2331W        W21185   4.096   4.071  12.473 -0.0887  0.0626 -0.0737
 2332W        W21186  16.578  15.188  12.596  0.0496  0.2843  0.1427
 2333W        W21187   5.336   5.837   0.855  0.1595  0.1365 -0.0941
 2334W        W21188   6.955   9.109   3.279 -0.1407 -0.1940  0.1418
 2335W        W21189   6.126  10.669  14.895  0.4186 -0.0146 -0.0167
 2336W        W21190   4.301   5.857   4.968 -0.0790 -0.1925  0.1145
 2337W        W21191  14.361  16.283   3.784  0.0504 -0.0117 -0.2576
 2338W        W21192  10.200  10.896   0.319 -0.4530  0.1726 -0.1242
 2339W        W21193   9.982   0.194  13.537 -0.0596  0.1002  0.0343
 2340W        W21194  16.592   7.497   4.097 -0.0936 -0.0830  0.4112
 2341W        W21195  12.226   4.168   2.397  0.0583 -0.1195  0.0669
 2342W        W21196   4.357   0.386   5.142 -0.2887 -0.1443 -0.3463
 2343W        W21197   1.934   5.657  12.792  0.1974 -0.2196  0.0958
 2344W        W21198  11.486  13.076   2.171 -0.1629 -0.0520  0.0279
 2345W        W21199  12.701  13.641   4.366 -0.1005  0.2278  0.1898
 2346W        W21200  14.491   6.995   2.801 -0.0672 -0.1830 -0.0285
 2347W        W21201  14.450   1.495  14.136 -0.2781  0.1464  0.1274
 2348W        W21202  11.114   6.640   0.917  0.4215 -0.0115  0.0082
 2349W        W21203   2.005  13.516  13.637  0.2775 -0.1513  0.1586
 2350W        W21204  13.017   1.727   1.585  0.0327 -0.1803 -0.1492
 2351W        W21205  13.290  10.696  13.301 -0.0491 -0.3675 -0.2179
 2352W        W21206   5.285  17.117  15.652  0.0220  0.5009 -0.0331
 2353W        W21207   6.348  17.429  16.541 -0.3474 -0.0705  0.3039
 2354W        W21208  14.652  13.946   0.868  0.1263  0.2589  0.3366
 2355W        W21209  16.754   9.271  13.567 -0.1858  0.0439  0.1322
 2356W        W21210   0.176   5.557  15.904  0.4655  0.0610  0.1427
 2357W        W21211   6.479   9.239  13.027  0.0876  0.0049 -0.0710
 2358W        W21212   4.266  13.665  12.690 -0.2268  0.1301  0.0186
 2359W        W21213  12.601   1.601  13.326 -0.3363 -0.4275  0.1480
 2360W        W21214   6.971  16.828   3.038 -0.1916 -0.1599  0.0764
 2361W        W21215   0.207  11.890  16.283  0.0249 -0.1954  0.1437
 2362W        W21216   2.579   2.861  13.031  0.0111  0.2030  0.0362
 2363W        W21217   3.718  13.865  16.450  0.2338 -0.0392  0.1140
 2364W        W21218  16.406   9.529   1.416 -0.1219 -0.0537  0.2939
 2365W        W21219  13.089   4.414   2.173 -0.2634  0.0555 -0.0428
 2366W        W21220   6.735   6.027   3.439  0.0654  0.1301 -0.1164
 2367W        W21221   1.287  13.288   5.558  0.0447  0.0203 -0.1985
 2368W        W21222  15.673   4.528  16.995  0.3706  0.0481  0.0238
 2369W        W21223  11.524   5.554   4.539 -0.0862  0.2568  0.1193
 2370W        W21224   0.429  15.485  15.603 -0.0948 -0.1906 -0.0002
 2371W        W21225   8.832  14.682  14.416  0.1054  0.0981  0.0835
 2372W        W21226  16.860   3.352  16.352 -0.0127  0.2719  0.0025
 2373W        W21227   7.896  16.093  16.272 -0.1425 -0.0514  0.1118
 2374W        W21228  12.675  16.896   0.409  0.1612  0.2321 -0.1203
 2375W        W21229  15.474  11.699  12.623  0.1729 -0.2446  0.3358
 2376W        W21230   6.340   7.337  14.953 -0.1267  0.1948  0.1132
 2377W        W21231   6.920   3.561   3.015  0.1116 -0.1603  0.3322
 2378W        W21232  16.583  13.366  13.808  0.0839 -0.1642  0.2745
 2379W        W21233   7.482   5.901   4.039  0.0506 -0.2930  0.0582
 2380W        W21234  11.055   5.739   4.769  0.2896 -0.0724 -0.3389
 2381W        W21235   7.034  11.854  13.387  0.0192  0.2270 -0.0847
 2382W        W21236  17.023  12.376  16.158 -0.0509 -0.2535 -0.0887
 2383W        W21237  17.236   8.584  14.540  0.4047  0.0008 -0.0026
 2384W        W21238  14.218   8.124  12.918 -0.0169 -0.1029  0.2383
 2385W        W21239  11.285  10.814   3.433  0.2411 -0.0910 -0.0670
 2386W        W21240   5.433  13.912   1.128 -0.0719  0.1208  0.2900
 2387W        W21241  11.322  14.655  12.125  0.2165  0.4169 -0.0499
 2388W        W21242  11.446  11.434  15.700  0.1096 -0.2688 -0.1803
 2389W        W21243   4.441   1.962   1.609 -0.0225  0.0824  0.1235
 2390W        W21244   7.231   7.150   1.503 -0.0504 -0.0682  0.0549
 2391W        W21245  15.285  13.341  12.221  0.0880  0.2009  0.0936
 2392W        W21246  10.312   0.293  14.523 -0.0668  0.0264 -0.2467
 2393W        W21247   7.270   4.346   0.948 -0.1808  0.3137 -0.2161
 2394W        W21248  17.557   8.193   0.520 -0.0144  0.0949  0.2598
 2395W        W21249   3.752   1.139  17.235  0.0909 -0.0404 -0.0743
 2396W        W21250   7.374  17.404  12.148  0.0387 -0.0684  0.3606
 2397W        W21251  16.677   4.316   0.962  0.0088  0.1577 -0.0092
 2398W        W21252   4.222  10.426  12.436 -0.0132 -0.1792 -0.0701
 2399W        W21253   4.953   8.508  12.311 -0.0238  0.1320  0.0976
 2400W        W21254   6.846  12.128  15.061 -0.2555 -0.0968  0.0522
 2401W        W21255   0.841   9.134  12.784 -0.0504  0.1702  0.0830
 2402W        W21256  13.192   9.293   2.453 -0.0285  0.1407  0.2170
 2403W        W21257  14.674  12.441  12.021  0.0006  0.1197 -0.4130
 2404W        W21258   6.124   2.462  14.136 -0.0056  0.3177 -0.1034
 2405W        W21259  15.848  11.644  16.951  0.3160  0.1297  0.2260
 2406W        W21260  11.506  15.637  13.960 -0.0825  0.2385 -0.2405
 2407W        W21261   6.481   0.923   4.403  0.0819  0.0033  0.0953
 2408W        W21262  10.004   2.728   2.149 -0.0498  0.2374 -0.0696
 2409W        W21263   3.246  17.104  14.480  0.1302  0.0571  0.0003
 2410W        W21264  13.086   4.113  16.287 -0.3470 -0.0048 -0.2906
 2411W        W21265   1.740   5.205  15.750  0.3344 -0.1247 -0.0116
 2412W        W21266  10.702   2.733  15.029 -0.0284  0.0421  0.0228
 2413W        W21267  10.820   5.946   0.695 -0.2262 -0.3627 -0.1833
 2414W        W21268  14.136  16.733   3.607  0.1746  0.0043  0.0869
 2415W        W21269  14.159   4.722  12.909  0.0379  0.1845  0.0062
 2416W        W21270   3.960   7.917  15.391  0.3605 -0.3785  0.1352
 2417W        W21271   7.962   5.984  12.109  0.0305  0.0940  0.1806
 2418W        W21272   7.486  13.914  12.900  0.0488 -0.0154 -0.0112
 2419W        W21273   4.574  12.403   5.625  0.1326  0.0405  0.0681
 2420W        W21274   0.420   8.860   1.096 -0.1063 -0.1109 -0.4729
 2421W        W21275   3.375  13.163  17.109 -0.2417  0.0396  0.1754
 2422W        W21276   5.623   3.292  14.534  0.1161  0.1561  0.0040
 2423W        W21277   9.095   7.507  15.705 -0.1371 -0.5783  0.0904
 2424W        W21278   4.515   9.450   0.428 -0.0261  0.0259  0.0427
 2425W        W21279   1.258   6.310  15.826  0.0415 -0.0678 -0.1517
 2426W        W21280   2.662   9.007   0.961 -0.2382 -0.2002 -0.2121
 2427W        W21281  11.576   4.075  13.451  0.3072  0.1815 -0.0341
 2428W        W21282   1.841  13.562  16.431  0.0166  0.0632 -0.2517
 2429W        W21283  17.112   2.048   0.341 -0.0499 -0.0594  0.0291
 2430W        W21284   9.336   6.456  15.785  0.3645 -0.0382  0.2615
 2431W        W21285   1.716   3.465  14.692 -0.1870 -0.0902 -0.1851
 2432W        W21286   2.458  14.798   3.396  0.1488 -0.0770  0.2079
 2433W        W21287  11.097  10.171  14.224  0.3084  0.2373  0.0383
 2434W        W21288   6.742   2.749  12.452 -0.0521  0.4110 -0.1578
 2435W        W21289   4.366  17.164   3.758  0.0042 -0.4069 -0.1576
 2436W        W21290   8.256  16.848  11.402 -0.1764 -0.1350  0.0525
 2437W        W21291   8.527  14.924  13.213  0.0122 -0.2378  0.2794
 2438W        W21292   9.174  11.010   3.653 -0.1841  0.0794  0.0506
 2439W        W21293  11.896  12.808   4.211 -0.1279 -0.1101  0.0485
 2440W        W21294  12.154   7.483  12.334  0.2487  0.2182  0.0344
 2441W        W21295   7.203  14.116  13.711 -0.0400  0.2556  0.1044
 2442W        W21296   6.503   0.861   0.097 -0.0381 -0.0499 -0.0429
 2443W        W21297   5.334   9.823  14.417  0.3204  0.1031 -0.0568
 2444W        W21298   1.348   8.970  12.709  0.0620  0.1630 -0.0201
 2445W        W21299   7.711   2.566  13.328  0.3510 -0.1028  0.1063
 2446W        W21300   3.920   8.468   4.446 -0.0345 -0.8447  0.0947
 2447W        W21301  15.518   2.583   2.382 -0.0958  0.1037  0.0100
 2448W        W21302  14.259  13.333   2.681  0.1817  0.0755  0.4802
 2449W        W21303  11.806   3.251  12.349 -0.1696  0.0105  0.0611
 2450W        W21304   7.151   9.728  15.043  0.1676  0.1549 -0.3337
 2451W        W21305  15.551   9.592  12.432 -0.0358  0.2679 -0.1712
 2452W        W21306  12.809   0.873  14.815 -0.2491 -0.1823  0.0725
 2453W        W21307   4.402   5.900  15.491  0.2255  0.0145  0.1302
 2454W        W21308   2.783   9.794  15.753  0.1031 -0.3799  0.1587
 2455W        W21309   5.732   0.969   4.164 -0.0312  0.0835 -0.3283
 2456W        W21310   1.283  11.381   2.702  0.0956 -0.0256 -0.2361
 2457W        W21311  11.219   6.267  13.313 -0.1139  0.1297  0.0219
 2458W        W21312  14.888   5.435  15.038  0.2417 -0.3980  0.3200
 2459W        W21313   1.933   0.495   2.668 -0.0559  0.2359 -0.0108
 2460W        W21314  10.159  15.114  11.625  0.1722 -0.0681  0.1895
 2461W        W21315  15.788   6.492   0.295  0.1894 -0.0217 -0.0139
 2462W        W21316   9.956   5.143  16.687 -0.0083  0.2564  0.0108
 2463W        W21317  10.285   4.484   5.479 -0.0117  0.2693  0.2718
 2464W        W21318   2.582   4.836  12.702  0.0650 -0.1553 -0.1190
 2465W        W21319   4.332  15.295   3.509 -0.0825  0.0746  0.0704
 2466W        W21320  13.841   6.307   0.529  0.1784  0.1617  0.2127
 2467W        W21321  15.115  15.615   1.066 -0.2753 -0.1572  0.2459
 2468W        W21322  15.860  17.557  14.691 -0.1042  0.3303  0.1095
 2469W        W21323   0.387   3.757  12.237  0.2453  0.0826  0.1096
 2470W        W21324  11.324  12.676  16.514  0.0935 -0.1806  0.0683
 2471W        W21325   3.153   2.319   6.043  0.0203  0.1775 -0.0041
 2472W        W21326  16.288   9.221  12.887  0.1428 -0.0040  0.4347
 2473W        W21327  15.511   8.469   2.926  0.0048  0.2628  0.0700
 2474W        W21328  14.634   4.099  14.316  0.1471  0.1767 -0.1062
 2475W        W21329   1.981   8.585   0.136  0.0595 -0.0997  0.2062
 2476W        W21330   3.891   1.465  14.875  0.1534 -0.0851 -0.3697
 2477W        W21331   0.528  11.737  16.671  0.0128  0.2603 -0.0667
 2478W        W21332  17.176  11.604  14.935 -0.2912 -0.1414 -0.1189
 2479W        W21333   9.542  17.552  13.571 -0.4674 -0.1525 -0.3165
 2480W        W21334   7.198   0.142   4.811 -0.0815 -0.0843 -0.1438
 2481W        W21335   6.940  17.329   1.438 -0.0095  0.1414  0.0292
 2482W        W21336   5.240   8.410   3.363  0.1270 -0.0902 -0.1679
 2483W        W21337   1.000   0.984   2.774 -0.0122  0.1206  0.0147
 2484W        W21338  14.883  12.990   3.908  0.3173  0.0758 -0.1607
 2485W        W21339   8.556   9.179   4.005 -0.1746 -0.0047 -0.0813
 2486W        W21340  11.436   3.305   4.499 -0.1739  0.0917 -0.1398
 2487W        W21341  12.357  13.465   0.675 -0.0581  0.4181  0.1266
 2488W        W21342  13.289  13.062   0.529  0.2833  0.0911 -0.1001
 2489W        W21343   8.980  15.665   1.972  0.1541 -0.1183 -0.1648
 2490W        W21344   9.518  10.701   1.024 -0.0289  0.2482 -0.0573
 2491W        W21345  16.093   7.102  12.987  0.0473  0.0674  0.0002
 2492W        W21346  12.106  14.134  14.540  0.2690  0.0668 -0.0371
 2493W        W21347  17.413   1.375  13.251 -0.0482  0.3165  0.2113
 2494W        W21348   7.391   8.459   4.877 -0.0103 -0.0010 -0.0353
 2495W        W21349  14.927   8.875   3.291  0.2726  0.1598  0.1811
 2496W        W21350   4.639   8.722  14.584 -0.2428 -0.0347 -0.0851
 2497W        W21351  15.227   0.926   0.766  0.3365 -0.0094 -0.0756
 2498W        W21352   4.959  12.973   1.131 -0.0616 -0.0270 -0.0162
 2499W        W21353   5.487  11.743   4.913 -0.1235 -0.0613  0.2767
 2500W        W21354  15.975  14.876   4.056 -0.1852 -0.2736 -0.1645
 2501W        W21355  15.933   9.122  13.269 -0.1390  0.0505  0.1230
 2502W        W21356   7.753   5.111   0.990  0.2699 -0.2300  0.2575
 2503W        W21357   5.330   9.593  14.946 -0.2232 -0.0483 -0.0801
 2504W        W21358  17.016  10.366  12.169  0.0946 -0.1543 -0.3454
 2505W        W21359  14.700   8.547   1.005 -0.1351 -0.1324  0.4045
 2506W        W21360   1.126   7.774  16.567 -0.0405 -0.2498 -0.2956
 2507W        W21361   1.210  12.421   0.925 -0.1516 -0.1192 -0.0678
 2508W        W21362   5.584   7.491   5.023  0.2375 -0.2873  0.0501
 2509W        W21363   1.968   3.950  16.603  0.0631 -0.0142 -0.0295
 2510W        W21364   7.123  15.125  16.305 -0.1806  0.0837 -0.2454
 2511W        W21365   8.472   1.671   4.120  0.4148 -0.0846  0.0508
 2512W        W21366   7.003   7.486  16.926  0.0299  0.4751 -0.1910
 2513W        W21367  11.143  16.418  12.313  0.1078 -0.1381 -0.1349
 2514W        W21368   7.596   3.064   1.786 -0.4605  0.0584  0.2432
 2515W        W21369   4.165  14.892   0.613 -0.3881  0.1553 -0.2252
 2516W        W21370   4.851   4.759  12.952 -0.0834  0.4646 -0.1159
 2517W        W21371   6.272  15.658  12.540  0.1462 -0.0467  0.4236
 2518W        W21372  16.483   6.232   4.270  0.0554 -0.1711 -0.1490
 2519W        W21373   8.489   0.788  13.790 -0.2370 -0.2709  0.0217
 2520W        W21374  15.415   5.315  17.014  0.1665 -0.0452  0.0639
 2521W        W21375  12.511  14.429  12.435 -0.2100 -0.0732  0.0611
 2522W        W21376   8.813   3.892   2.841 -0.0837 -0.0614  0.0250
 2523W        W21377   3.958  14.894   3.337  0.2700  0.0222 -0.1514
 2524W        W21378  13.543   4.577   2.680 -0.1613 -0.1382  0.0440
 2525W        W21379  14.545  17.030   2.241 -0.1799 -0.3573 -0.3173
 2526W        W21380  15.196  11.162  14.016 -0.1188 -0.1009 -0.4579
 2527W        W21381  16.899   6.245   0.268 -0.0203  0.0787  0.0609
 2528W        W21382   7.055   0.136  14.903 -0.0580 -0.0258 -0.1357
 2529W        W21383  16.498   7.468  12.909  0.0145  0.0536  0.0155
 2530W        W21384  10.681   6.003   4.917 -0.1144  0.2313  0.0233
 2531W        W21385  12.042   3.726  11.796  0.3739 -0.2939  0.1434
 2532W        W21386   1.851  15.037   0.017  0.1134  0.1655 -0.0301
 2533W        W21387  11.383  17.151   0.138  0.1515 -0.2612  0.0760
 2534W        W21388  12.796  10.801  12.708 -0.1077 -0.0077 -0.3730
 2535W        W21389   4.538   6.684   4.268  0.1982 -0.1499  0.0627
 2536W        W21390   4.983   3.754   1.917 -0.0191  0.0779 -0.0370
 2537W        W21391   2.960   7.726  16.776  0.0445 -0.2011 -0.0853
 2538W        W21392  13.958   8.716   4.910 -0.1305  0.0053 -0.3348
 2539W        W21393  10.488  10.698   2.227 -0.1531 -0.2668  0.1892
 2540W        W21394  12.186  16.322   1.214  0.0754 -0.0428 -0.0518
 2541W        W21395   6.545   4.721   2.270 -0.0861  0.0067 -0.0003
 2542W        W21396  10.349  17.009  15.164 -0.1453 -0.0343  0.3457
 2543W        W21397   4.923   7.457   3.769  0.2241 -0.0937 -0.0278
 2544W        W21398   4.942  16.253  16.078  0.1440 -0.0982 -0.1150
 2545W        W21399   0.404  12.538  12.528  0.1000 -0.0530  0.0823
 2546W        W21400  17.069   4.623  16.889  0.1976  0.0556 -0.3782
 2547W        W21401   3.857   6.956   3.651 -0.0343 -0.2665 -0.2704
 2548W        W21402  14.065   9.999  15.621 -0.0890  0.0519  0.0205
 2549W        W21403   1.916   7.721   2.410  0.1184 -0.0190 -0.0860
 2550W        W21404   9.777   5.113   1.893 -0.2669  0.1282  0.0458
 2551W        W21405   3.120  16.239  12.860  0.1125  0.2093  0.0051
 2552W        W21406  15.639  12.461   2.237 -0.1944  0.1570 -0.0312
 2553W        W21407  10.467  14.569   3.829  0.0929  0.2825 -0.2448
 2554W        W21408   8.538  10.292   3.103  0.1120 -0.1564  0.1113
 2555W        W21409   9.012  14.781  17.108  0.1697  0.2127 -0.0067
 2556W        W21410  16.487   2.477  14.476 -0.2500  0.0765  0.0521
 2557W        W21411   5.854   3.840   2.145 -0.0689  0.0596 -0.3117
 2558W        W21412   9.798  17.229  15.915 -0.0030  0.0767  0.0889
 2559W        W21413   0.598   2.149  17.063  0.0365  0.2835 -0.2329
 2560W        W21414  12.330   0.777  13.274  0.1294  0.0317 -0.0206
 2561W        W21415   8.242  10.549  14.651 -0.0711  0.1368  0.1385
 2562W        W21416  11.275   6.564  14.348  0.5366  0.1398  0.0249
 2563W        W21417  13.824  13.460   2.952  0.0834 -0.0862  0.0428
 2564W        W21418   7.225   4.559   2.784 -0.3276 -0.1319 -0.0812
 2565W        W21419   5.731  10.941   1.758 -0.0723 -0.1954 -0.2910
 2566W        W21420  12.442   1.986   0.439  0.0252  0.2658 -0.1417
 2567W        W21421   4.589  11.669   4.869  0.1494  0.0393 -0.4505
 2568W        W21422  11.240  16.223  14.606  0.3236 -0.1329 -0.1899
 2569W        W21423   7.147  16.326  12.474  0.0790 -0.1807 -0.0361
 2570W        W21424   1.457   5.757   1.591 -0.0775  0.0273 -0.0100
 2571W        W21425   6.936   9.617   2.386  0.0896 -0.2009 -0.0689
 2572W        W21426   8.296  12.658  14.566  0.1350  0.0526  0.1766
 2573W        W21427   4.026   1.826  14.400 -0.0818  0.0399 -0.0401
 2574W        W21428  14.805  13.173  12.474 -0.0072 -0.1513  0.1767
 2575W        W21429   4.453   5.874  13.536 -0.2019 -0.0378 -0.0532
 2576W        W21430  11.264   1.259   0.640 -0.1263 -0.0711  0.1016
 2577W        W21431   8.184   2.043  13.429 -0.2492  0.2405  0.0578
 2578W        W21432  12.051  15.912  15.772 -0.1513  0.0066  0.0134
 2579W        W21433   6.526   4.933   5.033 -0.0525 -0.4007  0.0025
 2580W        W21434   8.147   2.508  14.986 -0.0138  0.0775 -0.0461
 2581W        W21435   9.166  10.049  12.319 -0.0343 -0.0406  0.0466
 2582W        W21436  15.083  14.953  14.274  0.0299 -0.3549  0.4182
 2583W        W21437   6.452  10.984   5.230  0.2185  0.1559 -0.1319
 2584W        W21438  13.769   5.354  16.073 -0.2037  0.1636  0.0456
 2585W        W21439  11.182   2.956   3.109  0.2834  0.0740  0.1154
 2586W        W21440  13.004  12.388   3.761  0.1217 -0.0144 -0.0391
 2587W        W21441   7.089   5.859   2.895 -0.0631  0.2095  0.0317
 2588W        W21442   0.710  12.044   3.051  0.0060 -0.1213  0.2474
 2589W        W21443  15.444   7.123   1.206 -0.1323 -0.0468  0.1360
 2590W        W21444  17.576  16.086  12.492 -0.0851  0.3091 -0.1284
 2591W        W21445  14.383  10.577   0.858 -0.0570 -0.0543 -0.2341
 2592W        W21446  16.995  13.527  12.220 -0.1309 -0.3320  0.1325
 2593W        W21447   9.760  10.123   5.620 -0.1939  0.0032  0.1199
 2594W        W21448   5.032   6.198   1.047  0.0305 -0.1057  0.2772
 2595W        W21449   8.012   2.347  12.382  0.0698  0.0512  0.1169
 2596W        W21450   5.965   8.280   3.911  0.1401 -0.1489 -0.3400
 2597W        W21451  17.291   1.686   0.705  0.0817  0.2373  0.0947
 2598W        W21452   1.362  16.620   1.068 -0.0250  0.1233  0.0282
 2599W        W21453  10.057   9.201   3.614  0.1638 -0.2407 -0.2851
 2600W        W21454   4.116   3.636   1.058 -0.1571 -0.1641  0.3688
 2601W        W21455   4.877  15.456  15.442 -0.0436  0.2102 -0.0580
 2602W        W21456   8.318   8.053  12.290 -0.0156 -0.0096  0.2114
 2603W        W21457   7.415   1.689  15.421 -0.0420 -0.2302  0.1863
 2604W        W21458  14.745   6.821   1.546  0.0406  0.1305  0.1057
 2605W        W21459   2.641  11.009   1.518  0.0290 -0.1448  0.1653
 2606W        W21460   4.456  11.100   2.259  0.1926 -0.0597 -0.0324
 2607W        W21461   1.225  10.587  16.774  0.1353 -0.1734  0.1667
 2608W        W21462  12.450   6.149  16.918  0.0229 -0.2314 -0.0072
 2609W        W21463   1.884   3.938  15.262  0.2734  0.1029  0.1437
 2610W        W21464   4.595  14.886   3.155  0.2521 -0.0382 -0.2444
 2611W        W21465  16.062  15.103   2.224 -0.0564  0.2424 -0.1661
 2612W        W21466   7.644   7.984  15.789 -0.0384 -0.0686  0.2001
 2613W        W21467   5.720  16.762  12.346  0.1134 -0.0843  0.2130
 2614W        W21468  12.888   3.879   5.058 -0.1530 -0.2240 -0.0036
 2615W        W21469   2.560   3.041   1.512 -0.1160 -0.1235  0.0993
 2616W        W21470  15.129  16.587   0.807  0.0561 -0.0937 -0.1151
 2617W        W21471  12.389   7.854   5.159 -0.0932  0.0918 -0.1150
 2618W        W21472   0.760   6.608   5.223  0.1044 -0.0571  0.0270
 2619W        W21473  15.499  11.534   1.365  0.2247 -0.0304 -0.0779
 2620W        W21474   2.875  13.662   2.431  0.2689 -0.1687  0.2010
 2621W        W21475   9.435   3.890   2.077 -0.0474  0.1235 -0.1386
 2622W        W21476  10.322  10.734  13.387 -0.1378  0.0555  0.1410
 2623W        W21477   2.350   6.267   4.738 -0.1024  0.2614  0.0504
 2624W        W21478  15.461  10.622   0.140  0.2527 -0.1868  0.0770
 2625W        W21479  17.276   9.563  16.790  0.0586 -0.0051  0.1094
 2626W        W21480   6.848   8.205   3.480 -0.2137 -0.1260  0.0731
 2627W        W21481  13.143  12.307  15.782  0.0480 -0.0245 -0.1241
 2628W        W21482   4.248   4.087  15.669 -0.2490 -0.0827  0.1493
 2629W        W21483   1.399  16.391   1.790 -0.1404 -0.3775  0.0387
 2630W        W21484   8.679  12.945   1.422 -0.1513  0.0769  0.2278
 2631W        W21485   0.488   7.918  13.091  0.0704 -0.0680 -0.2892
 2632W        W21486  11.855   0.944   2.967  0.0391  0.0880  0.0191
 2633W        W21487  10.005   0.646   2.902 -0.2333  0.3635 -0.2553
 2634W        W21488   5.552   2.223  17.213 -0.3542 -0.0536 -0.0723
 2635W        W21489   9.778  13.700  15.179 -0.0477 -0.1463 -0.1947
 2636W        W21490  16.304  17.491  14.921 -0.1027 -0.0116 -0.1852
 2637W        W21491   8.199   1.804   0.956 -0.1561  0.0554  0.1737
 2638W        W21492   6.272  10.904  12.268  0.2082 -0.0690  0.0051
 2639W        W21493   0.183   2.746  14.851 -0.2865  0.2345  0.2049
 2640W        W21494  10.995   4.608   0.453 -0.4307  0.0670 -0.0732
 2641W        W21495   1.334   8.434  13.046 -0.0583  0.3762 -0.0855
 2642W        W21496  12.797  16.525  13.136 -0.3050 -0.2839  0.0902
 2643W        W21497  14.229   3.585   0.607  0.1079  0.1316 -0.2164
 2644W        W21498  14.800  15.955   3.853  0.1456 -0.2417  0.0396
 2645W        W21499   9.278   5.789  13.344  0.1963  0.1581  0.0631
 2646W        W21500  11.826   3.668   1.563 -0.3024  0.0511  0.0950
 2647W        W21501   2.095   3.093   2.393 -0.1240 -0.0275 -0.1562
 2648W        W21502   4.610   9.979  16.808 -0.1140  0.1992 -0.1142
 2649W        W21503   5.275  12.932  16.107 -0.0543 -0.0508 -0.2417
 2650W        W21504   3.090  13.615   3.782 -0.0713  0.1752  0.1918
 2651W        W21505  14.324   7.136  12.515  0.0548 -0.1488 -0.1611
 2652W        W21506   4.372   7.873  12.179  0.2888  0.0048  0.1670
 2653W        W21507  10.270   0.811   0.361  0.2080 -0.0669 -0.2528
 2654W        W21508  10.122   4.575  14.489 -0.0374 -0.1262 -0.0292
 2655W        W21509   1.473  14.229   5.116 -0.2600  0.1577  0.2098
 2656W        W21510   3.230   0.385   1.140  0.2129  0.0080 -0.3177
 2657W        W21511  11.914  16.357  14.708 -0.2035 -0.1410  0.1893
 2658W        W21512  15.219   5.995  13.580 -0.1706  0.0143 -0.0420
 2659W        W21513  15.797   6.784  15.394  0.1523  0.1728  0.1400
 2660W        W21514  13.873  11.720  15.702  0.0040  0.4167  0.1278
 2661W        W21515   3.075  11.638  12.684  0.0390 -0.0922 -0.0842
 2662W        W21516   8.861  17.539  15.607  0.0110 -0.1004 -0.0698
 2663W        W21517  16.284  12.344   1.091  0.3817  0.4411 -0.1950
 2664W        W21518   8.925  16.799  12.651 -0.0723 -0.1151  0.1587
 2665W        W21519   1.582  16.542  14.075 -0.0999 -0.0294 -0.0333
 2666W        W21520   4.338  16.595  13.519 -0.2328  0.0680  0.1349
 2667W        W21521   0.974  14.189  15.239  0.1278 -0.0379 -0.0638
 2668W        W21522   8.652   0.764  12.900 -0.0659 -0.2143  0.2605
 2669W        W21523   9.850  13.682   3.706  0.1329  0.3452 -0.0747
 2670W        W21524   2.700  16.331   3.033  0.0338 -0.1032 -0.0650
 2671W        W21525  10.687  16.274   5.418 -0.2614  0.0279  0.0867
 2672W        W21526   4.381   5.749   1.887  0.2586 -0.2072 -0.3020
 2673W        W21527   7.831   7.350  14.615  0.1418 -0.2640 -0.3694
 2674W        W21528   2.468  15.614  15.362  0.0952  0.0142  0.0014
 2675W        W21529   8.222  11.965   5.869 -0.0440 -0.2617  0.1317
 2676W        W21530  11.602   4.980  12.311 -0.0319 -0.2133 -0.4444
 2677W        W21531   5.750  16.007  15.166 -0.1925  0.0018  0.5212
 2678W        W21532   3.573   0.454   0.590 -0.1035 -0.0606  0.0149
 2679W        W21533  16.793   9.906   1.230  0.0076  0.2114 -0.4490
 2680W        W21534  17.171  17.527  16.892 -0.0255 -0.1513 -0.3857
 2681W        W21535   3.127   7.397  12.506  0.0289  0.0196  0.3426
 2682W        W21536  16.251   4.257   2.803  0.0626  0.2254  0.2395
 2683W        W21537  12.377  17.001   1.629 -0.2114 -0.0660  0.1248
 2684W        W21538   6.000   1.694   4.351 -0.1466 -0.2878  0.1578
 2685W        W21539  13.277   3.006   3.968  0.2982 -0.0875 -0.3593
 2686W        W21540   7.492   5.254   4.611 -0.1157 -0.2978 -0.1095
 2687W        W21541   9.831   6.931  15.184  0.0865  0.0026  0.0252
 2688W        W21542   4.025  13.502   2.503 -0.3516 -0.1428 -0.1313
 2689W        W21543  12.299   1.020   3.208 -0.0628  0.2868  0.1102
 2690W        W21544   0.133  13.362   1.243 -0.0800 -0.1002  0.0567
 2691W        W21545   3.707   1.788  13.192  0.0234  0.1639  0.3862
 2692W        W21546  16.365   5.135  11.535  0.1615  0.3716  0.1353
 2693W        W21547   1.372  16.064   0.820  0.1826  0.1468  0.0583
 2694W        W21548   2.213   6.147  14.909  0.1609  0.2848 -0.1640
 2695W        W21549   2.206   9.481  16.287 -0.1784  0.1259  0.1113
 2696W        W21550  11.053   7.936  16.575  0.0007 -0.2796  0.1031
 2697W        W21551   5.284   0.714   4.117 -0.0115 -0.0014 -0.1160
 2698W        W21552   1.490   4.496   4.382  0.1292  0.1968  0.0978
 2699W        W21553   4.165  17.481  16.678  0.1737 -0.1433  0.2799
 2700W        W21554   4.320   8.176  15.677 -0.0218  0.0476  0.1791
 2701W        W21555   0.844  13.674  13.660  0.1490  0.1803 -0.0703
 2702W        W21556   6.476  13.080  12.945 -0.0399 -0.0568  0.0123
 2703W        W21557  16.153  13.785   3.629  0.1669 -0.3883  0.1127
 2704W        W21558  16.295  16.447  12.901 -0.2032  0.0617  0.1551
 2705W        W21559  15.380  16.958  12.906  0.1146 -0.1074 -0.1521
 2706W        W21560  16.482   4.270   2.288 -0.3518 -0.2509  0.2765
 2707W        W21561   6.658  15.841   3.471 -0.1569 -0.0899  0.1679
 2708W        W21562  13.895   4.722  16.517  0.1838  0.2512 -0.0199
 2709W        W21563   9.686   9.172  15.090  0.0038  0.2310 -0.2711
 2710W        W21564   6.877  16.257  16.787  0.2677  0.1383 -0.0693
 2711W        W21565  16.223  10.805   4.242 -0.0908  0.1489  0.2078
 2712W        W21566   9.840   6.151   1.177  0.1237 -0.2624 -0.0900
 2713W        W21567   0.352  10.805  16.671 -0.0935  0.1523  0.2589
 2714W        W21568   4.420   2.704   0.573  0.2161  0.0961 -0.1571
 2715W        W21569   6.263  11.156   2.177 -0.1191  0.3769 -0.3146
 2716W        W21570   2.091   5.402  16.426 -0.0186 -0.2930 -0.1099
 2717W        W21571   6.196   0.761   4.063  0.0866  0.0283 -0.1050
 2718W        W21572   4.654   7.814   1.780  0.0348  0.1812  0.0085
 2719W        W21573   8.713   8.269   0.792 -0.3366  0.0490  0.2747
 2720W        W21574   2.040  16.260  11.932  0.3028  0.2772  0.2046
 2721W        W21575   2.555  16.024  13.704  0.0561 -0.2694  0.1584
 2722W        W21576  10.324  13.607   0.030 -0.0514 -0.0095 -0.0885
 2723W        W21577   6.899  15.036   4.663  0.0727 -0.1156  0.2442
 2724W        W21578  15.037  14.250   3.168 -0.2397 -0.2428  0.0190
 2725W        W21579  17.562  12.502   4.034  0.4729 -0.2070  0.1007
 2726W        W21580  11.218   2.404   5.237  0.1119  0.0922 -0.0600
 2727W        W21581   9.180   8.369   4.935  0.4190 -0.0766  0.1162
 2728W        W21582   5.089   5.189  12.545  0.1152 -0.1208 -0.2819
 2729W        W21583   1.813   3.177  13.032  0.2276 -0.1117  0.1743
 2730W        W21584   3.986  17.430  13.894 -0.1851 -0.0023 -0.2796
 2731W        W21585   4.649   0.511   4.646 -0.0112 -0.4140 -0.1362
 2732W        W21586  10.763   2.698   5.252 -0.0980  0.1657  0.2064
 2733W        W21587  13.116   7.391  15.111 -0.1345  0.3314  0.1214
 2734W        W21588   1.723   9.369   4.191 -0.2456  0.2299 -0.3219
 2735W        W21589   0.855  15.250  15.507  0.0145 -0.2518 -0.0921
 2736W        W21590  13.611  15.649   4.532  0.2232 -0.3590  0.3182
 2737W        W21591  15.628   5.133   3.967 -0.1354  0.0820  0.3424
 2738W        W21592  11.049  13.642  15.655  0.0187  0.1382  0.0646
 2739W        W21593   7.638  11.534  15.446 -0.1560 -0.0375  0.2841
 2740W        W21594   0.478  11.850  17.210  0.0519  0.2148 -0.0177
 2741W        W21595  15.241  11.086   1.828 -0.0585  0.0100 -0.1604
 2742W        W21596   1.945   0.763  13.269  0.2135 -0.1993 -0.0564
 2743W        W21597  11.783  17.394  14.677  0.4499 -0.1814  0.0352
 2744W        W21598   3.336  10.378  15.264 -0.0765  0.1124  0.4509
 2745W        W21599  15.530   8.033   0.020  0.3062  0.1202 -0.0283
 2746W        W21600  14.096   4.429  12.551 -0.2317 -0.1200 -0.0283
 2747W        W21601   6.230  14.976   1.783 -0.0596 -0.1760  0.0713
 2748W        W21602  11.569   7.243   0.655  0.3691 -0.1041 -0.0245
 2749W        W21603   9.554  12.092   2.905 -0.1047  0.0694 -0.0224
 2750W        W21604  16.979  10.621   2.885  0.1487  0.1744  0.0820
 2751W        W21605   1.953   6.005   2.292 -0.0657 -0.2376 -0.0241
 2752W        W21606   7.186   2.814   5.094  0.1772 -0.1093 -0.1407
 2753W        W21607   4.991   4.536  14.533  0.0373  0.3982 -0.2667
 2754W        W21608  11.737  14.490   2.613 -0.2617 -0.0456  0.1071
 2755W        W21609  13.780   7.154  16.164  0.1800  0.2399 -0.2254
 2756W        W21610  12.526   4.906  12.168 -0.2605 -0.2003  0.1329
 2757W        W21611  14.540   6.139  15.714 -0.2146 -0.1856  0.4463
 2758W        W21612  15.697  15.815   4.207  0.2710 -0.0142  0.2160
 2759W        W21613   9.624  16.155   1.544 -0.0687  0.1533  0.0731
 2760W        W21614   2.562   8.598  13.304  0.0884  0.2829 -0.0115
 2761W        W21615   1.784   9.317   2.810 -0.2895 -0.1437  0.0630
 2762W        W21616  15.309   9.768   2.316  0.0566  0.1062  0.0698
 2763W        W21617   8.526   8.290  13.173  0.1342  0.2384 -0.0625
 2764W        W21618   7.339   2.790  11.871  0.0122 -0.1045 -0.0806
 2765W        W21619   2.424  14.409  16.614  0.1148 -0.1170 -0.1469
 2766W        W21620  16.054   6.431   4.391  0.2165 -0.0323 -0.1306
 2767W        W21621  12.330  16.621  16.510 -0.2409 -0.1252 -0.0470
 2768W        W21622  11.089  10.301  15.131 -0.1837  0.0714  0.2211
 2769W        W21623   6.604  14.443   2.973 -0.1089 -0.0160 -0.0341
 2770W        W21624   4.787   5.412  14.216  0.3735 -0.0595 -0.0759
 2771W        W21625   3.628   7.603  15.593  0.1201  0.0174 -0.4727
 2772W        W21626   5.422  10.335   0.019 -0.1439  0.3735 -0.0638
 2773W        W21627  11.973  12.498   4.794 -0.0597  0.1084  0.0628
 2774W        W21628  13.519  15.315  13.652 -0.0418 -0.2564  0.0029
 2775W        W21629   2.011   9.719   4.214 -0.1142  0.3008 -0.0737
 2776W        W21630   7.647   4.145   0.092  0.0566  0.0399 -0.0196
 2777W        W21631   2.693  12.435   1.609  0.0519 -0.3378  0.1886
 2778W        W21632   1.518   4.718  15.613  0.0775 -0.0941  0.0916
 2779W        W21633  10.359   6.888   4.306  0.2418 -0.0850 -0.2071
 2780W        W21634   5.396   8.548   0.258 -0.0333 -0.0688 -0.0389
 2781W        W21635   1.106   5.237  12.902 -0.2438  0.2020  0.0253
 2782W        W21636   6.579   0.984   3.839  0.2309  0.1378  0.4664
 2783W        W21637   2.840   2.176   4.543 -0.1703 -0.0688  0.5508
 2784W        W21638   2.968  13.027   4.281  0.0622  0.0435 -0.0218
 2785W        W21639   1.585   2.307   0.778  0.1471 -0.0463  0.0571
 2786W        W21640  12.022   3.434   3.390 -0.1074 -0.0893 -0.0423
 2787W        W21641   5.902  14.323  16.641  0.1692 -0.1854  0.1784
 2788W        W21642   5.282   9.275  16.263  0.0555 -0.3542  0.1029
 2789W        W21643  12.642   1.520  14.366  0.0745  0.2666  0.1952
 2790W        W21644   2.963  13.548  14.506 -0.0374 -0.0542  0.1511
 2791W        W21645  14.509   3.955  12.612  0.2205 -0.0354 -0.0477
 2792W        W21646   6.303   9.576  17.233  0.0248 -0.3498  0.1334
 2793W        W21647   3.838  16.408   0.755 -0.1455 -0.1715 -0.0192
 2794W        W21648   1.256   4.542   0.125  0.0159 -0.0243 -0.0385
 2795W        W21649  13.876  11.323  13.536  0.2607  0.1307 -0.4572
 2796W        W21650   1.600   0.325   4.583 -0.3164 -0.1741  0.1238
 2797W        W21651  13.041  15.388   4.403 -0.0820 -0.2201 -0.0719
 2798W        W21652   7.079   5.590   4.821  0.0308  0.2834 -0.2654
 2799W        W21653  17.017   2.481  16.213 -0.1704 -0.3637 -0.0229
 2800W        W21654   2.036   9.568  15.762 -0.0674  0.2085 -0.0497
 2801W        W21655   5.578   2.313  15.124 -0.1609  0.0115  0.1530
 2802W        W21656  15.816  16.837   4.347  0.1239 -0.1970  0.1791
 2803W        W21657   2.565   3.183   3.834  0.2519 -0.0775 -0.0761
 2804W        W21658   7.421   9.342  14.698 -0.0891 -0.1253 -0.2044
 2805W        W21659  16.869  15.133   2.168 -0.4016  0.3414  0.1969
 2806W        W21660  12.421   7.231   0.687  0.2027 -0.2739 -0.0755
 2807W        W21661  12.917  10.800   3.254 -0.0527 -0.0743 -0.1175
 2808W        W21662   0.360  13.405  15.158  0.0719  0.3271 -0.3157
 2809W        W21663  16.287  14.988   0.402  0.1095 -0.1091 -0.0740
 2810W        W21664  13.766  15.142   1.482 -0.1023  0.1516 -0.3557
 2811W        W21665  10.570  13.066  15.019 -0.0184  0.0904  0.1103
 2812W        W21666   8.571  10.076   0.715 -0.1202 -0.0759 -0.0390
 2813W        W21667  15.300   7.457   1.667  0.0284  0.1077  0.0757
 2814W        W21668  17.133  11.838   2.764 -0.0742  0.2833  0.0128
 2815W        W21669   2.389  15.668  14.493  0.0155 -0.1053  0.0894
 2816W        W21670   6.882   2.346  15.390  0.2552  0.0176 -0.2202
 2817W        W21671   2.105   5.919   3.896 -0.1901 -0.1422  0.1911
 2818W        W21672  10.623  17.486  15.882  0.1850  0.1080  0.0883
 2819W        W21673   3.247  14.031   0.159 -0.1185 -0.2364  0.1175
 2820W        W21674  11.603   9.507   3.505 -0.2398 -0.0243  0.2282
 2821W        W21675   7.291   9.462   3.300  0.0349  0.2259  0.0561
 2822W        W21676  10.246  13.978  13.021 -0.2238  0.2545 -0.1521
 2823W        W21677  16.598   6.639  15.080  0.0467 -0.1304  0.2313
 2824W        W21678  12.634   8.966  13.817  0.2251 -0.0905  0.1332
 2825W        W21679   6.620  10.950   6.118  0.1275  0.3288  0.0811
 2826W        W21680   7.032   5.170  13.544 -0.0153  0.0909 -0.0292
 2827W        W21681   4.862  12.676   0.721 -0.0323 -0.1082 -0.3823
 2828W        W21682   2.082  12.176   1.471 -0.0316  0.0872 -0.3687
 2829W        W21683   3.768   2.242   4.583 -0.1750 -0.0089  0.0635
 2830W        W21684   6.085   3.880   2.728 -0.2244 -0.1122  0.1578
 2831W        W21685   1.000   4.021   2.131 -0.2252  0.0462  0.0090
 2832W        W21686   8.387  13.179   3.013 -0.0825 -0.0994 -0.1970
 2833W        W21687   2.013   1.617   4.662  0.1096  0.1665  0.1413
 2834W        W21688   3.411  11.060  16.001  0.1905 -0.2098  0.1767
 2835W        W21689  10.297  13.527  14.459  0.3229 -0.0138  0.3022
 2836W        W21690  10.582  16.333  17.232 -0.0889  0.3287 -0.1751
 2837W        W21691   4.381   4.429   4.909  0.1776 -0.0425  0.0916
 2838W        W21692   3.996  15.668   1.853  0.1343 -0.2348 -0.0488
 2839W        W21693   0.007   8.538  14.854 -0.0958  0.2248  0.0462
 2840W        W21694   9.980  10.426   0.987  0.1173 -0.0438 -0.2298
 2841W        W21695  11.686  12.036   2.482  0.0800  0.2715  0.0160
 2842W        W21696   2.940  15.216   1.094  0.1081 -0.2018  0.1007
 2843W        W21697   2.363   0.431   0.795  0.0433 -0.0966 -0.4034
 2844W        W21698  14.009  17.454  14.946  0.1888  0.0279  0.1223
 2845W        W21699   3.316  12.274   3.719  0.1293 -0.1635 -0.1580
 2846W        W21700   4.091   3.615  15.913  0.2915  0.1850  0.3564
 2847W        W21701   0.938  13.567  16.004  0.2280 -0.0345  0.1331
 2848W        W21702  14.026  12.510   0.363 -0.0822  0.1010  0.0094
 2849W        W21703   2.713   3.008   5.092 -0.1497  0.0286  0.0804
 2850W        W21704   2.114   5.279   2.184  0.2011 -0.0032  0.2767
 2851W        W21705   4.060   1.528   4.890 -0.1108  0.1884 -0.2570
 2852W        W21706  12.284  12.285  13.288  0.1478  0.0411  0.1689
 2853W        W21707   0.652   5.089   2.328  0.0808 -0.1824 -0.0904
 2854W        W21708   7.528   8.123   5.322  0.0603 -0.1282 -0.0558
 2855W        W21709   6.768   5.382   4.006  0.0287  0.3166  0.1173
 2856W        W21710   0.171   4.871   2.855  0.3329 -0.1736  0.0389
 2857W        W21711   1.952   8.281   5.306  0.2357 -0.1462  0.1502
 2858W        W21712   8.260  16.141   4.584 -0.2059  0.1578  0.2070
 2859W        W21713   9.369   2.228  17.104 -0.2950 -0.1290  0.0108
 2860W        W21714   5.410   2.624  13.024  0.2471 -0.2009  0.0224
 2861W        W21715  11.796  10.719   4.848  0.1322  0.0694 -0.0087
 2862W        W21716   9.783   6.347  16.711  0.0727 -0.0025  0.1010
 2863W        W21717  17.242   9.632   2.923 -0.1047  0.0507 -0.1283
 2864W        W21718   7.648  15.049   3.390 -0.0085  0.3396  0.2179
 2865W        W21719  11.337   4.478  15.865  0.0228 -0.0192  0.0053
 2866W        W21720  12.041  14.197  11.130 -0.1653  0.2907  0.3372
 2867W        W21721  14.352   1.744  16.002 -0.3247  0.1788  0.1677
 2868W        W21722  12.190  13.960   1.327 -0.1127 -0.1712  0.0522
 2869W        W21723   7.587   9.878   2.073 -0.2076  0.4024  0.2219
 2870W        W21724   6.852   1.608   2.150  0.0216 -0.2195 -0.3500
 2871W        W21725  13.080  10.477   4.312  0.0190  0.0244  0.1050
 2872W        W21726   3.240  12.574   4.990 -0.2547  0.0506 -0.1446
 2873W        W21727   9.492   6.511   5.225 -0.0723 -0.2713  0.0136
 2874W        W21728  10.105  16.749   0.294  0.0996  0.0557  0.0987
 2875W        W21729  14.066   5.831   0.732 -0.1254  0.2401  0.1315
 2876W        W21730   3.020  16.837  15.612 -0.1013 -0.3164 -0.2224
 2877W        W21731  15.542   0.805   2.231  0.1843 -0.2238 -0.2343
 2878W        W21732   3.114  12.214  16.720  0.3130 -0.0774  0.1461
 2879W        W21733  14.509   2.947   3.271  0.0768 -0.1293 -0.3234
 2880W        W21734  15.044   5.149  16.616  0.0639  0.0052 -0.0518
 2881W        W21735  14.750  10.135  14.113 -0.1073 -0.0367 -0.2257
 2882W        W21736   4.779   9.882   3.792  0.0007  0.2741  0.0937
 2883W        W21737  16.090  13.846   4.159  0.2491  0.1440  0.1193
 2884W        W21738  10.424   1.097  16.728 -0.0974 -0.0606 -0.0918
 2885W        W21739   2.726  13.818   2.929 -0.0246 -0.0478 -0.0379
 2886W        W21740   2.745   9.481   1.294 -0.1356 -0.1037 -0.0976
 2887W        W21741   1.818  10.135  12.910  0.0862  0.1358  0.5216
 2888W        W21742  12.403   8.089  13.096  0.2152  0.0422 -0.0362
 2889W        W21743   0.883   8.335   3.168 -0.2617  0.1984 -0.0291
 2890W        W21744   9.502  13.758  13.600  0.0780  0.0864 -0.3297
 2891W        W21745  16.425  10.382   4.035  0.0450  0.1771 -0.2613
 2892W        W21746  13.557  17.392  13.083 -0.0874 -0.0384 -0.1164
 2893W        W21747  17.215  13.392  12.989  0.1274  0.0711 -0.1017
 2894W        W21748   0.338   6.349  12.016  0.0160 -0.0944 -0.0692
 2895W        W21749   1.944   9.485   3.745  0.1609 -0.3333  0.1064
 2896W        W21750   4.242   9.070   1.583 -0.3924  0.1189 -0.1091
 2897W        W21751   2.718   0.697  16.783  0.0398 -0.0535  0.0141
 2898W        W21752   6.099   5.489  14.749  0.0761  0.1624  0.0532
 2899W        W21753  17.549   5.461  12.066 -0.0045  0.0360 -0.1411
 2900W        W21754  11.314   3.224   2.684  0.2288  0.1972 -0.0032
 2901W        W21755   8.044  16.398  12.698  0.1580 -0.0368  0.0386
 2902W        W21756  10.108   9.563  13.908  0.0127 -0.3667 -0.1485
 2903W        W21757   6.408   5.096  14.077  0.1266 -0.0925  0.1539
 2904W        W21758   2.475   2.176  13.668  0.1854 -0.0216 -0.0058
 2905W        W21759   8.659   0.170   0.713 -0.2516 -0.0522 -0.1373
 2906W        W21760   3.732   4.498   1.623  0.0360 -0.0551 -0.2387
 2907W        W21761  12.493   8.622   1.201 -0.1560 -0.0645  0.0761
 2908W        W21762  15.420   9.567  15.817  0.3860  0.1075  0.3212
 2909W        W21763   1.654   6.820   5.242  0.1343  0.2527  0.1453
 2910W        W21764  16.785   6.163   1.787 -0.0195 -0.0238  0.2683
 2911W        W21765  15.481   8.242   1.611 -0.2753  0.0987 -0.2258
 2912W        W21766  10.498  13.530  12.708  0.3110 -0.0154  0.3732
 2913W        W21767  12.517  14.277  13.679  0.0266 -0.1008  0.1286
 2914W        W21768   6.581   6.496   0.992  0.1102  0.0479 -0.0207
 2915W        W21769  16.637  13.762  15.744  0.0764  0.2813  0.1184
 2916W        W21770   9.207   1.219  15.581 -0.1017 -0.0771 -0.1817
 2917W        W21771   5.536  15.431  14.961  0.2131  0.0408  0.4325
 2918W        W21772   2.107  16.629   0.336 -0.0658  0.1830  0.2414
 2919W        W21773   3.615  15.398  14.481  0.2221 -0.0611  0.2311
 2920W        W21774   0.888   9.318   1.766  0.0842  0.1996 -0.0282
 2921W        W21775  13.806   1.461   3.338 -0.0218  0.1540 -0.1310
 2922W        W21776   8.926   6.666  16.946 -0.0653  0.0803  0.1987
 2923W        W21777   3.472  15.706   0.647 -0.0036  0.2336 -0.1781
 2924W        W21778  10.085   1.272  13.595 -0.3122 -0.1479 -0.2578
 2925W        W21779   8.476  13.915   3.446 -0.2118  0.0627 -0.0524
 2926W        W21780   1.217   7.507   4.944 -0.1780  0.3232 -0.0226
 2927W        W21781  13.126  17.315   3.298 -0.0538 -0.0131 -0.1096
 2928W        W21782   4.520  14.848  14.888  0.2075 -0.0817 -0.0394
 2929W        W21783   9.750  11.118   0.331  0.1374 -0.2494 -0.2099
 2930W        W21784   3.514   7.059   3.287 -0.0633  0.1056 -0.1828
 2931W        W21785  16.295   8.648  13.850  0.1476  0.0287  0.0598
 2932W        W21786   0.899  13.741  13.153  0.1327 -0.1380 -0.1000
 2933W        W21787  16.098   0.664   2.024 -0.2841 -0.2528 -0.0066
 2934W        W21788   3.612  15.037   0.445 -0.0135 -0.2067 -0.2707
 2935W        W21789   5.549  11.812   2.257 -0.0812 -0.1574 -0.0493
 2936W        W21790   4.331   7.239  13.638  0.1225  0.2095 -0.1570
 2937W        W21791  11.709  10.969  11.919  0.1165 -0.1023  0.2598
 2938W        W21792   5.260   4.301   0.713  0.0155 -0.2083  0.2337
 2939W        W21793   4.265  10.910  12.306 -0.0248 -0.2119 -0.3296
 2940W        W21794   9.599  16.709  14.503 -0.4087 -0.0720  0.1628
 2941W        W21795   5.403  15.468  14.448 -0.0409 -0.2596  0.0721
 2942W        W21796  10.957   5.850  12.462  0.2258 -0.1017  0.1285
 2943W        W21797  14.947  15.512   1.596 -0.0649  0.0920 -0.1519
 2944W        W21798   3.707   9.953  13.506  0.1788 -0.0174  0.1619
 2945W        W21799   4.697   8.035   4.375 -0.1612 -0.2885  0.1323
 2946W        W21800   7.284  15.534  16.552 -0.0242 -0.0182 -0.2140
 2947W        W21801   8.439   4.050   2.424 -0.0116  0.2514 -0.1559
 2948W        W21802  17.452   7.059  16.918 -0.0684 -0.1166 -0.3291
 2949W        W21803  16.202  12.357   2.247  0.0847 -0.1723 -0.0134
 2950W        W21804  17.084  13.435  13.502  0.2262  0.0046  0.0720
 2951W        W21805  16.978   2.175   1.960  0.0655 -0.0713 -0.0547
 2952W        W21806  17.024  13.773  14.417  0.0603 -0.0472  0.1783
 2953W        W21807   4.842  15.924  13.359 -0.0870  0.2225  0.1613
 2954W        W21808  15.637  10.996   4.805  0.0551 -0.0627 -0.0145
 2955W        W21809  12.887   6.826  15.899  0.1947 -0.1320  0.1186
 2956W        W21810   2.634   3.912   5.015 -0.1790 -0.2011  0.0840
 2957W        W21811   9.007   5.371   0.718 -0.0516  0.0050  0.1987
 2958W        W21812  14.828  11.607   2.634  0.0315 -0.0920 -0.1290
 2959W        W21813   9.422   7.393  15.312  0.0043  0.4233  0.0188
 2960W        W21814   2.711   6.765  12.441  0.2807  0.2334 -0.0269
 2961W        W21815   2.109   5.893   5.072  0.0412 -0.1720 -0.0588
 2962W        W21816   6.296  15.085  14.236 -0.0197  0.1236 -0.3821
 2963W        W21817   2.897   8.228  12.444 -0.1091 -0.2691 -0.0247
 2964W        W21818   3.806   0.208   4.910 -0.2523  0.2660  0.2304
 2965W        W21819   9.222  16.108  13.136 -0.0541  0.0752  0.3718
 2966W        W21820   5.643  15.809  16.002 -0.2060 -0.1949 -0.2209
 2967W        W21821   5.560   9.290  13.077 -0.0416 -0.2357  0.0971
 2968W        W21822  14.129  10.713   5.427  0.0603 -0.2477 -0.1662
 2969W        W21823   8.321   3.402  13.569 -0.1214 -0.0698  0.0668
 2970W        W21824   0.007   5.613  13.475  0.1994 -0.2124 -0.0218
 2971W        W21825   9.990   8.967   0.750 -0.0702  0.0382  0.2906
 2972W        W21826  13.526   5.873   1.293 -0.3848 -0.1078  0.2740
 2973W        W21827  11.285   9.149   5.683 -0.0750  0.3383 -0.2201
 2974W        W21828   8.661  16.164   0.253 -0.1056 -0.1219  0.2789
 2975W        W21829   5.087  10.388  12.942 -0.2684 -0.1112 -0.0294
 2976W        W21830   7.801  13.148  17.167 -0.0020 -0.4679  0.3437
 2977W        W21831   0.995   7.731   2.293  0.0824 -0.2911 -0.0026
 2978W        W21832  14.010   8.126  12.118  0.0570 -0.2401 -0.0779
 2979W        W21833   1.351   5.375   5.211  0.2110  0.1242 -0.0424
 2980W        W21834   6.472  11.994  14.762 -0.2054 -0.1440  0.1410
 2981W        W21835  12.862   5.794   3.470  0.2009  0.1131  0.2086
 2982W        W21836   7.714  15.472  17.134 -0.1715 -0.4603  0.1699
 2983W        W21837   9.534   4.704  15.620  0.2386 -0.1015 -0.0180
 2984W        W21838  17.191   8.364   0.218  0.3200 -0.0381  0.0443
 2985W        W21839   5.237  11.527   1.890  0.0427 -0.0159  0.2749
 2986W        W21840   7.668  10.428   2.034 -0.0879  0.2057  0.1340
 2987W        W21841   2.074  17.390   0.016 -0.0157 -0.1848  0.3232
 2988W        W21842   9.455   3.414   3.354 -0.0085  0.2881 -0.3633
 2989W        W21843   9.145  13.290  15.883 -0.0231 -0.0541 -0.2244
 2990W        W21844   1.199   7.590   6.543  0.1619  0.0658 -0.3331
 2991W        W21845  13.436  14.411  15.136  0.0447  0.1345  0.0115
 2992W        W21846   4.355  10.716   1.960  0.4434  0.1637 -0.0640
 2993W        W21847   0.732   9.142   3.450 -0.0631  0.1574 -0.1407
 2994W        W21848   1.234   5.148   3.824  0.1899  0.0212 -0.0154
 2995W        W21849  16.198   9.984   2.660  0.1665  0.0429 -0.2007
 2996W        W21850  16.447   6.916  16.425  0.2725  0.0685  0.2178
 2997W        W21851   7.748  12.202  14.039  0.0786 -0.2910 -0.2640
 2998W        W21852   7.512   6.271   4.689 -0.0872 -0.0976 -0.0178
 2999W        W21853   4.411   0.648   0.542  0.2144 -0.0058  0.0994
 3000W        W21854   6.971   4.584   0.578  0.0376 -0.0327  0.2139
 3001W        W21855   6.928   1.861   4.016  0.2644  0.0364  0.0981
 3002W        W21856   2.998  12.190   5.185  0.0731  0.0146 -0.0518
 3003W        W21857  11.122  15.876   1.551  0.0595  0.0864 -0.1958
 3004W        W21858   1.879  12.955   1.063  0.1900  0.0404 -0.2824
 3005W        W21859  17.570   0.977   1.140 -0.2601  0.0255 -0.0431
 3006W        W21860   9.114   7.488   1.017  0.1131  0.1021  0.4244
 3007W        W21861   4.361   1.073  15.541 -0.1113 -0.1503  0.0053
 3008W        W21862   0.923   6.745   0.569  0.0006 -0.0773 -0.2629
 3009W        W21863  16.379   3.906   3.510  0.1584  0.1917  0.0138
 3010W        W21864  14.171   3.319  15.525 -0.1074 -0.1280  0.0163
 3011W        W21865  12.263   2.218   3.898 -0.0888 -0.0526  0.0863
 3012W        W21866   5.513   9.839   3.134 -0.1783 -0.2283  0.1180
 3013W        W21867   9.636   2.874  12.944  0.0566 -0.1428 -0.2779
 3014W        W21868   8.082  11.516   4.964  0.3652 -0.0188 -0.2173
 3015W        W21869   1.911   6.687  13.127  0.0198  0.0820 -0.0549
 3016W        W21870   4.811   4.156  17.148  0.2364 -0.1010  0.1305
 3017W        W21871   5.710   6.835  12.459 -0.0460 -0.1204 -0.0095
 3018W        W21872  14.400  16.736  13.369 -0.2842 -0.2092 -0.1154
 3019W        W21873   0.025   8.395  15.513 -0.0386 -0.4695  0.0063
 3020W        W21874  14.537  14.339   3.052  0.1664 -0.2616  0.0358
 3021W        W21875   4.190   4.263  16.300 -0.3964 -0.0197  0.0665
 3022W        W21876  12.536  11.302  17.089 -0.1625 -0.0587 -0.1277
 3023W        W21877   5.183   9.944  13.904 -0.3797  0.0923  0.3284
 3024W        W21878   3.688  11.679   5.056  0.1291 -0.1643 -0.4293
 3025W        W21879   6.130  12.832   2.527  0.0305  0.1069 -0.1621
 3026W        W21880   0.164  17.174   2.264 -0.2178  0.1197  0.1741
 3027W        W21881  11.739   5.221   0.191  0.2042 -0.0664 -0.4448
 3028W        W21882   5.937   5.637  13.500  0.2527  0.2632 -0.0476
 3029W        W21883  15.432  12.829   0.731  0.0363 -0.1816  0.3563
 3030W        W21884  14.231  11.472   1.423 -0.2634  0.3611 -0.0241
 3031W        W21885  17.016   3.915  14.986  0.1145  0.3781  0.3407
 3032W        W21886  10.222   4.503   4.013  0.3195 -0.2037 -0.1983
 3033W        W21887   6.418   5.244   0.555  0.1949 -0.4280 -0.0861
 3034W        W21888  11.632  10.675  15.530  0.1208 -0.1223 -0.0815
 3035W        W21889   0.019  16.270  15.874 -0.1458  0.1012 -0.0140
 3036W        W21890   0.594  16.290   2.190  0.0226  0.0753  0.0452
 3037W        W21891  15.969  11.340   4.663 -0.1751  0.0980 -0.0682
 3038W        W21892  17.124   6.304   2.171 -0.1342  0.1750 -0.1795
 3039W        W21893  10.905  17.357  14.604 -0.1987 -0.1667  0.1342
 3040W        W21894   1.152   4.806  11.928  0.1125  0.0073  0.1100
 3041W        W21895  11.267   1.451  16.947 -0.1154 -0.1220  0.2018
 3042W        W21896   4.778   2.885  12.169  0.0362 -0.1040  0.1240
 3043W        W21897  10.545  12.434  14.303 -0.2370  0.1112  0.0517
 3044W        W21898   2.972   7.353   2.450 -0.2082 -0.1983 -0.2814
 3045W        W21899   1.670   1.284   2.405 -0.3375  0.0519  0.0939
 3046W        W21900  13.567   3.641   2.554  0.1887  0.6067  0.1832
 3047W        W21901  15.349  10.551   1.135  0.1102  0.0298 -0.1833
 3048W        W21902  13.906   4.304  13.145  0.0340  0.0654 -0.1315
 3049W        W21903  11.467   3.956  16.853  0.0449 -0.0346  0.1715
 3050W        W21904  16.554   0.909   5.243  0.2819  0.0429  0.5174
 3051W        W21905   2.471   6.228  16.358  0.2076 -0.2602 -0.1284
 3052W        W21906   0.018   6.098  14.979 -0.0131  0.1797  0.0552
 3053W        W21907   8.294  10.935   0.423 -0.0070  0.0897  0.2656
 3054W        W21908  17.050   8.754  12.159 -0.0137  0.2774  0.4731
 3055W        W21909   4.614   8.909   1.158  0.1391 -0.3008 -0.0249
 3056W        W21910   5.185   6.228   0.494  0.1100  0.1356 -0.4383
 3057W        W21911   3.270  16.929   4.132 -0.2809  0.3711  0.0922
 3058W        W21912  14.932   5.648  11.515  0.2933  0.0418  0.1710
 3059W        W21913   4.038  11.073  16.858 -0.0184 -0.1187  0.0454
 3060W        W21914  12.473   6.928   4.179  0.0341 -0.1066  0.1431
 3061W        W21915   4.095  10.445  14.135  0.2202  0.0634 -0.3855
 3062W        W21916  14.019  11.590   1.905  0.0602 -0.3182 -0.1536
 3063W        W21917   5.776   0.220  17.066  0.0852  0.1833 -0.0510
 3064W        W21918   3.576   5.247   4.086  0.2762  0.2046  0.4600
 3065W        W21919  10.203  12.879   3.741  0.0784  0.2590  0.0646
 3066W        W21920  11.618   6.203   5.197  0.1606 -0.0546  0.0128
 3067W        W21921   8.823   9.403   2.545  0.0402 -0.0901  0.0913
 3068W        W21922   7.760   0.631   3.497  0.0215  0.1785 -0.1177
 3069W        W21923  14.825  17.341   3.088  0.0455 -0.6483  0.1721
 3070W        W21924   8.522  10.862  16.897 -0.1449  0.0983 -0.1407
 3071W        W21925  15.812  15.893  16.568  0.2604 -0.1007  0.2664
 3072W        W21926   0.327   7.239   4.403 -0.3168  0.2169  0.0478
 3073W        W21927  11.473   0.522  17.117 -0.0756 -0.1212 -0.0970
 3074W        W21928  11.000   1.880   4.114 -0.0948  0.0052  0.1819
 3075W        W21929   7.732   0.594  15.996 -0.1863 -0.2727  0.2601
 3076W        W21930   3.044   4.150   4.894 -0.0341  0.1012  0.1836
 3077W        W21931  17.579   7.067   0.614  0.1583 -0.0984 -0.3624
 3078W        W21932  13.858  15.229   2.006 -0.2253 -0.2506 -0.0533
 3079W        W21933  14.417   8.532   0.330 -0.1665 -0.2498  0.1715
 3080W        W21934  13.285   4.685   4.032  0.1587  0.1126  0.1303
 3081W        W21935   5.362  15.360   3.244  0.2123 -0.0173  0.1422
 3082W        W21936   7.542   1.811   6.485 -0.1735  0.0367 -0.4348
 3083W        W21937   1.217   2.591  14.915 -0.4931 -0.0798  0.3042
 3084W        W21938  17.206   6.261   3.576 -0.0634  0.2360  0.0668
 3085W        W21939  15.227  13.483   3.402  0.0675  0.1937 -0.0064
 3086W        W21940   7.639  17.099  14.579 -0.0451  0.1677  0.1112
 3087W        W21941   5.896   6.094   3.931 -0.2497  0.6140  0.2186
 3088W        W21942   7.624  17.394  15.956  0.0040  0.1093 -0.1906
 3089W        W21943   0.402   5.887  16.711 -0.0894  0.1516  0.2076
 3090W        W21944  15.147   9.933  12.513  0.0046  0.2032  0.0589
 3091W        W21945  15.752   7.298   0.231 -0.0739 -0.0122  0.0636
 3092W        W21946   1.855  17.337  12.345  0.0928 -0.1484  0.0538
 3093W        W21947  15.009   1.097  14.788  0.0897 -0.0466  0.0184
 3094W        W21948   2.512   8.067   4.969 -0.2881 -0.1178 -0.0527
 3095W        W21949   3.841   0.648   5.144  0.1425 -0.1025 -0.2006
 3096W        W21950   2.731   1.625  12.398 -0.3092 -0.1864  0.1369
 3097W        W21951   4.884   7.511   1.223 -0.0928 -0.4442 -0.0581
 3098W        W21952   9.145   9.452  12.750  0.0752  0.2760  0.1372
 3099W        W21953   1.252   9.084  11.705  0.2755  0.2311  0.0919
 3100W        W21954   3.554  13.763  15.172  0.0304 -0.3095 -0.1560
 3101W        W21955  14.813  17.437  15.232  0.0091 -0.2774 -0.4211
 3102W        W21956  17.117   0.261   2.538 -0.1420 -0.0617  0.1739
 3103W        W21957  13.064   5.714   0.552 -0.2600  0.1662 -0.2341
 3104W        W21958   7.706  15.112   4.049 -0.1340  0.0946  0.3316
 3105W        W21959   3.086  11.216   3.111 -0.0025 -0.1705  0.0780
 3106W        W21960  15.622   5.785  15.691 -0.0812  0.0708 -0.0018
 3107W        W21961   6.420  15.753  16.589  0.3741  0.0936  0.2459
 3108W        W21962   8.909   1.854  16.127  0.0151  0.1262  0.0881
 3109W        W21963   2.711   7.235   4.904 -0.1051  0.0782 -0.0041
 3110W        W21964   1.634  16.536   2.267 -0.0924 -0.4753 -0.1170
 3111W        W21965  15.546   8.771   4.874  0.0370  0.1489 -0.0209
 3112W        W21966   8.619  15.090   2.791  0.0661 -0.1772  0.0014
 3113W        W21967  14.361   0.551  17.065 -0.1842 -0.3252  0.0723
 3114W        W21968  17.535   0.343   4.538 -0.1276  0.2615 -0.0743
 3115W        W21969   3.944  12.050  14.480 -0.0670 -0.1114 -0.0765
 3116W        W21970  13.435   5.642  15.858 -0.0671 -0.0600 -0.1571
 3117W        W21971   0.110   3.751   4.190 -0.0470  0.0455  0.2705
 3118W        W21972   0.654   7.955   2.022 -0.4751  0.0889 -0.1516
 3119W        W21973   9.123  12.041  12.784 -0.1781 -0.0083 -0.1563
 3120W        W21974   0.574  14.431   1.488 -0.0646 -0.2422 -0.0640
 3121W        W21975  15.009  10.604  15.301 -0.1887  0.2633 -0.2008
 3122W        W21976   2.394  12.899  17.045  0.0246  0.0502  0.0915
 3123W        W21977   9.401  15.489   0.326  0.2510 -0.1489 -0.3476
 3124W        W21978   2.067  16.796  14.666  0.3843  0.0335 -0.3062
 3125W        W21979   3.895  13.543  16.086  0.0828  0.0047  0.2412
 3126W        W21980   0.482  11.214   5.134  0.2081 -0.1486 -0.0246
 3127W        W21981  15.423   8.263  15.327 -0.0467 -0.5532 -0.1300
 3128W        W21982   9.433   0.315  15.300  0.0973  0.0175  0.0748
 3129W        W21983   3.202  10.225   1.497 -0.1345  0.0631  0.3226
 3130W        W21984  10.787   3.830  16.045 -0.3034  0.0249  0.1392
 3131W        W21985   3.781  11.656   1.589  0.2480  0.4225  0.1932
 3132W        W21986   3.415   5.641  15.153 -0.0367 -0.1407 -0.1395
 3133W        W21987  17.054   9.909  14.423  0.2060 -0.1824 -0.4410
 3134W        W21988   2.426   8.855  16.010 -0.1108  0.1231  0.1330
 3135W        W21989  11.420  12.065  16.600 -0.0549 -0.1674  0.1089
 3136W        W21990   0.995   8.274   1.589  0.2160 -0.0058  0.0185
 3137W        W21991  13.123  12.328   0.772  0.1437  0.1029 -0.1494
 3138W        W21992  12.138   7.122  14.184  0.0012  0.0899  0.2997
 3139W        W21993   9.277  16.771  15.354 -0.0788 -0.1428  0.2733
 3140W        W21994   3.099  10.683  14.899  0.2174  0.1325 -0.0327
 3141W        W21995  11.642   9.445   1.712  0.2619  0.4638 -0.1399
 3142W        W21996  13.274   6.834   4.807  0.3761 -0.0863  0.0714
 3143W        W21997  16.048  15.816  13.268 -0.0512 -0.4202 -0.0158
 3144W        W21998   9.009  11.462  12.818  0.1756  0.0586  0.3620
 3145W        W21999  12.923  12.435   4.950 -0.2477 -0.0053  0.0401
 3146W        W22000   6.400  11.100  14.801  0.2007 -0.0669 -0.0367
 3147W        W22001   8.084  16.309  13.691  0.0751 -0.2481  0.0611
 3148W        W22002   0.934  13.066  14.654 -0.2827  0.0236 -0.4402
 3149W        W22003   5.166   8.793  14.521  0.0120 -0.2333 -0.0159
 3150W        W22004  14.224   8.484   1.010 -0.0811 -0.1024  0.2922
 3151W        W22005  15.493   9.439  16.391 -0.1634 -0.0533 -0.1814
 3152W        W22006   3.509  11.175   2.405  0.2571 -0.2063 -0.0417
 3153W        W22007   3.710   4.395  12.433  0.3846  0.0209 -0.1926
 3154W        W22008   1.253  17.184   1.173  0.0716  0.0485  0.1323
 3155W        W22009   3.762   3.460   1.962  0.3191 -0.2949  0.0117
 3156W        W22010  16.484   9.270  16.523  0.0155  0.2834  0.1398
 3157W        W22011  12.324  14.597  15.104 -0.0583 -0.2733  0.1428
 3158W        W22012   7.407   1.284  13.710 -0.1380  0.1160  0.0912
 3159W        W22013  12.227  11.194   3.602 -0.1925 -0.0360  0.1561
 3160W        W22014   4.261   2.221  15.462 -0.1375  0.1085  0.2961
 3161W        W22015  11.176   8.138   2.605  0.2546  0.3133 -0.1969
 3162W        W22016  15.979   3.185   4.222 -0.2399  0.0837 -0.1616
 3163W        W22017  13.476  11.764   0.538 -0.0899 -0.1524  0.1864
 3164W        W22018  16.745   7.131   3.127 -0.1884 -0.4277 -0.3397
 3165W        W22019  14.886  11.302   4.331  0.0502 -0.0164  0.0358
 3166W        W22020  15.706   1.530   1.232  0.3882 -0.0317  0.2875
 3167W        W22021   3.061   0.067  16.756  0.0453  0.3551  0.1316
 3168W        W22022   0.223  10.425  16.330  0.0135  0.1276  0.0059
 3169W        W22023  15.482  16.991  13.432 -0.4049 -0.0638 -0.3588
 3170W        W22024   3.716  13.847  14.052  0.4880 -0.0382  0.0219
 3171W        W22025   6.467   2.458   0.932  0.5501 -0.0665 -0.0759
 3172W        W22026  15.422  16.397   1.330 -0.1365 -0.1181  0.1178
 3173W        W22027  14.716   5.077  16.197 -0.1648  0.1074 -0.0888
 3174W        W22028   6.790  12.728   0.149  0.3140  0.0477 -0.0305
 3175W        W22029   9.265  10.872   0.541 -0.0136  0.2366 -0.0735
 3176W        W22030   9.675  16.188   3.006 -0.1301 -0.1410  0.0333
 3177W        W22031   4.597  16.076   3.294  0.0598 -0.1315 -0.0567
 3178W        W22032   1.853  14.534  15.294 -0.1166  0.0460 -0.2670
 3179W        W22033  17.081   3.592  14.403  0.1123 -0.0016 -0.0260
 3180W        W22034   7.636  11.947  16.951  0.0068  0.1000  0.1161
 3181W        W22035   0.504   4.386  12.966 -0.2065 -0.0222 -0.3221
 3182W        W22036   2.101  10.174  17.112 -0.0031  0.1237 -0.1528
 3183W        W22037  14.643   9.731  16.715 -0.2335  0.1100 -0.1435
 3184W        W22038   8.102   2.967  13.148  0.4650 -0.3153  0.0632
 3185W        W22039  12.568   7.758   1.790  0.0851  0.2936 -0.0963
 3186W        W22040  14.056  11.794   3.316  0.0004  0.1411  0.0336
 3187W        W22041   1.295  13.081   3.692  0.4012  0.1949 -0.1408
 3188W        W22042  17.311  11.849  16.361  0.1913 -0.1175 -0.1758
 3189W        W22043  14.165  13.312   3.263  0.2428  0.2723 -0.0074
 3190W        W22044  14.540  13.367  16.441  0.1228 -0.2549  0.1161
 3191W        W22045   0.686   6.005   1.161 -0.0468 -0.1247  0.0193
 3192W        W22046   0.760  13.052  15.963  0.2131  0.2314 -0.2465
 3193W        W22047   5.300  15.123   3.807 -0.3080 -0.1609 -0.4170
 3194W        W22048  13.294   5.513   0.967 -0.2280  0.0858 -0.2402
 3195W        W22049   1.125   8.716   2.501 -0.2836  0.1605  0.0998
 3196W        W22050  10.485  17.362   2.583 -0.1179  0.2259  0.0340
 3197W        W22051   5.287   0.411   2.517  0.0777 -0.2755 -0.0339
 3198W        W22052  10.991  15.561  12.074  0.0781  0.1066 -0.0527
 3199W        W22053   0.007  10.814  13.273  0.1560 -0.0497  0.1345
 3200W        W22054   5.957  16.546   0.198  0.1928  0.1956 -0.2781
 3201W        W22055   7.835   5.110   4.941 -0.3660 -0.0311  0.2184
 3202W        W22056   9.660  17.076   1.312  0.0610 -0.1821  0.1733
 3203W        W22057   9.437   1.756   1.613 -0.3537 -0.0681 -0.0023
 3204W        W22058  12.253  10.514   3.591 -0.1869 -0.2251  0.0911
 3205W        W22059  13.073  11.257   0.688  0.2379 -0.4773  0.2035
 3206W        W22060   8.527   2.504  16.740 -0.1666 -0.1377 -0.0139
 3207W        W22061   4.204  14.407   3.962  0.0049 -0.0885 -0.0885
 3208W        W22062   4.471  12.910   1.027  0.0171  0.0722  0.0927
 3209W        W22063   3.166   6.789  13.402  0.0296  0.0534 -0.0565
 3210W        W22064  10.868   1.681  16.723 -0.0874 -0.0166 -0.2784
 3211W        W22065   7.780   5.471   4.121 -0.2497 -0.1504 -0.2224
 3212W        W22066   9.631   9.445  12.772 -0.2565  0.2618  0.0055
 3213W        W22067   9.185  13.010  13.889  0.0491 -0.0032  0.0216
 3214W        W22068   9.842  16.679  17.059  0.0309 -0.3623 -0.0350
 3215W        W22069  15.941   0.164  15.111  0.1561  0.0227  0.1334
 3216W        W22070   8.550  10.361   3.742  0.0010 -0.1565  0.0754
 3217W        W22071   8.234   9.369  14.471  0.0069 -0.3175 -0.0377
 3218W        W22072  13.118   6.530  13.614  0.0185  0.0329 -0.1597
 3219W        W22073  11.395   9.947  14.882  0.0030 -0.0655 -0.1171
 3220W        W22074   3.336   5.147  14.252 -0.0794  0.0135 -0.2049
 3221W        W22075  14.965   9.528  12.253  0.1410  0.0609 -0.0643
 3222W        W22076   4.829  13.956   4.350  0.0104  0.0790  0.0203
 3223W        W22077  13.460  13.586   2.604 -0.0346 -0.2865 -0.0098
 3224W        W22078   4.748   0.231   2.495  0.0300 -0.2996  0.0968
 3225W        W22079   6.886  12.160   2.642 -0.0545 -0.1625  0.0718
 3226W        W22080   6.782   9.245   5.688 -0.0283  0.0134 -0.2636
 3227W        W22081   1.267  10.179   2.060  0.1338 -0.1238  0.0516
 3228W        W22082   6.421   2.085  13.369 -0.1742 -0.1697  0.0129
 3229W        W22083  11.311   1.629   1.910 -0.0051  0.0595 -0.1193
 3230W        W22084   8.418   1.192   2.032 -0.1216 -0.2508 -0.0990
 3231W        W22085  11.732   6.662  16.453  0.1564 -0.1207 -0.2836
 3232W        W22086   3.849   5.547  14.247 -0.1566  0.0581  0.2226
 3233W        W22087  11.414   3.006  12.702  0.0227  0.2786  0.5910
 3234W        W22088   6.034  14.141  14.689 -0.4841 -0.1683  0.0023
 3235W        W22089   6.553   2.157  12.802  0.1987 -0.1047 -0.1131
 3236W        W22090  15.938   6.780   3.886 -0.0949 -0.0969 -0.1765
 3237W        W22091   7.866   5.180  16.149  0.1658  0.0773 -0.1947
 3238W        W22092  11.012   3.862  13.105  0.0825 -0.1223  0.1188
 3239W        W22093  17.218   8.134  13.199  0.1395 -0.0694  0.0308
 3240W        W22094   7.997   8.958  14.637 -0.1352  0.2013 -0.0584
 3241W        W22095   0.438   6.811   2.643  0.1833  0.2678  0.2576
 3242W        W22096  12.687  10.595  16.446 -0.1978  0.0644 -0.2249
 3243W        W22097   5.205   0.405   3.659  0.1692  0.2257  0.1595
 3244W        W22098   1.615   0.761   4.053 -0.1459 -0.1736  0.0115
 3245W        W22099   7.101   9.271  17.134  0.0158  0.1313  0.0630
 3246W        W22100  16.255   2.030   3.448  0.3105 -0.4300  0.0338
 3247W        W22101  13.529  12.333   3.912 -0.2712 -0.0437  0.0980
 3248W        W22102  13.467   1.433  16.191 -0.1053  0.0471  0.2536
 3249W        W22103  14.585  11.602   1.815 -0.3473  0.1723 -0.1341
 3250W        W22104   1.506   1.012  17.057 -0.0055 -0.0290 -0.0499
 3251W        W22105  11.100  12.133   3.410 -0.1055 -0.0758 -0.0498
 3252W        W22106   7.684   4.873  14.346  0.1237 -0.0675 -0.0123
 3253W        W22107   1.860  13.104   3.592  0.1807 -0.0335  0.3618
 3254W        W22108  14.845  13.435   3.708  0.2729  0.1551 -0.1527
 3255W        W22109   1.964  16.816  13.878 -0.2338  0.0758  0.0901
 3256W        W22110   1.349   7.289   0.051  0.1885  0.0037 -0.0358
 3257W        W22111  11.676  11.395  16.370 -0.0909 -0.0854 -0.1009
 3258W        W22112   8.480  14.841   5.102  0.1739 -0.0979 -0.1732
 3259W        W22113   7.821   2.080  15.122 -0.1390 -0.0607 -0.0544
 3260W        W22114   9.056   6.857   0.183 -0.1574 -0.1472  0.0318
 3261W        W22115  13.961  12.766  14.050  0.0196 -0.1395  0.1295
 3262W        W22116   7.242   1.293   3.481 -0.1404 -0.2122 -0.1990
 3263W        W22117  11.699  10.720  13.872  0.2148 -0.0895  0.0656
 3264W        W22118   7.944   5.973  13.939  0.4206  0.2667 -0.1511
 3265W        W22119   8.654   0.754  15.681  0.1002  0.1989  0.0836
 3266W        W22120   2.952   0.522   0.748  0.1694  0.0458 -0.0675
 3267W        W22121   8.073   9.493   3.991 -0.0091 -0.0338  0.2924
 3268W        W22122  17.476   3.695   2.748 -0.0884  0.0422  0.1464
 3269W        W22123  13.168   4.280  15.797 -0.2073 -0.0932 -0.0396
 3270W        W22124   6.851   7.312  14.682  0.0384  0.1506  0.2639
 3271W        W22125  15.169   5.507   0.114  0.1911 -0.1761  0.1018
 3272W        W22126   9.342  13.573  14.998 -0.0422  0.1160 -0.2409
 3273W        W22127   6.117  11.712   1.426  0.3230  0.1231 -0.0494
 3274W        W22128  14.475   2.628   1.693 -0.0053 -0.0107 -0.0473
 3275W        W22129   3.372   1.126  13.602  0.2045  0.1122 -0.0007
 3276W        W22130   8.238   0.391   4.504  0.1661 -0.1361  0.0870
 3277W        W22131   5.782   0.751  15.607  0.2840 -0.3756 -0.0476
 3278W        W22132   1.266   8.559  13.999 -0.2255 -0.0459 -0.0180
 3279W        W22133   6.431   5.356  15.844  0.1017  0.2926 -0.2390
 3280W        W22134   1.665   5.006   3.552  0.3544  0.1886  0.1694
 3281W        W22135   9.565  15.788   3.366 -0.2309 -0.0301  0.1544
 3282W        W22136  16.123   7.279  16.540  0.1200  0.2050  0.0154
 3283W        W22137  17.237   5.389  16.511  0.0323 -0.2072 -0.0981
 3284W        W22138   5.312   1.199  16.208 -0.2027 -0.4548 -0.1755
 3285W        W22139   9.604  15.927  16.440 -0.0874  0.0983 -0.2057
 3286W        W22140   5.747   6.107   0.765 -0.1268  0.2873  0.0873
 3287W        W22141   5.329  16.960   3.342 -0.0255  0.0600  0.3539
 3288W        W22142   7.018   7.950   2.133 -0.1320 -0.0006  0.2910
 3289W        W22143  14.562   0.168   1.497  0.0542 -0.1207 -0.0961
 3290W        W22144  15.960   6.793   4.944 -0.3374 -0.1300 -0.0706
 3291W        W22145   3.966  14.127  14.826 -0.0055 -0.1192 -0.0597
 3292W        W22146   2.433   5.783  11.919 -0.0670  0.0189 -0.1439
 3293W        W22147   0.846  13.740   4.955  0.0429 -0.1324  0.1137
 3294W        W22148   0.479   1.682  17.247 -0.1893  0.4291 -0.0682
 3295W        W22149   7.626   2.829  16.239 -0.2062 -0.1440  0.2447
 3296W        W22150  12.274   0.482  16.775 -0.2494 -0.0542 -0.1843
 3297W        W22151  14.906  16.024  13.612 -0.1325  0.1748  0.0712
 3298W        W22152  14.513  10.369  13.065 -0.0783  0.1610 -0.1188
 3299W        W22153  16.058   0.360   1.628  0.0123 -0.1648  0.1951
 3300W        W22154   5.970  12.337   2.788 -0.0713 -0.1714  0.3511
 3301W        W22155  17.392   5.335  15.611 -0.1959  0.1680 -0.1122
 3302W        W22156   1.432  14.598  16.550 -0.0841  0.0111  0.0888
 3303W        W22157  13.462   8.457  16.137 -0.1857  0.0724 -0.1062
 3304W        W22158   5.558  14.835   2.725  0.1482  0.1918  0.3118
 3305W        W22159   3.912   9.835  16.057 -0.1880  0.0285  0.0864
 3306W        W22160   1.514  15.343  14.540  0.1197 -0.2009  0.0749
 3307W        W22161  14.124  14.541   4.452 -0.4316  0.0374  0.3447
 3308W        W22162   1.964   2.096  12.840 -0.1151 -0.0480  0.4371
 3309W        W22163   1.534  16.348   2.726  0.1603 -0.2593  0.2637
 3310W        W22164  12.543   8.181   3.068 -0.0240  0.0453  0.1405
 3311W        W22165   6.777   2.345  16.571  0.1927  0.0793 -0.3238
 3312W        W22166   9.661  12.728  15.341  0.3838  0.0376  0.0574
 3313W        W22167   7.565   8.859  16.935 -0.0581 -0.1052 -0.2221
 3314W        W22168   7.693  16.854  15.868 -0.3719  0.0215  0.1530
 3315W        W22169  12.100  12.461  12.809 -0.2008  0.2046  0.0026
 3316W        W22170   1.809   5.937   0.262 -0.0386  0.0083  0.0374
 3317W        W22171  16.431  16.134  13.266 -0.0733 -0.0366  0.1258
 3318W        W22172  15.199   3.334   4.858  0.1353 -0.0318  0.0446
 3319W        W22173  15.184   6.419  14.449 -0.1596 -0.1681 -0.0769
 3320W        W22174  11.575   6.136  14.630  0.0965  0.0397  0.0122
 3321W        W22175   5.720   6.080  16.051 -0.0058  0.1684  0.1580
 3322W        W22176  17.320  10.234  12.805 -0.1776 -0.0047  0.0656
 3323W        W22177   6.703  13.966  12.277  0.0810 -0.0818 -0.0937
 3324W        W22178   4.489   3.741   1.869  0.1309  0.0355  0.1157
 3325W        W22179  17.437   0.550  14.238  0.0748 -0.2004 -0.4417
 3326W        W22180   7.445  16.662  14.980 -0.0309 -0.3301 -0.2582
 3327W        W22181   6.694  13.445   4.982  0.2507 -0.3244  0.3523
 3328W        W22182  10.738   7.159  13.492  0.2989  0.0699 -0.1264
 3329W        W22183   1.502  14.756   4.411  0.0615  0.0370 -0.1528
 3330W        W22184   6.919  13.884  14.250 -0.3393 -0.1675  0.1441
 3331W        W22185  15.119   6.243   2.314 -0.3806  0.2426  0.2050
 3332W        W22186  15.851   4.661   2.696 -0.4185  0.1337 -0.0885
 3333W        W22187  10.715   9.461  12.844  0.2500 -0.3969  0.4414
 3334W        W22188   3.510   5.798   2.521  0.1972  0.0780  0.3832
 3335W        W22189   4.742   1.145  14.844  0.1413 -0.3290  0.1103
 3336W        W22190  12.016   4.976  13.636 -0.3573 -0.1541 -0.0521
 3337W        W22191   3.039   1.859  14.542 -0.0589 -0.0122 -0.4088
 3338W        W22192   6.878   4.457  15.211 -0.3899 -0.1662  0.2017
 3339W        W22193   9.637  15.078   3.798  0.0649  0.0191 -0.0422
 3340W        W22194   9.170   5.054   4.693 -0.2342 -0.1973  0.1714
 3341W        W22195   0.381   5.804   3.208 -0.1324  0.0571 -0.0139
 3342W        W22196  10.906  17.580   1.191  0.3408  0.3403 -0.1769
 3343W        W22197   7.893   7.590  15.454 -0.1323  0.0330  0.0708
 3344W        W22198  10.674   6.488   1.777 -0.1083  0.3730  0.1809
 3345W        W22199   4.008   7.922   2.049  0.0667 -0.1130 -0.0889
 3346W        W22200  17.429  16.146   4.435  0.2686 -0.2232 -0.1462
 3347W        W22201  13.689   8.417   0.845 -0.0576 -0.2164  0.0873
 3348W        W22202  16.679   2.525  16.581 -0.0322 -0.0783  0.0041
 3349W        W22203  12.191  11.537   5.228 -0.2646 -0.0555  0.3099
 3350W        W22204  15.797  11.258  15.707  0.1796 -0.0377  0.1521
 3351W        W22205  15.280   7.692  15.974  0.0525  0.0072  0.0187
 3352W        W22206   8.973   3.966  14.109  0.1046 -0.3144  0.1941
 3353W        W22207  12.985   3.572  15.052  0.0653 -0.3393  0.0691
 3354W        W22208   9.147   5.781   2.010  0.2515 -0.0646 -0.0466
 3355W        W22209  16.921   9.043   2.356  0.0186 -0.1012  0.0707
 3356W        W22210   2.428   6.938   2.404  0.0374 -0.1401  0.1778
 3357W        W22211   7.474  16.621  15.462 -0.0241  0.1943 -0.1592
 3358W        W22212  13.630   8.131  13.484 -0.0142 -0.0833 -0.0785
 3359W        W22213  10.969   7.006  15.995 -0.0865  0.2422 -0.1842
 3360W        W22214  12.607  15.758   0.413 -0.1831  0.2612  0.1910
 3361W        W22215   8.159  15.122  13.490 -0.0414 -0.1060  0.0839
 3362W        W22216  16.565   5.076  12.024  0.1008  0.0207 -0.2956
 3363W        W22217  14.630  16.766   3.801  0.1645 -0.1120  0.1272
 3364W        W22218  13.421   9.932   5.045  0.1696 -0.1218  0.3535
 3365W        W22219   1.027   2.497   0.829  0.5937  0.1909 -0.1526
 3366W        W22220   2.733   5.769  14.084  0.3401  0.2408  0.1891
 3367W        W22221  16.631  16.121  13.700  0.2397  0.3528 -0.1829
 3368W        W22222   8.675  16.997  14.430 -0.0978 -0.0628 -0.1408
 3369W        W22223  16.229  11.777  13.731  0.0508 -0.2380  0.2018
 3370W        W22224  15.635   1.168  16.040 -0.0302 -0.3311 -0.0176
 3371W        W22225  14.799   0.971   1.089 -0.1568  0.0468 -0.1250
 3372W        W22226  11.519  16.348  15.029  0.0853  0.2752 -0.0015
 3373W        W22227   7.683   3.574   1.668  0.0204  0.2938 -0.0675
 3374W        W22228   6.655   0.504  16.995 -0.4131 -0.0328  0.1391
 3375W        W22229   2.662   1.326   5.255  0.0332 -0.2834  0.0456
 3376W        W22230   0.843  11.555  12.782 -0.0860  0.5335  0.3463
 3377W        W22231  14.478  10.392  12.284 -0.3784 -0.0895 -0.0836
 3378W        W22232   5.812   9.006  12.475  0.0746 -0.0304  0.2511
 3379W        W22233   7.054  10.058   2.087  0.2987 -0.1471 -0.1445
 3380W        W22234   7.955  12.978   2.687 -0.0745 -0.1206  0.1454
 3381W        W22235  16.494   5.456   1.398  0.0130  0.2218  0.0784
 3382W        W22236   5.278  11.943  16.610 -0.2746 -0.1280  0.1571
 3383W        W22237   9.718   2.234  14.300 -0.0167  0.3708  0.0749
 3384W        W22238   2.381   4.816  11.857 -0.0268 -0.0447 -0.1869
 3385W        W22239   3.161   6.403  14.705  0.0595  0.1188 -0.1557
 3386W        W22240  11.043  13.108  16.521 -0.1560  0.4101 -0.2748
 3387W        W22241  10.722   5.147   1.147  0.2619  0.0701  0.0179
 3388W        W22242  17.044   6.600  11.597  0.0218 -0.2416 -0.1104
 3389W        W22243  15.416   2.676  13.509 -0.1489 -0.0157  0.0658
 3390W        W22244  17.500   6.627   0.830 -0.2799  0.0242 -0.1230
 3391W        W22245   4.791   6.603   0.291  0.0709 -0.0235  0.0225
 3392W        W22246  17.276   0.455  16.665 -0.0513  0.1692  0.3073
 3393W        W22247  13.191   6.824  14.902 -0.1251 -0.0131 -0.0737
 3394W        W22248   2.804  10.795   5.494  0.0932  0.0735 -0.2133
 3395W        W22249  11.252   0.397   4.658 -0.0170 -0.3146  0.0945
 3396W        W22250  14.373   4.934   2.347 -0.0258  0.2618 -0.2787
 3397W        W22251   5.959  11.858  14.946 -0.0307 -0.1982 -0.2749
 3398W        W22252  13.457   1.797  13.132 -0.0701  0.3915  0.0119
 3399W        W22253  10.021  17.014  11.411  0.0586 -0.1851  0.0095
 3400W        W22254   2.127  17.190   0.599 -0.0135  0.0193  0.0620
 3401W        W22255  10.689   8.810   2.625 -0.2132  0.0302 -0.2946
 3402W        W22256  15.747  15.202   1.747  0.2699  0.0652  0.0228
 3403W        W22257  16.465   0.902  15.368 -0.2150 -0.0464  0.1345
 3404W        W22258  11.152   6.008   3.721 -0.0162 -0.1630 -0.0079
 3405W        W22259   5.618  14.866   4.292  0.2851 -0.1524  0.0411
 3406W        W22260   5.272   8.786   4.491  0.0885 -0.1949 -0.3182
 3407W        W22261   5.368  17.590  15.368  0.1051  0.1457 -0.1839
 3408W        W22262   9.788   0.733   4.400  0.3199 -0.1930 -0.1556
 3409W        W22263   5.412   7.406   2.154  0.2643  0.1364 -0.0892
 3410W        W22264   7.972   8.109  17.065 -0.0813 -0.0118  0.0805
 3411W        W22265  16.265   1.251  12.505 -0.0169  0.2328 -0.2357
 3412W        W22266  10.567   7.874   1.583  0.2456  0.3536  0.0391
 3413W        W22267  16.021  11.607  16.481 -0.0899  0.0275  0.1451
 3414W        W22268   6.151  17.014  16.761  0.0539 -0.0006 -0.1634
 3415W        W22269  17.032   4.774  15.632 -0.1963  0.4299 -0.1385
 3416W        W22270   5.490   3.857   1.732 -0.1388 -0.1701  0.0217
 3417W        W22271   0.424   7.860  17.240  0.0327 -0.2539 -0.0050
 3418W        W22272   7.223  10.638  12.813  0.0013  0.0713 -0.2559
 3419W        W22273  11.015   2.564  12.254 -0.2379 -0.0339 -0.2664
 3420W        W22274   2.012   5.798   1.199 -0.0813 -0.1094  0.0184
 3421W        W22275  13.427   9.269   0.456  0.0955  0.0617  0.2378
 3422W        W22276  13.220   5.203   4.344  0.0854  0.1003 -0.1311
 3423W        W22277   9.216  16.742  17.119  0.1646  0.2483 -0.2081
 3424W        W22278   0.485   8.502   1.649  0.3058  0.2041  0.0472
 3425W        W22279  14.986  14.585   0.995 -0.0367  0.0848  0.0801
 3426W        W22280   7.642   9.060  12.427  0.0896 -0.0734 -0.1364
 3427W        W22281   5.358  17.029   3.826 -0.1705 -0.1417  0.0753
 3428W        W22282  13.293  10.767  12.818  0.1363 -0.0864  0.1566
 3429W        W22283   4.014  13.418   3.757 -0.0448 -0.0380  0.2003
 3430W        W22284   1.937  17.193   2.063  0.0009  0.0724 -0.0268
 3431W        W22285   6.171  15.409   3.533  0.0809  0.1034 -0.1141
 3432W        W22286   3.852   6.697  15.170  0.2898  0.0243 -0.1297
 3433W        W22287  15.100  15.592  13.687  0.1669 -0.0402  0.0765
 3434W        W22288  16.721  13.689  12.685 -0.1219  0.0762 -0.3281
 3435W        W22289   1.486   2.032  11.896  0.1258  0.1708 -0.2519
 3436W        W22290  13.814   7.509   0.413  0.4781 -0.1359 -0.1897
 3437W        W22291   2.003   4.114  11.203 -0.2929  0.1306  0.3365
 3438W        W22292  13.038   8.979   4.680 -0.0160 -0.0986  0.0788
 3439W        W22293   1.737  11.166  17.102 -0.1422  0.3394  0.0423
 3440W        W22294  16.881   3.144   3.023 -0.1894 -0.0228  0.2424
 3441W        W22295   4.581   3.477  12.769  0.3217  0.0349 -0.2027
 3442W        W22296   5.441  15.454   1.235  0.1584  0.0235  0.0819
 3443W        W22297  14.816  14.648   4.635  0.4021  0.0253  0.0328
 3444W        W22298   5.947  15.755   0.437 -0.3394  0.0071 -0.2592
 3445W        W22299  13.498   4.762   0.207  0.1340  0.0975  0.1593
 3446W        W22300   5.804  17.032  15.696  0.1461 -0.1075  0.2530
 3447W        W22301   3.812   5.921  12.646  0.0031 -0.4098  0.0251
 3448W        W22302  11.957   0.999  15.471 -0.4614 -0.1867  0.2607
 3449W        W22303   0.399   0.720  13.396  0.1975 -0.2907  0.0471
 3450W        W22304   1.615  16.571  13.573 -0.1834  0.2498 -0.0622
 3451W        W22305  11.806   8.333  13.335  0.1734 -0.0780  0.0258
 3452W        W22306  11.226   4.875  17.207 -0.3304 -0.1125  0.0220
 3453W        W22307  12.243   5.806  15.041  0.0956 -0.0180  0.0541
 3454W        W22308  13.700  11.774  15.128 -0.2855 -0.0531 -0.2945
 3455W        W22309   0.002   4.502  16.727 -0.0104  0.0465 -0.2735
 3456W        W22310  12.476  10.631  12.310  0.2345  0.0068 -0.0748
 3457W        W22311   7.678  10.332  12.593 -0.1643 -0.1125 -0.0307
 3458W        W22312   5.770   3.132   4.757 -0.0948 -0.0107  0.1656
 3459W        W22313   5.670  15.772  16.517 -0.0239  0.0387 -0.0205
 3460W        W22314   3.617   6.572   3.360  0.2074  0.1994 -0.0690
 3461W        W22315  17.029   1.655  16.570 -0.1112 -0.1022 -0.0129
 3462W        W22316   8.946   7.665   1.904  0.1291 -0.1116  0.1536
 3463W        W22317  15.756   0.827   2.773  0.1427  0.0293 -0.3434
 3464W        W22318   3.271   2.825   5.043 -0.2362  0.0975 -0.1047
 3465W        W22319  17.501   0.218   0.392 -0.1738 -0.0865 -0.1303
 3466W        W22320  14.602   9.011   2.865  0.0520  0.0353 -0.0317
 3467W        W22321   5.238   5.885  15.855 -0.3422 -0.0389  0.3634
 3468W        W22322   4.057  10.186   1.604 -0.0643 -0.0337  0.0661
 3469W        W22323   0.696  14.265   0.363  0.1954  0.1938  0.0477
 3470W        W22324  15.733  13.151  15.098 -0.0289 -0.0554 -0.3082
 3471W        W22325   1.459  11.904   4.485  0.2924  0.0538  0.1332
 3472W        W22326   4.877  13.231   2.933  0.0678  0.0314  0.2546
 3473W        W22327   1.527   5.907   5.220  0.3700  0.2553 -0.0389
 3474W        W22328   2.170  11.533  14.489 -0.1519  0.2825 -0.0453
 3475W        W22329   1.787   2.962  12.565 -0.2185  0.1423 -0.1950
 3476W        W22330   2.776  10.251  14.906  0.1317 -0.0496  0.2014
 3477W        W22331  16.186  16.110   3.950 -0.0259  0.2438  0.1772
 3478W        W22332  13.232  11.850   2.330  0.1601  0.0283  0.1569
 3479W        W22333   2.794  14.161  13.443  0.0743  0.0980  0.0538
 3480W        W22334  14.176   0.886   3.963 -0.0704 -0.1666 -0.2565
 3481W        W22335   4.772  12.285  14.171 -0.4238 -0.0579  0.1939
 3482W        W22336   8.445   1.554   1.737  0.1653  0.0072  0.1998
 3483W        W22337  13.820  11.146   0.215 -0.4729 -0.2951 -0.0647
 3484W        W22338  11.776   2.057   3.856  0.2001  0.1590  0.0486
 3485W        W22339   7.781   4.668   0.038 -0.0993  0.4208 -0.0692
 3486W        W22340  12.650  14.374   0.523  0.0809  0.2436  0.1561
 3487W        W22341  10.855  11.433  16.580  0.1206 -0.0737  0.1428
 3488W        W22342   4.158   8.137   0.712 -0.1026  0.0825 -0.1903
 3489W        W22343  14.018   6.257  12.997  0.2120  0.2569  0.3993
 3490W        W22344   3.332   1.003   4.925  0.0983  0.0807 -0.2423
 3491W        W22345   0.856   9.153  13.630  0.2488 -0.0180 -0.0732
 3492W        W22346   0.331  10.320  14.520  0.0168 -0.1785 -0.4470
 3493W        W22347   3.473  16.517   4.661 -0.1256  0.2370  0.0598
 3494W        W22348   4.558   8.107  16.618  0.0594  0.0309  0.3946
 3495W        W22349   2.139  10.515  12.554  0.0862 -0.0457 -0.0714
 3496W        W22350   9.407   2.583  11.995  0.0018 -0.0991  0.4568
 3497W        W22351   8.358  13.113   0.573  0.0539 -0.0881 -0.0547
 3498W        W22352   1.740  11.655  15.340 -0.1746  0.1726 -0.1825
 3499W        W22353   0.672   6.870   4.413 -0.2793  0.1511 -0.0327
 3500W        W22354   4.717  11.108  12.387 -0.2271 -0.2272  0.1942
 3501W        W22355  12.295  14.949  12.294  0.1413  0.0689 -0.3298
 3502W        W22356   6.849  16.910   3.574 -0.2606  0.3915 -0.0426
 3503W        W22357   6.258   0.719   0.528  0.0820 -0.2809 -0.1004
 3504W        W22358   1.009   4.999  14.665 -0.1526  0.2851 -0.1441
 3505W        W22359   6.113  12.845  14.938  0.0119  0.2502 -0.4095
 3506W        W22360  12.837  12.103   0.388  0.0238 -0.0649  0.1054
 3507W        W22361  10.679   5.423  12.350  0.3217  0.3607 -0.0480
 3508W        W22362   5.237  17.171   4.888  0.0086  0.0840  0.3050
 3509W        W22363   3.479   2.296   2.808 -0.0583 -0.4208 -0.1710
 3510W        W22364  10.194   3.649  14.282  0.1545  0.0154 -0.1472
 3511W        W22365  13.111   0.129   0.078 -0.1081 -0.0708  0.2157
 3512W        W22366  14.305   8.280  16.111  0.2710  0.2485 -0.3414
 3513W        W22367  11.268  10.758   2.295  0.1012  0.0321 -0.2306
 3514W        W22368  13.427  12.029  15.447  0.0489  0.0965  0.1402
 3515W        W22369   3.377  11.914   1.028 -0.1332  0.2354  0.1674
 3516W        W22370  17.105   4.921   4.930  0.1841  0.0172 -0.1263
 3517W        W22371   5.239  13.739  12.780 -0.0036 -0.0053  0.0334
 3518W        W22372   6.572   2.701  14.339 -0.0182 -0.1701  0.1769
 3519W        W22373   2.112   8.168  17.036  0.3031  0.0465 -0.1501
 3520W        W22374  14.133  11.027  12.705  0.2443  0.0400 -0.1134
 3521W        W22375   2.164  14.328  14.256  0.1382  0.0843  0.2364
 3522W        W22376  15.637   5.031  12.367  0.0170  0.3122 -0.2972
 3523W        W22377   8.580  11.920  13.991  0.0969 -0.1360 -0.1070
 3524W        W22378   5.631   3.582   4.899  0.3759 -0.4043  0.2823
 3525W        W22379   6.751  15.463  13.212  0.2840  0.0244  0.1711
 3526W        W22380  12.472  15.320   4.427  0.0850  0.1393  0.4116
 3527W        W22381   2.988   5.493  13.098 -0.1204  0.1014  0.0120
 3528W        W22382   9.448   5.037   1.512  0.2682 -0.1900 -0.2025
 3529W        W22383  14.416   1.590   4.885  0.0821 -0.0418 -0.0731
 3530W        W22384   5.670   3.248   0.201 -0.0091  0.3711 -0.2053
 3531W        W22385   5.571  17.211  13.852 -0.1249 -0.1613  0.1273
 3532W        W22386  13.064   7.861  14.956  0.0062 -0.0865 -0.0576
 3533W        W22387   9.212  13.379  13.473 -0.0212  0.0804 -0.0506
 3534W        W22388  16.611  12.907  14.367 -0.1056 -0.4055  0.1652
 3535W        W22389   3.468  14.416   1.749  0.0047  0.1247  0.0287
 3536W        W22390  10.661  13.134  11.831  0.1065 -0.1129  0.2067
 3537W        W22391   1.842   7.144   4.475  0.1562  0.1525  0.1200
 3538W        W22392   7.329  12.507   1.299  0.1360 -0.0394 -0.0303
 3539W        W22393   2.435  13.499  14.547  0.1693  0.1037  0.0070
 3540W        W22394  11.744   4.389  16.822 -0.2889  0.0604  0.0219
 3541W        W22395   4.418   6.316  13.764  0.0338 -0.0660 -0.2303
 3542W        W22396   0.994   0.793  12.227 -0.0028  0.0614  0.1918
 3543W        W22397   2.606   0.428   3.985  0.2089  0.1053 -0.2201
 3544W        W22398   2.065   0.928   2.478  0.0056 -0.2096 -0.0719
 3545W        W22399  17.584   8.058   0.057  0.1299 -0.1699 -0.1874
 3546W        W22400   9.783   0.697   2.037 -0.0272 -0.1549 -0.0536
 3547W        W22401  10.255  17.584   1.631 -0.0570  0.1941 -0.1898
 3548W        W22402   7.547   4.926  16.947  0.2770  0.1360 -0.0900
 3549W        W22403  15.939   4.629  14.010  0.0655  0.1210 -0.1302
 3550W        W22404  12.330  14.579   3.694  0.0277  0.3992  0.1817
 3551W        W22405  13.487   3.772   3.070  0.0930 -0.1050 -0.1068
 3552W        W22406  13.490  10.571  16.858 -0.0717 -0.3519 -0.0761
 3553W        W22407   8.115  14.936   1.179  0.0676  0.0263 -0.1061
 3554W        W22408   6.359  13.969   6.176 -0.0840  0.0827  0.3909
 3555W        W22409  11.280   3.516  15.977  0.1744  0.2306 -0.0309
 3556W        W22410   5.248   3.466  13.700 -0.0854  0.2957  0.1215
 3557W        W22411  10.329   2.038  12.068  0.0963 -0.2150  0.1319
 3558W        W22412  13.783  15.115  16.716  0.0117  0.5121  0.0386
 3559W        W22413   9.552  14.285  11.661 -0.1217  0.1030 -0.0602
 3560W        W22414  16.524  14.581  15.172 -0.5643  0.0949 -0.0714
 3561W        W22415   2.325   3.615   3.841  0.0620  0.5132 -0.1365
 3562W        W22416   5.858   8.399  14.354  0.0127  0.0283  0.0570
 3563W        W22417   7.840   8.420   2.602 -0.0712 -0.0307 -0.1865
 3564W        W22418  15.079   9.377   4.165 -0.1581  0.0504  0.1825
 3565W        W22419   4.780   8.223   4.917  0.4295 -0.0844 -0.0092
 3566W        W22420  17.230   8.391   1.544 -0.2975 -0.4174  0.1737
 3567W        W22421  16.785  12.517  12.924  0.1960 -0.0804  0.1860
 3568W        W22422  11.070   5.616   2.357 -0.0394  0.2079 -0.2089
 3569W        W22423  14.351   0.043  15.362 -0.0287 -0.2782  0.3707
 3570W        W22424  15.560   8.771  12.782 -0.0804  0.3161 -0.2086
 3571W        W22425   1.718   4.499   3.330 -0.1122  0.3927 -0.0913
 3572W        W22426   5.244  10.670   2.413  0.2584 -0.0800 -0.1991
 3573W        W22427   9.556   2.655   2.909 -0.1540  0.0883  0.2692
 3574W        W22428   8.711   9.567  14.312  0.0501  0.1871 -0.0188
 3575W        W22429  15.046  12.502  13.658  0.0644 -0.0856  0.0090
 3576W        W22430   1.355   6.580   1.291  0.0527 -0.0668  0.1961
 3577W        W22431  10.151  15.197   0.688  0.2219 -0.0652 -0.0541
 3578W        W22432   3.076   1.144   1.074 -0.1384  0.2901 -0.1921
 3579W        W22433   5.562   3.719  12.842  0.0298 -0.0165 -0.0299
 3580W        W22434   9.583   8.043   4.064  0.1633  0.2073 -0.0784
 3581W        W22435   3.809   5.017   5.850 -0.0004  0.1014 -0.0071
 3582W        W22436   4.164   3.789   4.059 -0.0071  0.0761  0.1302
 3583W        W22437   9.067  14.487  15.198  0.1759 -0.0007  0.0085
 3584W        W22438   6.900   4.439   3.192 -0.1334  0.1944 -0.0575
 3585W        W22439  15.320  17.475   1.259 -0.2033  0.0730 -0.1440
 3586W        W22440   3.481  13.818   3.062  0.1482 -0.3094 -0.1187
 3587W        W22441  12.689   5.520  15.074 -0.3452 -0.0398 -0.2367
 3588W        W22442   2.269   3.914  16.116  0.2253 -0.0730  0.0311
 3589W        W22443   8.290  17.127   2.361  0.0237  0.0919 -0.2876
 3590W        W22444   5.465   2.107  12.955  0.0309  0.1933  0.2739
 3591W        W22445  10.008   5.180   0.806 -0.1058  0.0415  0.2745
 3592W        W22446  16.722  14.762   2.550 -0.0794  0.0974 -0.2104
 3593W        W22447   5.081   2.132   2.126  0.1019  0.0092 -0.0125
 3594W        W22448   4.668   9.234   3.328  0.1778 -0.2176  0.0660
 3595W        W22449   1.123   2.075   0.579  0.0857  0.0158  0.1028
 3596W        W22450   2.885  16.039   4.084 -0.0004 -0.1504  0.0994
 3597W        W22451   7.523   1.557  14.414  0.1006  0.0016 -0.0973
 3598W        W22452  14.432   1.384   1.982  0.0605 -0.0188 -0.0910
 3599W        W22453  15.147  14.969   0.383  0.1030  0.0006  0.1135
 3600W        W22454  17.337   4.774  16.477  0.1221 -0.2302  0.2340
 3601W        W22455  14.940   8.968   3.874  0.0350  0.0679 -0.0567
 3602W        W22456   5.185  17.375  14.945  0.0412  0.0092  0.1726
 3603W        W22457   1.187   5.430  14.447 -0.0372  0.0268 -0.2480
 3604W        W22458   6.791   1.904   5.007 -0.0753  0.1956  0.1240
 3605W        W22459  14.210  10.487   2.333 -0.1760 -0.3570  0.0701
 3606W        W22460   1.915  14.476  16.718  0.0428  0.0962 -0.0934
 3607W        W22461  13.874   1.685  16.433 -0.1126  0.0794  0.0631
 3608W        W22462   4.905   6.294   4.245 -0.0543  0.0402  0.2288
 3609W        W22463   6.603  11.985  13.717 -0.0442 -0.0772  0.1720
 3610W        W22464   8.820   3.704   0.074 -0.1988 -0.2725 -0.0500
 3611W        W22465   7.777  12.379   1.138 -0.0420 -0.0442 -0.0802
 3612W        W22466   7.557   7.305   0.391 -0.0826 -0.1727  0.1095
 3613W        W22467  17.558  13.783  13.026  0.1159 -0.1054  0.4407
 3614W        W22468   9.554   4.637  15.103  0.2879 -0.0324  0.2612
 3615W        W22469  14.723  17.521  16.908  0.0186 -0.0943 -0.0531
 3616W        W22470  11.846   6.100   1.867  0.1992 -0.0926  0.1673
 3617W        W22471   0.702   3.065   1.717 -0.1404  0.0423 -0.0074
 3618W        W22472   8.353   1.502   3.635 -0.3184 -0.1110  0.0470
 3619W        W22473   3.740  13.996   4.546 -0.1007 -0.2644  0.3693
 3620W        W22474   1.834  15.939  12.325 -0.0819 -0.2280 -0.0182
 3621W        W22475  17.544   8.052  14.631  0.3209  0.0549  0.0318
 3622W        W22476  11.976  13.754   0.904 -0.1063 -0.0840 -0.0341
 3623W        W22477   4.496   9.803   3.354 -0.3349  0.0952 -0.2141
 3624W        W22478   8.016  16.767  13.611  0.0078  0.1137 -0.0704
 3625W        W22479   5.029  11.829   2.684  0.3407  0.1088  0.0600
 3626W        W22480  16.046   3.712  16.202 -0.1049 -0.1920 -0.0369
 3627W        W22481  11.008   8.828   3.140 -0.1209  0.1356 -0.1393
 3628W        W22482   6.829  15.964  13.293 -0.1921  0.3567 -0.3984
 3629W        W22483   3.147   6.078  13.999  0.0986  0.0146  0.0049
 3630W        W22484   1.218   6.583   2.358 -0.1272 -0.1065 -0.7489
 3631W        W22485  10.218  16.774  15.675 -0.1114 -0.0844 -0.1405
 3632W        W22486  15.724   8.866  11.876  0.0504 -0.1584 -0.0508
 3633W        W22487   6.630   3.156   3.890  0.4395  0.3473 -0.2420
 3634W        W22488  10.461  11.458  16.895  0.2753  0.1751  0.1902
 3635W        W22489  11.422   3.893   1.779  0.0550  0.0825  0.2299
 3636W        W22490   5.756   0.354  15.251 -0.1298 -0.2448 -0.0843
 3637W        W22491   6.213  12.897  16.455 -0.1019 -0.1045 -0.0283
 3638W        W22492   4.556   3.577  11.953 -0.3469 -0.3432  0.1499
 3639W        W22493   0.585  10.297  15.223  0.2052  0.2890 -0.0569
 3640W        W22494   0.132  14.673   3.489 -0.1322 -0.1630 -0.0952
 3641W        W22495  17.484  15.386  15.423  0.3895  0.1694 -0.0508
 3642W        W22496   3.339   0.788   1.529  0.3003 -0.1802 -0.2350
 3643W        W22497   4.328   0.645   3.460 -0.2460 -0.1546 -0.1705
 3644W        W22498  13.229  16.152  15.805 -0.1552 -0.1946 -0.2698
 3645W        W22499   6.300  15.608   2.747 -0.0672  0.1416 -0.2184
 3646W        W22500   1.790   5.051  16.857 -0.1513 -0.0723  0.2218
 3647W        W22501  11.135   3.685   2.652 -0.1244  0.1728  0.1302
 3648W        W22502  15.054  14.696   3.923  0.4628 -0.0589 -0.0241
 3649W        W22503  10.086  15.352  16.353  0.0789  0.1807  0.2478
 3650W        W22504  12.003  10.483  15.147  0.0307 -0.0349 -0.2328
 3651W        W22505   0.129   8.567   1.970 -0.0237 -0.0949 -0.0698
 3652W        W22506  15.875  13.359   1.764  0.3045  0.2116 -0.4023
 3653W        W22507   7.573   9.885   3.386  0.0675  0.0087 -0.0076
 3654W        W22508  13.905   8.897  14.730  0.1282 -0.2264  0.0769
 3655W        W22509  14.123  12.866   2.775  0.3354  0.4200  0.0152
 3656W        W22510   1.214   8.767  15.374 -0.1216 -0.0893 -0.1593
 3657W        W22511   0.316   5.528   2.427  0.0915  0.0358  0.2547
 3658W        W22512  14.863   0.313   4.348 -0.0954 -0.0382 -0.0959
 3659W        W22513  15.336  10.500   3.369 -0.2510 -0.0554  0.0397
 3660W        W22514  14.111   1.974   4.708  0.2607  0.2129 -0.0861
 3661W        W22515   3.364  14.298  15.652  0.0918 -0.1644  0.1101
 3662W        W22516   8.132   3.911  16.712 -0.3006 -0.0870  0.1758
 3663W        W22517   3.399   7.939  16.565  0.2898 -0.0999  0.3624
 3664W        W22518   5.491   5.558   4.395 -0.1633  0.1997  0.1048
 3665W        W22519   0.715   9.388  12.342  0.0619 -0.4789  0.0537
 3666W        W22520  13.080   0.388  14.476  0.0073  0.0249 -0.1254
 3667W        W22521  15.015  12.965   2.581  0.2501  0.0628  0.1564
 3668W        W22522   5.511   7.058   0.449 -0.3833 -0.0268 -0.1800
 3669W        W22523   3.671  15.989  16.907 -0.0167  0.0541  0.2048
 3670W        W22524   5.411  14.570  12.993  0.1487 -0.0684 -0.2506
 3671W        W22525   5.731   6.830  14.341  0.0801 -0.3952  0.0451
 3672W        W22526   6.048  11.350   1.781  0.0273  0.1188  0.1681
 3673W        W22527  13.527  15.972   1.576 -0.2037 -0.0615  0.0806
 3674W        W22528  12.130   1.849   2.925 -0.3735 -0.1898 -0.2816
 3675W        W22529   9.529   0.801   3.632 -0.0834 -0.2127  0.1420
 3676W        W22530   8.128   4.035  15.840 -0.0464 -0.0608 -0.3101
 3677W        W22531   9.128   2.147   3.769 -0.1274 -0.1617 -0.0345
 3678W        W22532  15.494   8.075  12.554  0.2138  0.3847 -0.1707
 3679W        W22533  15.356   3.528  13.266  0.1317  0.1384 -0.2209
 3680W        W22534  17.064   2.219  12.502  0.0758 -0.1605  0.0210
 3681W        W22535  11.472   3.148  16.543  0.2342 -0.3014  0.0061
 3682W        W22536   8.397   2.278   0.773 -0.1671  0.0152  0.0506
 3683W        W22537   8.372   8.810  14.307 -0.4034 -0.1031  0.4001
 3684W        W22538   6.561   9.343   4.636  0.0322 -0.0508  0.0289
 3685W        W22539   1.129   9.026   2.088 -0.3263 -0.1603 -0.1322
 3686W        W22540  17.085   4.420   3.440 -0.0188 -0.3570 -0.2823
 3687W        W22541  12.108   6.546  16.210  0.1163  0.2307  0.0363
 3688W        W22542  14.371  13.634   1.910  0.0532  0.2352 -0.0385
 3689W        W22543  16.921   5.848   1.460  0.0159  0.1123 -0.2584
 3690W        W22544  16.454   5.462  16.021  0.0619 -0.1411  0.0167
 3691W        W22545  14.343   0.560  13.822  0.4278  0.2595  0.5387
 3692W        W22546  14.810  11.316   2.148 -0.0694  0.0386 -0.0565
 3693W        W22547   5.393  13.631   4.106  0.2545  0.2217 -0.3146
 3694W        W22548  10.142  14.584   1.769 -0.0815 -0.0949  0.0364
 3695W        W22549   5.548   3.614   2.604 -0.1694  0.2213  0.1309
 3696W        W22550   9.302   6.523   4.124 -0.0461 -0.1104 -0.2283
 3697W        W22551  17.242  11.630   3.496 -0.1665  0.0049  0.2469
 3698W        W22552   1.816   4.144   4.482 -0.4033 -0.2854  0.1509
 3699W        W22553   6.190   9.531  11.248  0.1937  0.3219  0.1979
 3700W        W22554   1.754   0.114  16.676 -0.0247  0.0045  0.0521
 3701W        W22555   6.837   3.695   2.142  0.1697  0.1913  0.0815
 3702W        W22556   4.018   0.286   3.560  0.1589 -0.1232  0.2405
 3703W        W22557   2.511  14.073   1.981  0.4231 -0.3224  0.3267
 3704W        W22558   8.841   9.474  12.180  0.0241 -0.2859 -0.1182
 3705W        W22559  13.082   3.254   2.524 -0.2953 -0.1545 -0.0921
 3706W        W22560  16.845  16.667  15.388 -0.1470  0.2139 -0.3537
 3707W        W22561   2.133  15.896   0.095 -0.1281 -0.2616  0.2916
 3708W        W22562   8.468   9.603   3.275  0.0833 -0.1958 -0.2065
 3709W        W22563   6.507  11.621   1.891 -0.2289 -0.3565  0.2335
 3710W        W22564  13.593   7.783   2.291  0.1712  0.0187 -0.0837
 3711W        W22565  14.086  16.715  13.855  0.3175 -0.3966 -0.0700
 3712W        W22566  14.928  11.876  14.702  0.2746 -0.2170  0.2226
 3713W        W22567   5.454  15.680  13.760 -0.1891  0.0744 -0.4746
 3714W        W22568  16.521   7.813   1.873  0.0025  0.1774  0.0011
 3715W        W22569  13.880   6.825   5.079  0.1628  0.0048  0.1600
 3716W        W22570   8.142  15.060   2.741 -0.1967  0.2379  0.0986
 3717W        W22571   1.460   2.713  15.849 -0.1253  0.0174  0.2218
 3718W        W22572   6.731  12.831  13.299  0.1172 -0.3690  0.0340
 3719W        W22573   9.655   1.170   1.765  0.2822  0.1172 -0.0055
 3720W        W22574  16.086   3.403  12.565 -0.4231 -0.0219 -0.1220
 3721W        W22575  17.240   6.555  13.763  0.3549 -0.1645 -0.0573
 3722W        W22576  13.921   6.619  13.360 -0.0050 -0.0510  0.6210
 3723W        W22577  11.954  10.701  12.261  0.2953  0.0573  0.4115
 3724W        W22578  15.746  16.676  14.675  0.1766 -0.2169  0.0191
 3725W        W22579   2.641   4.425   4.994  0.1568  0.0792 -0.0063
 3726W        W22580   7.335   0.607   4.722 -0.0885  0.4186  0.1100
 3727W        W22581   1.112   9.257  15.467  0.0693  0.0683 -0.0198
 3728W        W22582   2.699   5.608   2.765 -0.0340  0.1314 -0.0679
 3729W        W22583  11.268   4.742  16.292 -0.1327  0.1175  0.1712
 3730W        W22584  13.599  12.251   1.476  0.1252  0.3300 -0.0290
 3731W        W22585   9.629  15.285   1.349 -0.2512 -0.1353  0.1701
 3732W        W22586   6.113  11.950  14.319 -0.3077  0.0184  0.2367
 3733W        W22587   2.865   1.245   3.472  0.0096  0.1345  0.2018
 3734W        W22588   2.758  12.887   2.560  0.1315  0.0140  0.1946
 3735W        W22589   0.461   8.664  15.585  0.0039  0.1320  0.0483
 3736W        W22590   8.970   2.604   3.620 -0.1150  0.1398 -0.0860
 3737W        W22591   9.422   4.628  16.084  0.1612  0.0283  0.0824
 3738W        W22592  11.230   1.498   1.431  0.3475 -0.1375  0.2320
 3739W        W22593   3.353  14.714  12.934 -0.1434 -0.0202  0.0829
 3740W        W22594   6.863   7.283  16.422 -0.0055  0.1897  0.1307
 3741W        W22595   9.263   6.414   3.181  0.0006 -0.2203 -0.0874
 3742W        W22596   5.925   2.563   1.752  0.3512  0.0038 -0.0901
 3743W        W22597   2.187   7.182  13.239  0.4077  0.0722  0.1753
 3744W        W22598  10.569   5.043   4.648  0.0676 -0.1043  0.0338
 3745W        W22599   1.182  10.353   0.454  0.4291  0.3521 -0.0140
 3746W        W22600   9.837   2.812  16.058  0.2195  0.0149 -0.4525
 3747W        W22601   0.758  15.063  14.820 -0.4847  0.2868 -0.0968
 3748W        W22602   0.677   1.342  12.847  0.0590 -0.1304  0.2487
 3749W        W22603   1.606   1.685  14.480  0.0443 -0.0417 -0.0719
 3750W        W22604  12.637   2.560  15.817 -0.0410 -0.0287  0.1370
 3751W        W22605   8.270  14.418  13.184 -0.0817  0.1433 -0.3257
 3752W        W22606  16.081   2.388  16.276  0.2296 -0.2184  0.0809
 3753W        W22607   8.548  10.957   2.342  0.1892 -0.0144 -0.4569
 3754W        W22608   2.756   0.381   4.644  0.2842 -0.0682  0.0756
 3755W        W22609  15.227  12.888  12.741 -0.1210 -0.1522  0.3294
 3756W        W22610   8.726  16.269   3.210  0.0384  0.0366  0.0797
 3757W        W22611   3.704   7.424   4.963  0.1747 -0.0500  0.4080
 3758W        W22612   4.812   6.533  16.950 -0.2401  0.2763 -0.0726
 3759W        W22613   6.980  13.094   0.461  0.2896 -0.2137  0.2057
 3760W        W22614  14.956  16.676   2.017 -0.0963  0.0847  0.1370
 3761W        W22615  17.246  14.340   4.302 -0.2523  0.0163 -0.0737
 3762W        W22616  15.947  14.432  17.220  0.1665  0.0268 -0.0154
 3763W        W22617   3.138   5.389   3.015  0.0876 -0.0614 -0.2127
 3764W        W22618   5.041  11.442   3.961 -0.0842  0.0141 -0.3607
 3765W        W22619  15.158   4.553   1.571 -0.2297  0.0257 -0.1109
 3766W        W22620  15.778   7.745  12.272  0.0877  0.2358 -0.0186
 3767W        W22621   8.757   3.381   4.711  0.1348 -0.2959  0.0604
 3768W        W22622  16.933   1.014   0.674 -0.1116  0.0133  0.2179
 3769W        W22623  17.028   6.304   4.309  0.4519  0.1070 -0.1698
 3770W        W22624   3.119   9.454  15.425  0.1261  0.4628  0.1213
 3771W        W22625   1.143  14.603   1.664  0.0772 -0.3235  0.1977
 3772W        W22626   9.935   0.356  17.169 -0.0235  0.1212 -0.0878
 3773W        W22627   8.614  17.350   1.911  0.0270 -0.1368  0.4791
 3774W        W22628   2.696  11.907   1.721  0.0560 -0.2478  0.1372
 3775W        W22629  17.130  16.107  12.762  0.1427  0.2988 -0.3541
 3776W        W22630  16.989   5.669  15.334 -0.3621 -0.2443 -0.1762
 3777W        W22631  16.430  11.954  12.563  0.1601 -0.0212 -0.0034
 3778W        W22632  16.816  12.163   5.203  0.3306  0.0029 -0.3289
 3779W        W22633   4.077   6.430   2.934 -0.1952 -0.4067 -0.0985
 3780W        W22634   0.034   5.092  10.905  0.0945 -0.3340  0.2216
 3781W        W22635  11.452  12.072  15.655  0.1664 -0.2129 -0.2152
 3782W        W22636  11.518   4.299   5.747 -0.2712  0.0069  0.2424
 3783W        W22637  15.122   4.027   0.347 -0.1690 -0.2267  0.3686
 3784W        W22638   5.512   0.606  14.780  0.2583 -0.1136  0.0987
 3785W        W22639   1.057  10.946   1.180  0.0095  0.0172 -0.1344
 3786W        W22640   6.984  11.718  14.048 -0.1089  0.0333  0.3220
 3787W        W22641   3.765   2.905   5.012 -0.1977  0.0884 -0.2756
 3788W        W22642   9.837  15.645   1.670  0.1640  0.0037  0.0455
 3789W        W22643  13.726  13.039  15.758  0.2045 -0.0064  0.1620
 3790W        W22644   2.388  14.356   3.748  0.1464  0.1525 -0.0538
 3791W        W22645   3.388  12.872  14.748  0.3402  0.0457  0.3181
 3792W        W22646   0.889   1.685  14.696  0.0733 -0.1980 -0.0162
 3793W        W22647  16.138  16.047   4.444 -0.1199  0.1649 -0.0912
 3794W        W22648   2.620  16.164  15.459  0.0529 -0.2542 -0.1611
 3795W        W22649  16.435  15.374  14.008  0.1541  0.0981 -0.0870
 3796W        W22650   7.783   9.271  14.209 -0.0432  0.2037 -0.0036
 3797W        W22651  15.125   6.115   0.916 -0.0548  0.1062  0.1343
 3798W        W22652  16.809   5.619   1.000  0.3303  0.0510 -0.0963
 3799W        W22653   7.402   1.949  16.198 -0.0326  0.1736  0.0304
 3800W        W22654   5.311   1.275  14.251  0.1105  0.0977 -0.1679
 3801W        W22655  12.191  10.914   4.433 -0.1784 -0.1273  0.0563
 3802W        W22656   1.273   5.566  10.819 -0.2517 -0.1845 -0.2910
 3803W        W22657   5.598  15.595  15.484 -0.1120  0.0537  0.1754
 3804W        W22658  12.693   0.024  13.056  0.0212 -0.0305  0.1849
 3805W        W22659   9.892   9.910  17.063  0.1598  0.0545 -0.1513
 3806W        W22660   9.150   3.532   1.170 -0.1956  0.1801  0.1356
 3807W        W22661  12.424   0.446   0.811 -0.1917 -0.1785  0.1362
 3808W        W22662   8.978  12.534   4.603  0.1749 -0.0339  0.0311
 3809W        W22663  15.217   8.700   1.383 -0.3470  0.3330  0.0738
 3810W        W22664  10.626  15.817   4.122  0.4362  0.0457  0.0351
 3811W        W22665  12.845   1.197   2.403 -0.0179 -0.2074  0.2271
 3812W        W22666   1.209   3.060   4.198 -0.1082 -0.0814 -0.0900
 3813W        W22667   1.456   8.477   2.863 -0.4214 -0.1993 -0.0552
 3814W        W22668  11.169  15.218  15.410  0.0315 -0.2217 -0.0811
 3815W        W22669  16.113  14.776  13.246 -0.1723 -0.2883  0.1652
 3816W        W22670  15.575  10.637  13.883 -0.1525 -0.2314  0.1544
 3817W        W22671  13.676  14.475  16.281  0.3084  0.2610 -0.1561
 3818W        W22672  10.589  17.575   4.252  0.1743 -0.2010 -0.0896
 3819W        W22673   9.131  13.185   3.724  0.0834  0.1707  0.0343
 3820W        W22674   9.119   1.664   3.050  0.3718  0.0798 -0.0626
 3821W        W22675   4.762  13.926   3.482  0.0024 -0.2817 -0.1355
 3822W        W22676  15.172   8.615  14.400  0.0547 -0.3292  0.2617
 3823W        W22677  10.850   0.370   4.952  0.1062  0.1905  0.1265
 3824W        W22678  13.268   9.606  16.749  0.0806 -0.2289 -0.2605
 3825W        W22679   4.446  15.515  13.501 -0.1196 -0.1627  0.2655
 3826W        W22680   4.466   3.646  13.439 -0.1605  0.2158  0.4793
 3827W        W22681  16.953   9.715   5.119  0.3262  0.2807  0.0093
 3828W        W22682  12.710   9.716  12.409  0.3706 -0.1863 -0.0817
 3829W        W22683  17.200   5.333  12.848  0.2950  0.0836 -0.0825
 3830W        W22684  15.122   1.808   0.663  0.2407 -0.2526 -0.0791
 3831W        W22685   0.166   0.301  16.890  0.1306 -0.0668  0.1769
 3832W        W22686   1.473   1.373  15.654  0.2046  0.0669  0.0294
 3833W        W22687   0.657   2.029   1.445  0.0367  0.1316  0.1237
 3834W        W22688   7.552   9.933   0.746 -0.0093  0.1063 -0.3285
 3835W        W22689  11.228   0.797  12.661 -0.0470 -0.0247 -0.0956
 3836W        W22690  10.372  12.654  16.646 -0.0043  0.1699  0.1025
 3837W        W22691   5.801   4.987   1.129 -0.3181 -0.1719 -0.1939
 3838W        W22692   9.466   5.843   1.287  0.0491 -0.4074 -0.1272
 3839W        W22693   5.982   9.446  13.202 -0.2923  0.1139  0.1159
 3840W        W22694   4.435   1.510   1.821 -0.1306  0.1697  0.0487
 3841W        W22695   7.283  10.721  13.296 -0.1697 -0.0708 -0.0746
 3842W        W22696   4.833  10.420  15.175 -0.2107  0.1242  0.1540
 3843W        W22697  11.131  13.195   1.823  0.1769  0.1716  0.0754
 3844W        W22698  17.197  10.877  17.206 -0.1232 -0.1813  0.0638
 3845W        W22699  15.928  17.494   3.117  0.1435 -0.0331 -0.0490
 3846W        W22700   6.073  15.618  16.266 -0.0890 -0.0654  0.0641
 3847W        W22701   5.415   6.153   4.170  0.0985 -0.1285 -0.0615
 3848W        W22702  13.124   6.321  15.264  0.4035 -0.0631 -0.3145
 3849W        W22703   5.061   7.631  15.898 -0.2389  0.1611 -0.1152
 3850W        W22704   3.666   3.373  11.666  0.0341  0.0005 -0.1695
 3851W        W22705   9.605  15.340  12.407  0.1459  0.0570 -0.4082
 3852W        W22706   5.124   2.474   5.018 -0.1913  0.5778  0.3367
 3853W        W22707  16.073  13.590   2.663  0.0321 -0.1883 -0.2105
 3854W        W22708  11.977   1.825   1.898  0.0561 -0.0101  0.1398
 3855W        W22709  14.118   1.454   0.012  0.0880 -0.1010  0.0007
 3856W        W22710   4.566   5.888  12.767 -0.0265 -0.0459  0.1347
 3857W        W22711  17.429  13.806  16.597 -0.0955 -0.0324 -0.1983
 3858W        W22712   2.431   9.713  14.335  0.1860 -0.1231 -0.0679
 3859W        W22713   1.596  13.847   4.236 -0.2174 -0.0738 -0.0384
 3860W        W22714   3.342  16.425   4.188  0.1034 -0.0150  0.0196
 3861W        W22715   0.583  13.909   4.004  0.0453  0.3115 -0.1106
 3862W        W22716  13.545   6.093  15.465 -0.0511  0.1780 -0.0674
 3863W        W22717   5.257  11.778  13.437  0.2995  0.2434 -0.0567
 3864W        W22718   3.811  17.525  15.173 -0.0043 -0.1989 -0.0827
 3865W        W22719  15.715   0.210  17.057  0.2375  0.1905  0.1024
 3866W        W22720  16.134   6.621  12.882  0.0354 -0.0060  0.1756
 3867W        W22721  16.502   5.172   5.113  0.2958  0.2987 -0.3074
 3868W        W22722  12.536  16.274  12.418  0.0425 -0.2207 -0.0979
 3869W        W22723  12.381   4.618   3.833  0.0599  0.2384  0.2078
 3870W        W22724   6.854  10.878   0.239  0.0828 -0.3149 -0.0735
 3871W        W22725   5.152   1.213  12.918 -0.3213  0.1764  0.2385
 3872W        W22726   1.004  15.483   0.783  0.1090 -0.4995 -0.3150
 3873W        W22727  17.252   8.835   4.195 -0.1233 -0.2403  0.3686
 3874W        W22728   7.896   0.739   0.093  0.0362  0.1981  0.1419
 3875W        W22729  12.906   6.007  13.892 -0.2477  0.1070 -0.0156
 3876W        W22730  13.295  15.883  14.945  0.1527  0.3052  0.2108
 3877W        W22731  13.250   6.014   4.284  0.0044 -0.0789 -0.1562
 3878W        W22732   4.182  12.186   1.617  0.1423 -0.3712  0.0802
 3879W        W22733  15.747   5.217  11.924  0.1792 -0.3950  0.0353
 3880W        W22734  13.952  14.318  14.514 -0.0563  0.2696 -0.0184
 3881W        W22735  10.965  11.029  14.484  0.0423 -0.1412 -0.0440
 3882W        W22736   0.260   5.314  15.509  0.1840 -0.0313 -0.1900
 3883W        W22737  10.340   6.886   5.272  0.1363 -0.1591  0.4347
 3884W        W22738   0.041  12.741  14.322  0.3698 -0.1532 -0.0023
 3885W        W22739   2.843   7.430   0.267 -0.2528 -0.0757 -0.3352
 3886W        W22740  15.658  10.437  16.022 -0.3357 -0.3435 -0.0125
 3887W        W22741  11.478  14.218  13.776 -0.0152 -0.0872  0.0032
 3888W        W22742  10.168   8.627  14.396  0.1355  0.0456  0.1971
 3889W        W22743   9.800   4.684  14.104 -0.0361 -0.3290  0.3092
 3890W        W22744   1.460  10.481   3.733 -0.0923  0.0204  0.1656
 3891W        W22745  13.239   0.415  14.974 -0.1820 -0.1410  0.0717
 3892W        W22746   8.360   7.342  12.843 -0.1542  0.2353 -0.0221
 3893W        W22747  13.267  16.711  14.396 -0.1551 -0.0162  0.1640
 3894W        W22748   8.807  10.232   2.685  0.2190  0.1830  0.1730
 3895W        W22749   1.492  16.936   2.013 -0.0919 -0.2406 -0.1179
 3896W        W22750   9.694  12.861  17.118 -0.3357 -0.1463 -0.2625
 3897W        W22751   0.277  13.142  15.583  0.1455 -0.2172 -0.0033
 3898W        W22752   4.233  10.507   4.314  0.1375  0.1718 -0.0276
 3899W        W22753   7.001   1.186   0.134 -0.0870  0.1305 -0.1681
 3900W        W22754   7.883  13.705   0.018  0.1294 -0.3439 -0.0170
 3901W        W22755  16.923   6.510  12.852 -0.0786  0.2926 -0.0515
 3902W        W22756   1.381   3.911   4.650 -0.0547  0.0772  0.3477
 3903W        W22757   6.491   3.509   5.200 -0.1510  0.0026 -0.2140
 3904W        W22758   9.879   0.502   5.328 -0.2644  0.0059 -0.1137
 3905W        W22759  11.939   9.931   1.073  0.3021  0.0374  0.2151
 3906W        W22760   1.399   3.120  14.892  0.0854 -0.0144 -0.0750
 3907W        W22761  10.605   1.323  13.444 -0.0505  0.2714 -0.0842
 3908W        W22762   8.368  12.311   4.165  0.0959  0.7018  0.1075
 3909W        W22763  16.965   9.569  13.945 -0.4515 -0.0644 -0.2503
 3910W        W22764   0.296   7.029  14.368  0.0644  0.1574  0.1265
 3911W        W22765   6.930   1.359  15.321 -0.0155  0.1644 -0.0542
 3912W        W22766   7.230   2.873   1.429 -0.0269  0.1021 -0.0691
 3913W        W22767   9.476   1.087   4.651 -0.3825  0.2329 -0.0811
 3914W        W22768  15.279   8.839   0.330 -0.3321 -0.0531 -0.1927
 3915W        W22769   2.318  15.346  14.890 -0.0714  0.2653 -0.0857
 3916W        W22770   1.475  14.490   2.880 -0.1040  0.3108 -0.0284
 3917W        W22771  16.370   7.388  16.013 -0.0988 -0.6322 -0.1542
 3918W        W22772  13.554   4.273  15.462  0.1749 -0.1524  0.4416
 3919W        W22773  10.067   2.367  16.342  0.1043  0.0014 -0.0770
 3920W        W22774   0.016   1.923   4.018  0.1293  0.0423  0.0001
 3921W        W22775   0.853   8.575   1.191  0.2455 -0.3692  0.2444
 3922W        W22776  12.981  10.134   5.274  0.1032  0.2385  0.0891
 3923W        W22777  17.516   8.424   4.141  0.0701  0.1212 -0.0781
 3924W        W22778   1.004  13.313   4.692 -0.0538  0.0389 -0.1160
 3925W        W22779  15.422  16.152  15.319 -0.0673 -0.1307 -0.1091
 3926W        W22780  16.055  11.831   1.896 -0.1816  0.2061  0.1408
 3927W        W22781  12.184  14.867   1.154 -0.0099  0.0726 -0.1428
 3928W        W22782  10.929   5.904  16.585 -0.1120 -0.1373 -0.2066
 3929W        W22783   6.586  10.449  16.919 -0.1616  0.2584 -0.1011
 3930W        W22784   1.907  15.792   1.686  0.2938 -0.0282  0.2380
 3931W        W22785  10.062   7.596   4.788  0.0982  0.0933  0.0599
 3932W        W22786   9.240  12.608   4.197 -0.0668  0.0529  0.0189
 3933W        W22787  15.560  14.312  14.279 -0.1435 -0.0247 -0.1030
 3934W        W22788   4.669  13.242   3.851  0.0333 -0.2166  0.0000
 3935W        W22789   9.809   4.375  13.175 -0.1698 -0.1928 -0.0712
 3936W        W22790   3.601   2.238   0.790 -0.2885  0.1908  0.0773
 3937W        W22791   4.019   4.738  16.572 -0.0401  0.1542  0.2137
 3938W        W22792   2.890   0.567   3.229  0.1679  0.2402  0.2171
 3939W        W22793  16.370   5.404  12.375 -0.5464  0.2034 -0.2045
 3940W        W22794   2.488  17.496  14.995  0.0660 -0.1226  0.0509
 3941W        W22795   4.890  13.445   3.380  0.3013 -0.1545  0.4158
 3942W        W22796   3.557  12.900   0.903  0.3510  0.1353 -0.0344
 3943W        W22797  14.521  10.935   4.217  0.0863 -0.0441 -0.1367
 3944W        W22798  14.351  10.021  14.402  0.0954  0.5252  0.1190
 3945W        W22799   0.880  10.259  15.620  0.0587  0.1820  0.1931
 3946W        W22800   3.420   7.885   1.388  0.3559  0.0779 -0.2702
 3947W        W22801   5.012   5.160   1.667  0.5687 -0.3821 -0.0910
 3948W        W22802  16.283   1.226  14.016 -0.1312  0.3692 -0.0846
 3949W        W22803  13.557   0.678  14.439 -0.3676 -0.0572 -0.0304
 3950W        W22804  10.069  17.379   1.180 -0.2313  0.0202  0.0617
 3951W        W22805   9.898   4.479   1.159 -0.1474  0.1676 -0.0659
 3952W        W22806   2.309   4.043   1.072  0.1427  0.0783 -0.1468
 3953W        W22807  11.966   7.779   4.265 -0.2709 -0.0937  0.1213
 3954W        W22808  13.488  10.131  12.201  0.0270 -0.1913  0.1278
 3955W        W22809  12.262  17.027   0.618 -0.1691 -0.0671  0.0824
 3956W        W22810   1.354   7.647  13.793 -0.0823  0.2457  0.0467
 3957W        W22811   2.743   8.534   1.066 -0.2876  0.2729  0.1496
 3958W        W22812  16.008  16.022   2.040 -0.0815  0.1818 -0.0144
 3959W        W22813  15.718  12.327   0.692  0.2245  0.1125 -0.3412
 3960W        W22814   5.524   1.361   2.782 -0.0416  0.0660 -0.0852
 3961W        W22815   0.144   6.656   3.011 -0.5721  0.0210 -0.1195
 3962W        W22816   1.987   9.748   3.251  0.1431  0.0944 -0.0603
 3963W        W22817   4.135  10.275   3.237  0.2496 -0.4313 -0.1549
 3964W        W22818   3.835  12.687  16.321 -0.3066  0.0960 -0.1748
 3965W        W22819   1.672  11.144   3.851  0.1365  0.0551 -0.0377
 3966W        W22820   1.404   4.606  14.218  0.1611 -0.2678  0.1193
 3967W        W22821  15.881  16.261   1.083  0.0152  0.1490  0.0105
 3968W        W22822   4.585   5.000   1.700 -0.1143 -0.1469  0.1750
 3969W        W22823   2.293   7.739  16.158  0.0099  0.1465  0.1040
 3970W        W22824   9.808   2.698   3.747  0.3573  0.1412  0.2456
 3971W        W22825   4.971   1.568   4.627  0.2015  0.2840  0.2376
 3972W        W22826   6.752   2.608   4.818  0.0430  0.0700  0.0233
 3973W        W22827  15.741   9.188  15.050 -0.0313 -0.1339  0.1401
 3974W        W22828   7.712  16.166  11.363 -0.3825 -0.1483 -0.1544
 3975W        W22829   6.303  16.349   1.887 -0.0198  0.0404  0.4231
 3976W        W22830   3.773   5.805   0.252 -0.1894 -0.0244  0.0120
 3977W        W22831   1.677   4.206   0.311  0.3620 -0.0859 -0.0500
 3978W        W22832   9.728  14.943   4.307  0.0354 -0.0192  0.3900
 3979W        W22833   0.438  15.992   3.450 -0.0091 -0.2313  0.1835
 3980W        W22834   5.385   4.592  14.881 -0.1054 -0.2911  0.0176
 3981W        W22835  10.958  16.694   1.349  0.3252 -0.2854 -0.2332
 3982W        W22836  14.072   3.860  16.904 -0.3663  0.1644  0.1345
 3983W        W22837   8.251   5.145  14.293  0.2095  0.2841  0.0264
 3984W        W22838  12.449   6.866  13.795  0.0678  0.0680 -0.1354
 3985W        W22839  13.912   7.287   1.630  0.1285 -0.0207  0.1214
 3986W        W22840   8.952   6.904  14.177  0.0324 -0.1795  0.2448
 3987W        W22841   0.724  12.408   3.420  0.1172 -0.0827 -0.2085
 3988W        W22842  16.348  15.871  14.029 -0.0405 -0.1284 -0.1746
 3989W        W22843   6.284   8.840  12.553 -0.2023 -0.1645 -0.2487
 3990W        W22844   1.022  12.228  14.780 -0.0379  0.1124 -0.3293
 3991W        W22845   8.323  13.420  16.545 -0.2122 -0.2925 -0.0330
 3992W        W22846   9.451   1.318   1.331  0.2550  0.0823  0.0723
 3993W        W22847  16.109   8.928  12.224  0.4569 -0.0274 -0.2055
 3994W        W22848   0.525   9.663   3.245  0.3673  0.3529 -0.0517
 3995W        W22849   9.863  16.978   4.620 -0.0653 -0.0908 -0.1148
 3996W        W22850   7.908   5.030   2.278  0.1680  0.2651  0.3716
 3997W        W22851   5.063  14.995  17.040  0.0492  0.0885  0.0054
 3998W        W22852   6.006  14.842  16.837  0.1389 -0.2106 -0.2504
 3999W        W22853  10.704   1.618   2.205  0.0042 -0.2510  0.1772
 4000W        W22854  17.032  16.761   3.788  0.4483  0.3699 -0.0415
 4001W        W22855   2.534  13.394   1.731  0.0677  0.1552  0.0289
 4002W        W22856  10.861   3.161   1.244  0.0929 -0.2699 -0.1377
 4003W        W22857   7.774  14.345  16.437 -0.0605 -0.3234  0.2644
 4004W        W22858   7.169   3.460  12.958 -0.1348 -0.3385 -0.0950
 4005W        W22859   2.816   6.723  11.363 -0.0139 -0.0695 -0.0145
 4006W        W22860   8.771   2.615   2.768 -0.0090 -0.2078  0.0162
 4007W        W22861  11.501   7.124  12.937  0.0225 -0.0224  0.2301
 4008W        W22862  14.463   6.126   0.827  0.0992  0.0973 -0.2500
 4009W        W22863  15.144   1.559   4.318  0.2769 -0.2223  0.1131
 4010W        W22864   3.335  11.050  13.250  0.2604 -0.1894 -0.1200
 4011W        W22865  10.519   4.432  12.342  0.2512  0.0635  0.0386
 4012W        W22866  11.153  15.969   4.113  0.0717  0.2946  0.2264
 4013W        W22867  15.294  14.792   2.776 -0.3694 -0.2776  0.1883
 4014W        W22868   3.163   4.428   3.712  0.0758 -0.0005  0.2632
 4015W        W22869   9.111   4.548  12.813  0.0149 -0.0329  0.0003
 4016W        W22870   5.383  15.503  16.825 -0.1596  0.1201  0.0319
 4017W        W22871   5.696  16.883   4.916 -0.0764 -0.2614 -0.1445
 4018W        W22872   0.234   7.885  12.658  0.1083  0.4647 -0.0350
 4019W        W22873   4.503  16.040   1.077 -0.1976  0.3557  0.0346
 4020W        W22874  14.246   9.841  11.052 -0.0937  0.1996  0.0596
 4021W        W22875  16.547  11.450  16.560 -0.1102 -0.0094 -0.1086
 4022W        W22876  12.145   4.921   2.920 -0.1941 -0.1712 -0.2267
 4023W        W22877   3.713   5.135  12.490 -0.1294 -0.2065 -0.2368
 4024W        W22878   4.210   5.390   4.807  0.2119  0.4064  0.1688
 4025W        W22879   8.198  14.038   0.927  0.2961 -0.2864  0.1159
 4026W        W22880  16.959  16.467   2.662 -0.0929 -0.0568  0.0913
 4027W        W22881   4.529   0.738  16.092  0.2777 -0.1054 -0.0615
 4028W        W22882   4.833   7.924  13.598  0.1139  0.2032  0.0656
 4029W        W22883   4.666   8.244   3.957  0.0735  0.0280 -0.1584
 4030W        W22884   5.142  15.687   4.461  0.0968  0.3816 -0.2257
 4031W        W22885   7.075   5.809  13.391 -0.4701  0.0607 -0.0197
 4032W        W22886   7.437  13.418   0.176  0.2193 -0.2263  0.3522
 4033W        W22887  15.551   8.666  15.654  0.0987  0.0523 -0.0181
 4034W        W22888   1.462   8.631   3.381 -0.1639 -0.2091 -0.2944
 4035W        W22889   8.340   6.013  16.647 -0.0126  0.0344 -0.0584
 4036W        W22890  14.261   4.990   2.842  0.1586 -0.3820  0.3897
 4037W        W22891  13.456  12.556   5.055  0.1277 -0.1840 -0.2651
 4038W        W22892   0.380   4.553  15.716  0.0351 -0.1708  0.2712
 4039W        W22893  17.042   0.478   1.659  0.1623  0.1549 -0.0145
 4040W        W22894   4.179   7.315   0.396 -0.0675  0.1504 -0.2786
 4041W        W22895   4.224  13.568  16.961 -0.2227 -0.0039 -0.0693
 4042W        W22896  16.196   4.857   1.526 -0.0292  0.3250  0.1880
 4043W        W22897   5.099   3.939   0.392 -0.2167 -0.1477 -0.3130
 4044W        W22898   0.715   0.586   3.002 -0.0813 -0.1136  0.2933
 4045W        W22899   7.698  17.599   2.835  0.0802  0.1438 -0.0162
 4046W        W22900  10.503   7.166   3.569  0.3742  0.1108  0.0623
 4047W        W22901   0.710  11.586  14.165  0.3708 -0.3757 -0.1565
 4048W        W22902  10.084  10.328  14.617 -0.0349  0.1955 -0.2820
 4049W        W22903  14.351  14.151  13.485 -0.2545 -0.2478  0.0069
 4050W        W22904   4.975   1.296   5.102  0.4039  0.4254  0.4334
 4051W        W22905  11.816   5.313  13.172  0.1723  0.0675  0.1187
 4052W        W22906  16.228  16.460   0.185  0.1148 -0.0311  0.0880
 4053W        W22907  16.631   7.828   5.536  0.0655 -0.2664  0.2130
 4054W        W22908  10.894  10.375   4.251 -0.0162  0.4192  0.1253
 4055W        W22909  12.902   8.233  16.822 -0.0114 -0.1372 -0.0490
 4056W        W22910  10.242   1.275  12.264  0.0026  0.0775  0.0014
 4057W        W22911   1.887  10.108  12.416  0.3697  0.3572 -0.0141
 4058W        W22912  11.445  14.702   3.871  0.0568  0.2377  0.3628
 4059W        W22913  16.703   5.223  12.930 -0.3746 -0.1352  0.2521
 4060W        W22914   7.266   1.284   4.516 -0.0987  0.0144  0.4207
 4061W        W22915   5.410  13.647   0.596  0.2773 -0.2285 -0.0554
 4062W        W22916   7.540   6.168   5.272  0.2054 -0.0564  0.1535
 4063W        W22917   5.620   7.799  12.503 -0.1017 -0.3037 -0.0899
 4064W        W22918  12.140  12.484   5.357  0.1848 -0.0416 -0.2212
 4065W        W22919  10.114   5.875   0.103 -0.0273  0.1715  0.2416
 4066W        W22920   4.980   4.686  16.810 -0.0890  0.0488 -0.2181
 4067W        W22921  12.625   4.646   4.347 -0.0497  0.0851  0.1607
 4068W        W22922   8.361  14.902   1.718  0.0145  0.1663 -0.1047
 4069W        W22923  12.333  11.696  14.717  0.4841  0.4262 -0.0931
 4070W        W22924   1.996   8.871   5.384 -0.0204  0.2227  0.0378
 4071W        W22925  12.790  13.082   4.436  0.3301  0.1674  0.1134
 4072W        W22926  11.423  15.459  15.066  0.0160  0.2105  0.0134
 4073W        W22927  10.018   7.348   3.675  0.0721 -0.0667  0.0154
 4074W        W22928  17.456   0.864  13.267  0.2277  0.2974 -0.1262
 4075W        W22929  17.375  12.905  15.505  0.1469  0.1665  0.2158
 4076W        W22930  11.309   4.300  13.033  0.1405  0.0083 -0.3685
 4077W        W22931  15.849  16.783  12.932  0.0640 -0.2009  0.1248
 4078W        W22932  16.949  14.722   1.916  0.1710 -0.0616 -0.2162
 4079W        W22933  13.349  17.513  14.870 -0.0204 -0.0652  0.1346
 4080W        W22934   8.578  16.597   1.294 -0.1354 -0.1837 -0.4960
 4081W        W22935  11.722   6.752   2.891 -0.0310  0.0289 -0.5635
 4082W        W22936   6.088   8.872   3.449 -0.0970  0.1803 -0.0659
 4083W        W22937   2.798   2.096   5.041 -0.1053 -0.3661 -0.1156
 4084W        W22938   4.484   5.712   2.453  0.3674 -0.4481 -0.3231
 4085W        W22939  11.032  13.186   2.308  0.0603 -0.2683  0.0285
 4086W        W22940  15.794   0.833  11.733  0.1200  0.0233 -0.2027
 4087W        W22941  12.478  13.567  12.698 -0.3195 -0.0712  0.2118
 4088W        W22942  12.765  10.143  15.330  0.1761  0.1293  0.3169
 4089W        W22943  14.165   9.259  16.957  0.1295  0.1956 -0.0756
 4090W        W22944   4.106   2.750  16.331 -0.2195  0.1011 -0.0009
 4091W        W22945  16.253   0.204  12.541  0.1687 -0.2023  0.1062
 4092W        W22946  10.273  16.146  14.303 -0.0735  0.3152  0.1410
 4093W        W22947  13.440   9.184   1.427 -0.1127  0.4813  0.0027
 4094W        W22948   3.480   8.571   4.098 -0.0117 -0.2468  0.0629
 4095W        W22949  17.013   5.767   2.126 -0.0275  0.0977 -0.0745
 4096W        W22950   1.782   3.409  16.940 -0.0613 -0.0639  0.0897
 4097W        W22951   2.127  13.306   3.982  0.2089  0.1564  0.1696
 4098W        W22952  13.406  12.707   2.192 -0.1946 -0.1960 -0.1848
 4099W        W22953   7.233   8.197  12.192  0.0102 -0.2017 -0.1489
 4100W        W22954   8.319  14.213   1.344 -0.0352  0.4006  0.1811
 4101W        W22955   4.706   1.724  14.761  0.0009 -0.0314 -0.2313
 4102W        W22956   8.740  12.825   5.049  0.0883 -0.0812 -0.0198
 4103W        W22957   7.457   0.284  14.609 -0.0315  0.1445 -0.0165
 4104W        W22958  15.991   5.820  13.322 -0.1270 -0.1006 -0.0262
 4105W        W22959   5.155   1.643   0.841  0.1022  0.1796  0.1335
 4106W        W22960  14.942  15.050  12.952 -0.1489  0.1125  0.2562
 4107W        W22961  16.301   6.457   1.629  0.1270 -0.3477 -0.1625
 4108W        W22962  15.841  10.069  15.089 -0.0622 -0.2325  0.2922
 4109W        W22963  12.861   2.414   5.701 -0.4470 -0.1110 -0.4272
 4110W        W22964   5.240  14.105   0.424 -0.1645  0.3341  0.1600
 4111W        W22965  13.998   3.713   4.830  0.0113  0.2309  0.0573
 4112W        W22966  11.539  15.625   4.154 -0.0997 -0.0137  0.4732
 4113W        W22967  16.157   2.412   3.108  0.0434 -0.1891  0.2851
 4114W        W22968   3.331  13.469  12.503  0.1417  0.0195 -0.0706
 4115W        W22969  15.136   1.172  15.849 -0.1302  0.1256 -0.0110
 4116W        W22970   7.919  14.497   1.388  0.1875 -0.0926  0.0188
 4117W        W22971  17.499   1.971  11.615  0.1667  0.2236 -0.3298
 4118W        W22972  12.490  11.603   3.710  0.2085 -0.2543  0.0861
 4119W        W22973  15.565  11.525   3.355  0.2011  0.3200  0.1526
 4120W        W22974   0.286  13.828  13.621 -0.3482 -0.1080  0.0856
 4121W        W22975   4.841   2.811   0.209  0.0113 -0.1009  0.2560
 4122W        W22976   5.896   6.948  16.722  0.2580 -0.0148 -0.1933
 4123W        W22977   9.092   3.425   4.369  0.1022  0.2055 -0.0380
 4124W        W22978  17.505   6.675   4.876  0.2469  0.1491  0.1477
 4125W        W22979   4.258  11.848   4.370  0.2798 -0.0365 -0.4243
 4126W        W22980   0.166   4.712   0.819  0.0048 -0.1216 -0.0353
 4127W        W22981   9.003   5.053   1.226 -0.1291  0.1738 -0.2695
 4128W        W22982   0.036  11.092   0.784 -0.0861 -0.1233  0.1198
 4129W        W22983   4.238   2.810   1.297  0.2648  0.0511  0.0407
 4130W        W22984   3.160   8.832  16.520 -0.1726  0.3530 -0.1238
 4131W        W22985   5.217  10.522   4.231  0.0821  0.2657  0.0221
 4132W        W22986   8.478   5.326   2.383 -0.2838 -0.0397 -0.2096
 4133W        W22987  12.928   4.419   3.872 -0.0321 -0.2779 -0.2039
 4134W        W22988   2.002  13.658   3.466  0.0444  0.3633  0.2949
 4135W        W22989  14.068   0.505   3.709 -0.3615  0.2095  0.0765
 4136W        W22990  12.237   3.917   3.170  0.0726  0.1105 -0.0054
 4137W        W22991   7.446  12.485   3.927  0.1802 -0.4412 -0.1705
 4138W        W22992   1.512  17.199   3.563  0.4302  0.0665 -0.0077
 4139W        W22993  15.950   1.589  16.862  0.1310  0.0958  0.1278
 4140W        W22994   1.038   2.736  13.174  0.0546  0.0843  0.1448
 4141W        W22995   3.895   4.446   1.107  0.1527  0.0340  0.2102
 4142W        W22996  16.495  11.062   5.043  0.0975  0.0400  0.1581
 4143W        W22997  15.250   5.741  13.037 -0.1543  0.0541  0.0560
 4144W        W22998  13.996   6.499  14.922  0.0000  0.1255 -0.2018
 4145W        W22999   8.373   8.271   0.313 -0.1187 -0.1655 -0.1200
 4146W        W23000  11.186   5.431  13.706  0.1215  0.2070  0.0037
 4147W        W23001   2.149   3.298   4.721 -0.0829  0.2323  0.4652
 4148W        W23002   4.939   0.912  16.216  0.0198  0.1253 -0.1128
 4149W        W23003   8.997  16.217   2.639  0.5649 -0.1203  0.0762
 4150W        W23004  12.377  15.755  16.344 -0.0037  0.3057  0.1634
 4151W        W23005   8.325  13.955  16.743  0.0719  0.1782  0.1538
 4152W        W23006   9.945   0.744  16.749 -0.1469 -0.0513  0.1201
 4153W        W23007   1.773   6.375   3.851 -0.3496 -0.0202 -0.1524
 4154W        W23008   5.968   0.253   4.054 -0.1242  0.0075  0.0295
 4155W        W23009  11.118  11.601  15.346 -0.1922 -0.1770 -0.1114
 4156W        W23010   0.243   9.054  12.618 -0.0187 -0.0125  0.1077
 4157W        W23011  12.300  12.871  12.636  0.0707 -0.1411  0.0740
 4158W        W23012  12.100  15.546  13.515 -0.0465  0.0856 -0.0038
 4159W        W23013   0.209   5.979   4.199  0.0580 -0.5352  0.0637
 4160W        W23014   0.413   2.857   0.322  0.2330 -0.1455 -0.2258
 4161W        W23015  16.336  10.755   5.424 -0.1152  0.1094  0.0678
 4162W        W23016  15.593   6.404  16.646 -0.2581 -0.0309  0.1575
 4163W        W23017   1.532   4.276  16.513 -0.0946 -0.1778 -0.1275
 4164W        W23018   1.485  14.267  16.932 -0.0664  0.0976  0.2328
 4165W        W23019   1.999  11.867   4.539 -0.3404  0.2147 -0.4551
 4166W        W23020   0.161   5.145  17.212 -0.2983 -0.3317  0.1311
 4167W        W23021  17.523   6.034   2.239 -0.4234 -0.1564  0.3401
 4168W        W23022  15.779   2.657   3.350  0.1941 -0.2834 -0.1561
 4169W        W23023   9.183   3.460   2.065 -0.2765  0.0281 -0.1875
 4170W        W23024   1.505   2.535   4.209 -0.0274 -0.0378  0.1231
 4171W        W23025   0.867   6.814  11.740  0.0096  0.1925  0.4419
 4172W        W23026  14.700   6.336   4.649 -0.2229 -0.1351 -0.1528
 4173W        W23027  16.507  12.163  15.238  0.2521 -0.0219 -0.0909
 4174W        W23028   2.081   0.368  14.045 -0.1395  0.2070 -0.1726
 4175W        W23029   4.689   7.538   3.068 -0.1847 -0.0795 -0.0271
 4176W        W23030  13.208  14.759   4.793  0.0673 -0.0103 -0.1624
 4177W        W23031   3.590   4.879  16.177 -0.1156 -0.3201  0.1989
 4178W        W23032   9.465   7.799  16.441  0.2926 -0.2961  0.0982
 4179W        W23033   5.610  11.944  16.226  0.0960 -0.0720 -0.0799
 4180W        W23034  15.696   5.803  14.424 -0.0909 -0.1893  0.0109
 4181W        W23035  17.148  12.846   0.118 -0.0943  0.1703 -0.0348
 4182W        W23036  14.737   7.046  15.917  0.1441  0.3575  0.1620
 4183W        W23037   6.644   9.515   3.718  0.0336 -0.4176  0.0660
 4184W        W23038  16.854   6.705   3.712 -0.1469 -0.0526 -0.3263
 4185W        W23039   8.669   5.413  12.939  0.1567  0.2268  0.1842
 4186W        W23040  13.729   6.843   1.676 -0.1109 -0.0631  0.1331
 4187W        W23041   2.179   5.251   4.585 -0.0660 -0.0484  0.2935
 4188W        W23042  16.871   0.171   0.077 -0.0781  0.2138 -0.0562
 4189W        W23043  13.088  16.218  17.247 -0.0527  0.2380  0.2834
 4190W        W23044   8.537  10.938  14.704 -0.1070  0.0887 -0.2132
 4191W        W23045  16.109   8.060  13.812  0.1475 -0.0117  0.1382
 4192W        W23046   4.225   1.659  15.535  0.1654  0.3602  0.1273
 4193W        W23047   2.893   6.474   1.196 -0.1525 -0.0207  0.1618
 4194W        W23048   3.917   4.481  12.912  0.1905  0.1176 -0.0818
 4195W        W23049  11.204   7.492  14.212  0.0085  0.2228  0.0253
 4196W        W23050   4.330  11.354   4.516 -0.0818  0.1824 -0.4444
 4197W        W23051  14.910   5.073  14.687 -0.1940 -0.0573  0.0782
 4198W        W23052   1.116  11.904   4.163  0.0363  0.1424  0.0883
 4199W        W23053   0.273  14.203   2.125  0.0674  0.3592  0.0306
 4200W        W23054   1.315  12.805   0.307  0.0479 -0.0128  0.2013
 4201W        W23055   1.372   2.507   1.226  0.1856 -0.2438  0.1570
 4202W        W23056   4.100  15.665   2.585 -0.1174 -0.0806 -0.0658
 4203W        W23057  14.820  14.327  11.108 -0.0536 -0.1643 -0.1184
 4204W        W23058   3.794  10.206  16.455  0.0488  0.0142  0.0101
 4205W        W23059  17.508   4.484   0.397  0.0022 -0.0318  0.2922
 4206W        W23060   0.612  15.853   2.963 -0.2022 -0.0101  0.3209
 4207W        W23061   0.091   0.984  14.312  0.0789  0.0715 -0.0140
 4208W        W23062   8.663  16.501  14.428 -0.0153  0.0526  0.0395
 4209W        W23063   8.057   9.964   0.886 -0.1064 -0.3131 -0.1019
 4210W        W23064  16.844   2.744  13.372  0.0824  0.2287 -0.1399
 4211W        W23065   3.370   3.068   1.145 -0.1143 -0.1897  0.0360
 4212W        W23066  10.982  13.710   4.088  0.0689 -0.1829 -0.2228
 4213W        W23067   9.716  11.340   4.144  0.0171 -0.2941  0.3851
 4214W        W23068  15.516  11.631  15.838 -0.1501 -0.0507 -0.2332
 4215W        W23069  14.152  17.504  13.204 -0.0395 -0.1169  0.4074
 4216W        W23070  13.060   6.501  17.142 -0.1545 -0.1387  0.1945
 4217W        W23071  10.853  16.436  14.437 -0.2748  0.0965  0.1844
 4218W        W23072   7.914   9.486   0.609 -0.2934  0.1046  0.0021
 4219W        W23073   8.179   8.435  12.538 -0.2738 -0.1439  0.0905
 4220W        W23074   3.426   1.382  15.137 -0.1789 -0.1025  0.0574
 4221W        W23075  14.857   7.677   5.090  0.0684  0.1392 -0.0893
 4222W        W23076   8.060   0.945  14.203 -0.1425 -0.3539 -0.1707
 4223W        W23077   7.466   9.550   1.663  0.2978 -0.0148 -0.2774
 4224W        W23078  16.735  11.285  11.909  0.1051 -0.0495 -0.1495
 4225W        W23079   3.288  15.680  15.273 -0.1993 -0.3777  0.1887
 4226W        W23080   5.565   6.636  13.489 -0.1048 -0.2075 -0.0714
 4227W        W23081  11.096   2.233  15.657 -0.0836 -0.3381  0.2870
 4228W        W23082   6.816  15.365  15.614 -0.2780  0.1354 -0.1067
 4229W        W23083   2.671   0.853  15.975 -0.2118  0.3165  0.0356
 4230W        W23084   3.056   8.237   0.569  0.0309  0.1607  0.0195
 4231W        W23085   5.960   6.620  13.890  0.1711  0.0613  0.1606
 4232W        W23086  12.512   9.104  14.302  0.2288  0.1077 -0.1382
 4233W        W23087   1.292  14.878   2.603  0.1705  0.0611  0.0969
 4234W        W23088  17.330   0.380   3.465 -0.3743  0.2974  0.2105
 4235W        W23089   9.461   2.811  12.482 -0.0287  0.1360 -0.2633
 4236W        W23090  16.837   2.562  12.211  0.3590 -0.0150  0.0977
 4237W        W23091   7.156   1.197  12.632  0.2146  0.0076  0.1079
 4238W        W23092   7.233  13.572  15.729  0.0502  0.4450  0.0509
 4239W        W23093   0.170  16.455  14.558  0.2958  0.0749 -0.0650
 4240W        W23094   7.585   8.394   4.433 -0.1484  0.0200  0.2491
 4241W        W23095   0.971   8.466   0.531 -0.0844  0.2190  0.1198
 4242W        W23096   1.693  15.045  15.328 -0.2335  0.1361 -0.2970
 4243W        W23097   3.221   1.889  12.610 -0.0750  0.0944 -0.1036
 4244W        W23098  13.675  12.001   2.854 -0.1554 -0.0229  0.0715
 4245W        W23099   0.089  14.173   4.089 -0.0698 -0.0453 -0.0316
 4246W        W23100   1.014   9.947  13.311  0.2659 -0.1836 -0.1532
 4247W        W23101   3.873  15.263   3.710 -0.0525 -0.2109 -0.2391
 4248W        W23102   2.810  17.094   4.185  0.0901 -0.2074  0.0273
 4249W        W23103   6.575   7.071  16.852 -0.0713  0.0243  0.0872
 4250W        W23104   1.770  13.923   1.859  0.5444 -0.0896  0.1746
 4251W        W23105   0.360  10.338  13.963 -0.1062  0.0591 -0.6701
 4252W        W23106  11.488  13.050  16.822  0.1486 -0.0318 -0.3106
 4253W        W23107  15.608  10.263  16.542  0.0820  0.1194 -0.1394
 4254W        W23108  10.449   9.086  12.661  0.2770 -0.1736 -0.3209
 4255W        W23109   5.427   9.091  17.189  0.0931 -0.0213  0.1336
 4256W        W23110  11.559   9.843   1.433  0.0053 -0.0312  0.1773
 4257W        W23111   6.218  13.207   2.887 -0.0035 -0.1337  0.0121
 4258W        W23112   6.369   8.531   4.870  0.0229 -0.2845 -0.1551
 4259W        W23113   6.689  16.801   4.521 -0.0953  0.2336  0.1524
 4260W        W23114   2.357   9.958  14.910  0.0912 -0.0043 -0.2649
 4261W        W23115  16.538  11.950   5.608  0.0342 -0.0841 -0.2259
 4262W        W23116   7.410   5.003   0.225 -0.0342  0.1624  0.0803
 4263W        W23117  14.565  16.302  15.301  0.1933 -0.0997 -0.0951
 4264W        W23118   3.128   4.639   2.128 -0.0870 -0.3379  0.2238
 4265W        W23119   4.457   6.288   1.849 -0.0166 -0.0038 -0.2372
 4266W        W23120   8.905   8.010  12.920  0.0928  0.1724  0.0891
 4267W        W23121  15.554   5.351  14.341  0.1714  0.4365  0.2063
 4268W        W23122   5.049   7.023   2.250  0.2262  0.0218  0.1733
 4269W        W23123   5.909  11.459  14.162 -0.0157  0.0335  0.5736
 4270W        W23124   4.270  16.808   1.961  0.0693 -0.1642 -0.1616
 4271W        W23125  16.161  14.407   6.042  0.1764  0.1041 -0.0723
 4272W        W23126   9.821   6.102  15.030  0.0960 -0.0514  0.0080
 4273W        W23127  12.379  16.662   5.746 -0.0907  0.2906 -0.2525
 4274W        W23128   3.594   1.246   1.487  0.1484  0.1684 -0.1787
 4275W        W23129   3.136   2.750  17.158 -0.1118  0.1156 -0.2931
 4276W        W23130  17.515   0.722   3.027 -0.2040 -0.1448 -0.1784
 4277W        W23131   7.339   7.697  12.326 -0.2150  0.0093 -0.2222
 4278W        W23132   1.745  11.138  13.426  0.3241  0.0445  0.1994
 4279W        W23133  10.573   7.622   0.155  0.3636 -0.0814 -0.0350
 4280W        W23134  14.079   0.036  12.669  0.1624  0.1672  0.1306
 4281W        W23135  13.868   9.222  15.174  0.2255  0.1673  0.0435
 4282W        W23136  17.526   1.777  14.079  0.3018 -0.0808 -0.1404
 4283W        W23137  15.869   6.927   2.333 -0.1135 -0.0176  0.0695
 4284W        W23138   9.629  14.389  13.564 -0.0564  0.0158  0.1547
 4285W        W23139   7.796  13.790   3.627 -0.0520  0.2971  0.0266
 4286W        W23140   4.214  17.125   0.899  0.1299  0.1135  0.2792
 4287W        W23141  14.226  13.185  12.363  0.1482  0.2611  0.0352
 4288W        W23142  13.849   0.882   0.834  0.1692 -0.2055  0.0085
 4289W        W23143   9.749  13.912   1.482 -0.3676  0.1372 -0.2471
 4290W        W23144   5.611   4.080   3.991  0.0249 -0.1941 -0.1850
 4291W        W23145  13.616  13.662   1.163 -0.0034 -0.1289 -0.2224
 4292W        W23146   0.358   0.465   0.534  0.0852 -0.1207  0.1477
 4293W        W23147  13.818   4.536   4.109 -0.0849 -0.1482 -0.2244
 4294W        W23148  12.051  10.434   1.141 -0.0656 -0.3063  0.0428
 4295W        W23149  11.263  12.699   1.189 -0.1004 -0.1499  0.0272
 4296W        W23150   6.698   6.568  16.126 -0.1531 -0.5202  0.1868
 4297W        W23151  15.407   9.240   5.836 -0.0220  0.1765  0.2397
 4298W        W23152  15.558   1.010  15.187 -0.0607  0.0053 -0.1223
 4299W        W23153   3.340   4.343  14.756  0.0254  0.1058 -0.1775
 4300W        W23154  15.200  12.811   3.521  0.4334  0.1563  0.0164
 4301W        W23155  10.434  11.934  17.093 -0.2227  0.1598 -0.2016
 4302W        W23156   4.818   5.871  14.687 -0.1364 -0.1095  0.2227
 4303W        W23157  13.472   7.062   5.238  0.1268  0.0069  0.1281
 4304W        W23158  15.744   1.684   1.673 -0.2379  0.0552  0.3735
 4305W        W23159   8.943  15.289   3.373  0.1831  0.2018  0.1829
 4306W        W23160   0.201   6.453   4.005 -0.0581 -0.2760  0.4377
 4307W        W23161  11.251  14.094   2.573  0.0140 -0.0314  0.4744
 4308W        W23162  10.554   9.754  12.422  0.3259 -0.0259 -0.1502
 4309W        W23163   7.390   2.295  12.993 -0.0835  0.0243 -0.2552
 4310W        W23164  16.484  11.494  14.120  0.0705  0.0510  0.0912
 4311W        W23165  12.827   5.678  16.977 -0.2388  0.0229 -0.1369
 4312W        W23166   6.462   9.765  13.949  0.0930  0.2306  0.2471
 4313W        W23167  10.738   2.905  16.137 -0.1817 -0.0213  0.0675
 4314W        W23168   0.664   8.636   4.430  0.1472 -0.0434 -0.0528
 4315W        W23169   1.648   3.208   0.991  0.0039  0.0620 -0.1834
 4316W        W23170   2.151  15.784  15.766  0.0373 -0.1014 -0.1932
 4317W        W23171  16.036  10.577  14.925  0.2988  0.2734 -0.1154
 4318W        W23172   2.054   2.095  15.978  0.1691  0.2554  0.0144
 4319W        W23173   2.338   9.895   5.531 -0.0415 -0.2646 -0.1914
 4320W        W23174   4.951   1.399  12.421  0.1181 -0.1141  0.1765
 4321W        W23175   6.336   5.925   3.746  0.2514  0.2289  0.1572
 4322W        W23176  11.715  14.898   2.941 -0.0841  0.0277  0.1592
 4323W        W23177  15.244  16.027   3.455  0.0503 -0.0660  0.0115
 4324W        W23178   9.853   3.056   6.077  0.0854  0.1678 -0.0633
 4325W        W23179   1.943   3.337  15.764 -0.1248 -0.1972 -0.2183
 4326W        W23180   6.090  10.129  16.803 -0.0136 -0.0847 -0.0762
 4327W        W23181  16.430  11.753  16.223  0.1769  0.0144 -0.1179
 4328W        W23182   6.958   6.999   0.077  0.0066  0.2612  0.1104
 4329W        W23183   9.659   8.673   5.627 -0.2556  0.4440 -0.1224
 4330W        W23184   3.368  12.113   0.465 -0.0280  0.3200 -0.3050
 4331W        W23185  13.135   3.663  17.091  0.3770  0.0385 -0.1051
 4332W        W23186   1.878   9.009   0.376  0.2568  0.1558 -0.1266
 4333W        W23187  13.592   8.554  15.361  0.0728 -0.1665  0.1031
 4334W        W23188   1.273   7.343  14.661 -0.3590  0.1657 -0.3205
 4335W        W23189   9.485  10.078  16.261 -0.1131  0.0512 -0.0982
 4336W        W23190  11.540   3.564  13.383  0.1802  0.2326  0.0675
 4337W        W23191   3.050   6.911  15.916  0.0835  0.2089  0.0323
 4338W        W23192   6.804  16.181  14.637  0.2305 -0.4118 -0.0342
 4339W        W23193  14.310   6.616  11.754 -0.2389 -0.0958  0.1957
 4340W        W23194  10.604  15.772   3.624 -0.1763  0.2666  0.1219
 4341W        W23195  16.208   5.403  11.895 -0.1206  0.0090 -0.2135
 4342W        W23196   1.599  12.958   2.598  0.1023  0.0755 -0.0988
 4343W        W23197   7.862   7.281   3.334  0.0048 -0.0788  0.0380
 4344W        W23198   1.318  10.307   5.204  0.2402  0.1218 -0.1232
 4345W        W23199   4.684   5.159   4.831  0.0346 -0.1492  0.0964
 4346W        W23200   3.328   0.388  16.512  0.1443  0.1587  0.0366
 4347W        W23201  15.920   8.453  14.147  0.4084  0.0972  0.1267
 4348W        W23202   3.474   9.529   1.916 -0.2836 -0.0886 -0.1124
 4349W        W23203  12.301   0.149   3.363 -0.0573  0.1076 -0.0847
 4350W        W23204   4.702  12.743  15.934  0.2971  0.0472 -0.0615
 4351W        W23205   4.281   6.816   3.864  0.0680 -0.2984 -0.3672
 4352W        W23206   9.326  14.513   2.489  0.1663  0.1892  0.0558
 4353W        W23207  12.171  15.742  17.106  0.1514  0.1285  0.0466
 4354W        W23208  14.816   0.425  16.896  0.0265 -0.0315 -0.0941
 4355W        W23209   3.944  16.787   2.352 -0.0786 -0.1002 -0.0010
 4356W        W23210  11.604   4.881  16.853  0.0056 -0.5492  0.1698
 4357W        W23211  12.343  16.786   2.107  0.1149  0.0886  0.0946
 4358W        W23212   1.214   6.679  13.990  0.1487  0.3620 -0.2065
 4359W        W23213  16.426  14.396   3.415 -0.0137 -0.0143 -0.2295
 4360W        W23214   8.654   3.188   2.219  0.2659  0.2821  0.3125
 4361W        W23215  16.687  16.735   0.818 -0.2426  0.2161  0.0968
 4362W        W23216   5.851  13.487  14.068 -0.1984 -0.0649  0.1322
 4363W        W23217   2.336   6.363  13.059  0.0680  0.0299 -0.0986
 4364W        W23218   9.173   8.516  12.212 -0.2076  0.0740 -0.1072
 4365W        W23219  16.678  15.504   1.570 -0.0197  0.1356 -0.0248
 4366W        W23220  13.637  14.843  13.573  0.1058  0.0218  0.2195
 4367W        W23221   4.969  16.077   1.569  0.1530 -0.2398 -0.2301
 4368W        W23222   8.440  16.884  15.108  0.0391  0.0569  0.0592
 4369W        W23223   2.482  17.011  14.826 -0.1844 -0.1619  0.1141
 4370W        W23224  16.246  11.396  16.936  0.2305 -0.0044  0.0086
 4371W        W23225   2.746   8.661   0.548  0.4121 -0.0498  0.0744
 4372W        W23226   7.184   6.485   5.269  0.2371 -0.0974  0.1497
 4373W        W23227  12.235  16.726   5.281 -0.1950 -0.1455 -0.0729
 4374W        W23228  12.259  14.263  16.415 -0.2767  0.1015 -0.0031
 4375W        W23229  10.631   5.547  15.438  0.2291  0.0035 -0.1158
 4376W        W23230   4.692   0.839   1.337 -0.1080 -0.1154 -0.2325
 4377W        W23231  11.993  15.947   3.971  0.0119 -0.2604 -0.1460
 4378W        W23232  11.468  15.399  12.919 -0.0899 -0.0607 -0.1435
 4379W        W23233  16.364  16.862  13.194  0.2564 -0.0502  0.1684
 4380W        W23234   9.868   1.793  15.119 -0.2053 -0.0865 -0.3184
 4381W        W23235  14.281   8.856  16.220 -0.1360  0.0003 -0.0946
 4382W        W23236   6.976   2.381   2.883  0.0004  0.0567  0.0031
 4383W        W23237   6.649   5.761  15.166 -0.0136  0.0149 -0.0018
 4384W        W23238   7.737  15.794  16.646  0.2189 -0.3069  0.1658
 4385W        W23239   2.249   4.222   4.633  0.0850 -0.2064 -0.2814
 4386W        W23240   7.595  13.343  16.404 -0.0450 -0.3579 -0.3151
 4387W        W23241  15.735  11.520  15.310  0.0665 -0.1450  0.2408
 4388W        W23242   7.237   2.005  12.239  0.0911 -0.2887 -0.0208
 4389W        W23243   5.927   7.274   1.271 -0.3768 -0.1444 -0.1175
 4390W        W23244   7.353  17.087   2.808 -0.1876 -0.2542 -0.1273
 4391W        W23245   1.436   7.538   1.430  0.0410 -0.2907  0.0762
 4392W        W23246  15.232   3.150  14.327 -0.0453  0.0084  0.2053
 4393W        W23247  16.791  10.155  15.534 -0.0672 -0.2440 -0.2806
 4394W        W23248   3.837   0.906  14.634  0.0773  0.3164  0.2441
 4395W        W23249   7.552   3.175  12.735 -0.0435  0.1510 -0.0854
 4396W        W23250   0.305   5.165   1.439  0.0567  0.0891 -0.0880
 4397W        W23251  10.416   4.260  15.969 -0.0794  0.0846 -0.2699
 4398W        W23252   2.670   5.111   3.906 -0.1823  0.2580 -0.2023
 4399W        W23253  12.394   9.525  16.777 -0.3378  0.3374  0.1957
 4400W        W23254  10.155   3.560   0.245 -0.4232  0.0335  0.1058
 4401W        W23255   9.343   0.680  14.204  0.1471 -0.1649 -0.0277
 4402W        W23256  11.184  16.009  13.722 -0.0228 -0.2042  0.1379
 4403W        W23257  15.839  12.134  14.102  0.0488 -0.0961  0.1115
 4404W        W23258  13.004   8.415  15.917 -0.0619 -0.1649 -0.1213
 4405W        W23259  14.029  12.839   1.340 -0.4153  0.0906  0.0441
 4406W        W23260  10.645   1.794   3.080 -0.1988 -0.1852  0.2092
 4407W        W23261   6.110   8.419  13.421 -0.0394 -0.2282 -0.1189
 4408W        W23262   9.746   8.393  17.149 -0.2100  0.0171  0.1020
 4409W        W23263  11.753  12.055   4.694 -0.0880  0.1958  0.0090
 4410W        W23264   7.310   3.797  13.467  0.2484 -0.2078  0.3678
 4411W        W23265  10.946  15.999  17.177 -0.3096  0.2069 -0.2771
 4412W        W23266  12.300   4.322  16.930  0.0016 -0.2441  0.3755
 4413W        W23267  13.879  16.152   0.498 -0.2236  0.1442 -0.0009
 4414W        W23268  16.521   3.832   0.695  0.0169  0.1013 -0.0761
 4415W        W23269   8.124   9.728  11.160 -0.2083  0.0315  0.2171
 4416W        W23270   0.261  16.127  17.118 -0.1440  0.1120  0.2246
 4417W        W23271  14.689  14.206  13.116  0.2830 -0.3271 -0.1217
 4418W        W23272  13.969   2.079  15.086 -0.1837  0.2268 -0.1520
 4419W        W23273   8.115  17.157  15.957  0.1662 -0.1662 -0.2411
 4420W        W23274   9.100  15.871  14.901  0.1861  0.2187 -0.4205
 4421W        W23275   1.448   3.222  11.985  0.0678 -0.1775  0.0952
 4422W        W23276   7.392   9.702   4.236 -0.2436 -0.0183  0.1210
 4423W        W23277  16.924   0.441  15.476 -0.0944  0.0334  0.2165
 4424W        W23278  14.591   0.198  13.046 -0.0031  0.2725  0.3500
 4425W        W23279   5.451  10.734   3.783 -0.0777 -0.2123  0.0176
 4426W        W23280   9.389   9.529  12.306 -0.2709 -0.0658  0.3073
 4427W        W23281  11.691  16.710   5.165 -0.1181  0.0040 -0.1880
 4428W        W23282  15.369  13.869  14.009 -0.4644  0.2444 -0.1722
 4429W        W23283  16.013   7.880  14.302  0.0713  0.1898 -0.0442
 4430W        W23284  11.633   3.523  14.212  0.0129  0.2982  0.0846
 4431W        W23285   4.726  12.142   0.753  0.2524  0.0702 -0.2307
 4432W        W23286   7.104   5.621   1.141 -0.2140  0.0515 -0.2419
 4433W        W23287   5.217   0.790   0.276 -0.0634 -0.0917  0.1090
 4434W        W23288   5.452  10.483  13.765  0.3822  0.2224  0.1506
 4435W        W23289   2.608   4.479  12.271  0.1025  0.1206 -0.0417
 4436W        W23290   3.342   9.831  12.719  0.0546  0.1929 -0.2236
 4437W        W23291  10.682  13.982  15.751  0.0733  0.1056 -0.1494
 4438W        W23292   3.192  14.541   3.348 -0.3081  0.3083 -0.0888
 4439W        W23293   4.720  11.186  16.307  0.4483  0.2698 -0.1198
 4440W        W23294   0.898  16.445   0.503  0.4833 -0.0690  0.0847
 4441W        W23295  15.228  11.007   4.022 -0.1526 -0.2154 -0.2227
 4442W        W23296   3.259  10.326  14.603  0.1307  0.2651 -0.3498
 4443W        W23297   7.258   9.858  14.518 -0.0300 -0.0384 -0.0893
 4444W        W23298   5.872  14.048  14.233 -0.0199 -0.2071 -0.0321
 4445W        W23299   1.238  13.467  13.399 -0.3629 -0.2862 -0.0682
 4446W        W23300  12.755   9.698  15.068 -0.0714 -0.0259 -0.0401
 4447W        W23301   2.473   9.706   0.406 -0.1644 -0.2120 -0.1523
 4448W        W23302  17.435  11.882  15.901 -0.2010 -0.1535 -0.0187
 4449W        W23303   7.431   6.641  17.138 -0.2376  0.1814  0.2438
 4450W        W23304  15.214   6.119   3.738  0.0670  0.1582  0.1758
 4451W        W23305   8.261  17.458   4.432  0.1538  0.1524 -0.2392
 4452W        W23306  15.823   0.076  14.070 -0.0966 -0.4961  0.1459
 4453W        W23307   0.989  15.582   1.702 -0.3450 -0.1971  0.0263
 4454W        W23308  12.917   5.046   0.594  0.0234  0.2160  0.0338
 4455W        W23309   5.354  10.501  15.069 -0.1099 -0.1173  0.2846
 4456W        W23310  13.289   5.916  17.060 -0.2886  0.0681  0.0875
 4457W        W23311   0.907   2.825   4.592 -0.4684  0.0647 -0.1669
 4458W        W23312  13.693   7.196  13.610  0.2302 -0.3400 -0.1195
 4459W        W23313   8.838   6.696   2.922 -0.3526  0.1710  0.1453
 4460W        W23314   1.104   4.087  16.743 -0.1815  0.3371 -0.1100
 4461W        W23315  11.074  14.916  12.834  0.1340  0.2803  0.0954
 4462W        W23316   8.317  12.041  12.255  0.0322 -0.0322  0.0505
 4463W        W23317   6.091   2.515   2.561  0.1514  0.0213 -0.0089
 4464W        W23318   4.891   4.486  15.041  0.1599  0.0753 -0.0680
 4465W        W23319   8.181  16.361  14.273  0.0238  0.2181  0.0309
 4466W        W23320  11.388  11.226   1.050  0.1763  0.2098  0.2308
 4467W        W23321  17.351  11.367   1.199 -0.0965 -0.1699  0.2074
 4468W        W23322   7.817   1.903   0.600 -0.0992  0.0206  0.0195
 4469W        W23323   9.717  11.169   3.025 -0.4956  0.0922  0.1619
 4470W        W23324   7.681   1.119  13.328 -0.1836  0.1599 -0.3004
 4471W        W23325  11.861   4.147  17.243 -0.0261 -0.1055  0.1082
 4472W        W23326  14.527  16.560   4.730 -0.0740 -0.3217 -0.2671
 4473W        W23327   4.378   2.121  14.599  0.0316  0.2835  0.0252
 4474W        W23328  16.561   5.827  13.190 -0.0148  0.5445 -0.1586
 4475W        W23329  15.135   4.357  14.555 -0.2147 -0.0976  0.1343
 4476W        W23330   4.598   8.256   3.352 -0.0314  0.1649 -0.2585
 4477W        W23331  10.619   8.131  17.229  0.1766 -0.1133  0.0213
 4478W        W23332  12.239  17.167  16.097  0.0894 -0.2063  0.0895
 4479W        W23333   1.958   4.859  15.444  0.2661 -0.3103 -0.2776
 4480W        W23334   7.643   4.022   4.181 -0.1084 -0.1647 -0.2742
 4481W        W23335   4.058   1.592  12.130 -0.2390  0.0580  0.0891
 4482W        W23336   1.701   2.381   3.155  0.1889  0.1008 -0.1137
 4483W        W23337  14.537  10.574  16.848  0.0941 -0.0747  0.1703
 4484W        W23338  10.043   2.137  13.426 -0.0432 -0.1559 -0.1250
 4485W        W23339   3.906   0.820  13.427 -0.1543  0.1776  0.0297
 4486W        W23340  12.342  16.596  14.946  0.0142  0.0531  0.0931
 4487W        W23341  16.290   5.366   4.545  0.0059 -0.2816  0.1988
 4488W        W23342   9.582  16.525  13.367  0.5881  0.2455 -0.0937
 4489W        W23343  15.463   6.267   1.811 -0.1149 -0.1518  0.1659
 4490W        W23344   0.509   7.394  10.648 -0.1736 -0.0576  0.0244
 4491W        W23345  17.140   2.791   0.679 -0.2178 -0.2522 -0.0093
 4492W        W23346   6.836   6.019   3.966 -0.2719  0.1232  0.2376
 4493W        W23347  10.587   7.553   4.933  0.1695 -0.2809  0.3868
 4494W        W23348  10.096  13.262   4.017 -0.0271  0.2149 -0.0333
 4495W        W23349  15.415   5.836   5.628  0.0215 -0.1331 -0.1379
 4496W        W23350  16.565   1.081  16.588 -0.0986 -0.0562  0.1731
 4497W        W23351  16.146   9.075   1.396 -0.2933  0.1678 -0.2308
 4498W        W23352   2.474  17.197   2.156 -0.3356 -0.0607 -0.1323
 4499W        W23353   1.275   3.163  11.437  0.1408  0.0986 -0.0478
 4500W        W23354  14.634  11.772  13.277 -0.0711 -0.0449 -0.0630
 4501W        W23355  11.783   1.204  16.496 -0.1372 -0.0450  0.3688
 4502W        W23356   5.262  11.063   2.064 -0.2632 -0.1267  0.1467
 4503W        W23357  14.829   2.535  16.324 -0.0957 -0.0067 -0.0156
 4504W        W23358   9.693   8.674  14.397  0.0204 -0.0837 -0.1374
 4505W        W23359  10.376  16.973  13.749 -0.1202  0.2761  0.0144
 4506W        W23360   0.149  13.950   1.681 -0.2538 -0.1944 -0.3760
 4507W        W23361   8.023  11.236  12.457  0.1455  0.2240  0.0857
 4508W        W23362  16.491  12.634  15.417  0.2409  0.1204  0.0719
 4509W        W23363   1.458   9.001  15.029  0.0864 -0.1477  0.1599
 4510W        W23364  11.938  13.967   0.108 -0.2295 -0.0057  0.3667
 4511W        W23365   8.336   4.750  14.973  0.0254 -0.0592 -0.3437
 4512W        W23366  10.619  15.628  14.025 -0.3070  0.2448  0.0080
 4513W        W23367   3.757   3.176  12.202 -0.0064 -0.0648  0.0745
 4514W        W23368  14.546  14.265   0.165  0.0324  0.0061 -0.2729
 4515W        W23369  15.385  16.861   0.187 -0.2507 -0.1350 -0.3072
 4516W        W23370  16.665   2.109  12.125  0.1072  0.0382 -0.0311
 4517W        W23371  15.641   8.648   1.864  0.0881 -0.1665 -0.0239
 4518W        W23372  14.234   1.907  13.072 -0.3353 -0.4300 -0.1282
 4519W        W23373  13.951   4.062   4.099 -0.1054  0.1213 -0.1994
 4520W        W23374  12.889   3.572  13.613  0.0238  0.0526 -0.1587
 4521W        W23375   5.397   3.624   3.267  0.2571  0.0823 -0.2140
 4522W        W23376  13.923   5.449   3.908  0.1592  0.0045  0.2018
 4523W        W23377   3.396   4.114  17.066  0.2064 -0.2088  0.1128
 4524W        W23378  13.817  14.289   5.233  0.2513 -0.1934 -0.1117
 4525W        W23379   6.515  12.458   2.522  0.4903 -0.1409  0.1521
 4526W        W23380  14.985  14.703  11.487  0.0739  0.0939 -0.5767
 4527W        W23381  12.614   8.145  15.130 -0.1208  0.2689  0.0278
 4528W        W23382   7.284   0.504   3.887 -0.1525  0.0372  0.3637
 4529W        W23383   2.026   2.190   0.543  0.1590 -0.3786  0.0827
 4530W        W23384   6.245  10.297   4.554  0.0019  0.0614 -0.2623
 4531W        W23385  16.600  12.131   4.618  0.0281  0.0081 -0.1140
 4532W        W23386  13.027  12.889   1.934  0.2989 -0.0996  0.1310
 4533W        W23387  16.132  15.143  12.274  0.0572 -0.2058  0.2896
 4534W        W23388   5.380  17.574  16.319  0.1408 -0.0479 -0.1508
 4535W        W23389   0.773  13.622   1.038  0.1847 -0.1169 -0.0600
 4536W        W23390   3.114   9.847  13.751 -0.1931  0.0403 -0.0306
 4537W        W23391   2.970  12.067  13.661 -0.3616  0.0073  0.2615
 4538W        W23392  14.393   2.117  12.578 -0.1540 -0.1557  0.1184
 4539W        W23393   2.446   3.626  14.424 -0.1559  0.1443 -0.1529
 4540W        W23394   2.560  12.224  12.637  0.0652  0.2342 -0.4937
 4541W        W23395  15.553   1.667  12.964 -0.0999  0.1826 -0.1785
 4542W        W23396   2.831   5.777   3.192 -0.3068 -0.2415  0.1914
 4543W        W23397  15.546   3.740   0.500  0.2477  0.0125 -0.0837
 4544W        W23398   9.203   8.028  14.503  0.2356 -0.2424 -0.1219
 4545W        W23399   6.938   5.127   0.363  0.0068 -0.1118 -0.1360
 4546W        W23400   9.270   0.806   2.942 -0.0728  0.1076  0.2505
 4547W        W23401   1.383  12.865   1.226 -0.3680  0.1467  0.3670
 4548W        W23402  13.371  10.284  15.944 -0.4556 -0.1339  0.0381
 4549W        W23403  14.768  13.860  17.156 -0.0626 -0.1040  0.2460
 4550W        W23404  13.241   0.436   0.577  0.0313  0.4076  0.0179
 4551W        W23405  14.218   6.544   0.775  0.2195 -0.0529  0.0906
 4552W        W23406   9.607   6.662   2.506  0.0250  0.1519  0.2046
 4553W        W23407   4.232  10.206  15.099  0.0422 -0.1927 -0.1434
 4554W        W23408  13.111  16.296  14.465  0.1212 -0.0549 -0.0842
 4555W        W23409   9.428   1.292  12.704 -0.5084  0.2479  0.4073
 4556W        W23410  11.094   9.045  15.433  0.0499  0.1441  0.0132
 4557W        W23411  13.269   6.339   3.948  0.1434  0.2446 -0.1453
 4558W        W23412   5.795  14.403   2.629  0.1045  0.0835 -0.2096
 4559W        W23413   6.127  11.318   3.869  0.1404 -0.0024  0.0017
 4560W        W23414  14.530   8.905  13.700 -0.0578 -0.0060 -0.0744
 4561W        W23415   9.083   3.844  15.140  0.1456  0.1140 -0.0524
 4562W        W23416  12.163   2.323  13.949  0.0641 -0.1445 -0.2635
 4563W        W23417  15.234   4.177  16.158 -0.5137 -0.0880  0.2596
 4564W        W23418  15.330  13.440  17.164 -0.1636 -0.1623  0.1151
 4565W        W23419   7.379   9.046   2.999  0.5271 -0.0551 -0.1440
 4566W        W23420   4.465   6.329  17.233 -0.1193 -0.0941 -0.0719
 4567W        W23421   2.475   0.420   1.854 -0.2478  0.1593  0.1016
 4568W        W23422   0.596  16.966  16.182  0.0532 -0.1104 -0.0977
 4569W        W23423   6.178   5.578  13.913  0.0847  0.0455  0.1976
 4570W        W23424   2.650  13.311   2.814  0.1034  0.1643  0.0838
 4571W        W23425  15.345   4.255  15.644  0.0067 -0.2989 -0.1074
 4572W        W23426  12.149   5.669   0.938  0.0374 -0.0212 -0.1258
 4573W        W23427   3.660   5.522   1.275 -0.3219  0.0644  0.1379
 4574W        W23428   5.310  10.851   5.518 -0.0170 -0.0248  0.2119
 4575W        W23429   9.665   9.804   3.902 -0.2161 -0.0497 -0.2539
 4576W        W23430   5.915  15.968  13.650  0.0592 -0.1437 -0.1086
 4577W        W23431   7.673   2.007   1.671  0.6038 -0.4002 -0.2211
 4578W        W23432   3.928   4.030   0.827 -0.2050 -0.0314  0.1520
 4579W        W23433  10.191   4.874   1.144 -0.1136 -0.0185 -0.2672
 4580W        W23434  17.459  13.588   4.894  0.2881 -0.2563  0.1354
 4581W        W23435  12.398  10.977   1.925 -0.0745 -0.2979 -0.1428
 4582W        W23436  10.822   6.360   3.076 -0.2322 -0.0825  0.2234
 4583W        W23437   2.165   1.148   0.673  0.1538 -0.3474  0.0414
 4584W        W23438   0.222   4.068  12.576 -0.1106 -0.0819  0.2199
 4585W        W23439   3.350   3.909   5.183 -0.0213  0.1313  0.3585
 4586W        W23440  16.180  14.886  15.010 -0.0787 -0.3226 -0.2101
 4587W        W23441   1.640  10.501   2.068  0.1688 -0.4848 -0.1953
 4588W        W23442  16.057  15.557   1.724  0.1538 -0.0766 -0.1188
 4589W        W23443   5.492  17.045  16.132  0.0872  0.3812  0.1618
 4590W        W23444  15.308   5.845   3.312 -0.1084  0.1920  0.0905
 4591W        W23445  13.120   6.900   2.078  0.2682 -0.2697 -0.1867
 4592W        W23446   7.604  13.433   5.104 -0.0486  0.4838  0.1010
 4593W        W23447   1.110   0.986  15.790 -0.1137 -0.0286  0.0311
 4594W        W23448  15.879  17.157  15.869 -0.1140 -0.0559  0.3840
 4595W        W23449  12.352   4.623  13.425  0.0103 -0.1513  0.1861
 4596W        W23450   3.972  14.275   5.135  0.0415 -0.0534 -0.1511
 4597W        W23451   4.473   8.180  14.156  0.0046  0.0205 -0.0250
 4598W        W23452   5.149   7.761  12.286  0.3799 -0.3613  0.1965
 4599W        W23453   5.595  10.914   4.255  0.1731  0.1901 -0.2608
 4600W        W23454  15.338  10.819  14.358 -0.3800 -0.1890  0.1034
 4601W        W23455   3.358   6.789   5.030 -0.2559 -0.1856  0.3498
 4602W        W23456  10.496   9.560  16.289  0.0807  0.0557 -0.1787
 4603W        W23457  13.838   2.488  14.310  0.5327 -0.2533  0.0442
 4604W        W23458   4.909  17.539   3.773 -0.1053 -0.3282  0.2657
 4605W        W23459  17.351   2.210   1.412 -0.2440  0.1839  0.3924
 4606W        W23460   0.994  16.646   2.677  0.0006  0.0950 -0.1127
 4607W        W23461   9.323   2.491  12.866 -0.1416 -0.0342  0.1045
 4608W        W23462  11.890  16.393  15.727  0.2190  0.0764  0.1456
 4609W        W23463   6.178   9.847   3.815  0.2389 -0.3947  0.1085
 4610W        W23464   0.605  15.723  16.984 -0.0385 -0.0490  0.2004
 4611W        W23465   7.931  15.966   1.140 -0.2120  0.1718  0.1748
 4612W        W23466   6.702  14.861  13.253 -0.4183 -0.0642  0.2172
 4613W        W23467  14.968   5.459   4.419  0.2707  0.2028 -0.1815
 4614W        W23468  16.498   8.494   3.146  0.1619 -0.0225  0.2553
 4615W        W23469   8.788   1.145  15.346  0.0104  0.0569 -0.4753
 4616W        W23470   3.190   0.822   3.543 -0.1920  0.1084 -0.0179
 4617W        W23471   6.713   1.825   5.920  0.0404  0.0674  0.0904
 4618W        W23472  14.952  16.463   1.316 -0.0260 -0.1956 -0.0018
 4619W        W23473   9.260   3.053   1.144 -0.0629  0.0692  0.0994
 4620W        W23474   0.151  12.993  12.523  0.2373  0.1411  0.1065
 4621W        W23475   6.660   1.127   1.822  0.1823 -0.1410  0.0676
 4622W        W23476  12.633   2.973  16.181 -0.0457  0.1606  0.4223
 4623W        W23477   6.530   5.274  15.318 -0.2665  0.1402  0.2549
 4624W        W23478   0.711   5.758   2.176  0.1118 -0.0179  0.0039
 4625W        W23479   2.302   8.473   2.007  0.1825 -0.0439  0.4677
 4626W        W23480   4.679  12.049   4.471 -0.0588  0.3412 -0.0682
 4627W        W23481  15.856   9.605  13.111 -0.1196 -0.0248  0.1472
 4628W        W23482   7.614   7.264  15.760 -0.1438 -0.2696 -0.1028
 4629W        W23483  12.986   7.371  14.059 -0.0386  0.2843 -0.0369
 4630W        W23484   0.824   6.826   6.230 -0.0447 -0.2822 -0.1648
 4631W        W23485   7.058   2.465   1.037 -0.0038  0.1598  0.1537
 4632W        W23486   8.062   9.928   3.064 -0.3705  0.0102 -0.0360
 4633W        W23487  11.738  11.143  11.241  0.0093 -0.0544  0.0051
 4634W        W23488  14.978   2.856   4.047 -0.1033  0.0125 -0.0439
 4635W        W23489   1.157   9.631   3.364  0.4596  0.1321  0.1682
 4636W        W23490  13.228   2.069   2.407 -0.0503  0.0600 -0.2246
 4637W        W23491   9.768   6.250   4.477 -0.0023  0.0079  0.1273
 4638W        W23492   2.252  14.160   4.306  0.2054  0.0187  0.2320
 4639W        W23493   8.542  13.964  15.162  0.4733  0.0023  0.0669
 4640W        W23494   1.277  16.596   4.453  0.2768  0.2443 -0.1195
 4641W        W23495   3.532   8.817   1.280 -0.2265  0.0249  0.0582
 4642W        W23496   8.948   3.789  15.938  0.1451  0.0719  0.1773
 4643W        W23497   7.503  13.523  13.155 -0.1632  0.3026 -0.0787
 4644W        W23498   9.227   7.485  13.381 -0.3600  0.1409 -0.0579
 4645W        W23499  10.495   2.776   2.058  0.0836  0.0631 -0.1731
 4646W        W23500   7.469  11.874  12.517  0.1220  0.0829  0.1962
 4647W        W23501  16.450  13.873   2.063 -0.1383  0.0260  0.0458
 4648W        W23502  11.283  15.772  11.676  0.2499 -0.0538 -0.2630
 4649W        W23503   5.726   9.679   4.006  0.0240  0.0781 -0.1456
 4650W        W23504  16.404  16.564   3.430 -0.1013  0.0472  0.0276
 4651W        W23505  15.211   5.540  15.539  0.0176 -0.0871  0.0908
 4652W        W23506  12.407   6.015   1.713  0.1238 -0.1072  0.0059
 4653W        W23507  12.714  11.190   3.479  0.0598 -0.0356 -0.3255
 4654W        W23508  14.190   9.994   1.727  0.3823  0.1206 -0.2223
 4655W        W23509  10.695   5.328  15.963 -0.2189  0.0358  0.5191
 4656W        W23510   1.467   4.966   4.985  0.1363  0.3138  0.4097
 4657W        W23511   7.418  12.913   0.048  0.2098 -0.0250  0.0893
 4658W        W23512  13.778  13.680   0.285 -0.1801  0.0122 -0.0026
 4659W        W23513  12.520  12.049  16.751  0.0810  0.0039  0.3983
 4660W        W23514   1.464   8.774   0.047  0.0723  0.4324 -0.1334
 4661W        W23515   5.069  16.089  12.913  0.2166  0.2167 -0.2640
 4662W        W23516   3.006   3.050   2.951 -0.1193 -0.2055  0.1503
 4663W        W23517   0.166  12.940   4.156 -0.1484 -0.1266 -0.2208
 4664W        W23518  14.266  11.996   1.982 -0.0588 -0.3508 -0.1125
 4665W        W23519   1.729  15.650   2.198  0.5764 -0.0324  0.3092
 4666W        W23520   4.182   9.627  15.227 -0.0219  0.1485 -0.0352
 4667W        W23521   2.807  12.845   4.827  0.1329 -0.0885  0.1335
 4668W        W23522   3.198  11.609   4.980  0.0093  0.1773 -0.1332
 4669W        W23523  16.091   9.455  14.128  0.0008  0.1314  0.0721
 4670W        W23524  17.285  12.822  14.997 -0.1056  0.0939  0.0977
 4671W        W23525  16.317  17.582  16.430 -0.4797 -0.1954 -0.0073
 4672W        W23526  15.152  17.198   4.996 -0.0103  0.2514  0.1618
 4673W        W23527  10.809   8.195  15.742 -0.3235 -0.1105  0.1673
 4674W        W23528   9.933  14.344   0.857  0.0669 -0.1721  0.4517
 4675W        W23529  16.737   6.742   0.320 -0.1507 -0.0812  0.0243
 4676W        W23530   0.650   6.070  12.324  0.0388 -0.0972  0.0834
 4677W        W23531  13.904  11.314   3.881  0.2036  0.1029  0.0494
 4678W        W23532   9.898   5.114  12.720 -0.2920 -0.0274  0.3009
 4679W        W23533  13.040   8.504   3.458  0.1806 -0.3060  0.1284
 4680W        W23534   6.615   2.828  15.006  0.0350 -0.1584 -0.1927
 4681W        W23535   6.550  16.290   0.963 -0.1108  0.1411  0.4462
 4682W        W23536   2.941  13.138  16.175  0.0352 -0.1966 -0.2624
 4683W        W23537   6.947  11.365   1.557 -0.0193  0.3478  0.0244
 4684W        W23538   4.923   5.014   2.120 -0.1361  0.0968 -0.0680
 4685W        W23539   7.219   8.364   5.599 -0.0767  0.2228  0.0280
 4686W        W23540   4.126  16.564  12.986  0.0137 -0.0104 -0.0180
 4687W        W23541   7.346   9.761   5.132  0.0860 -0.0758  0.0497
 4688W        W23542  11.272   6.857   3.131  0.2622 -0.0619 -0.2149
 4689W        W23543  14.485  11.790  14.901 -0.0601  0.1521  0.1084
 4690W        W23544   0.781  12.198   1.188  0.0175 -0.4048 -0.0619
 4691W        W23545   4.273  13.448   0.658 -0.1260  0.0983  0.0607
 4692W        W23546   0.805  17.010   4.035  0.0471 -0.0988  0.0158
 4693W        W23547  14.150   9.534  13.051 -0.0575  0.0385  0.0522
 4694W        W23548   7.206  15.335   3.988 -0.2538  0.2090  0.0429
 4695W        W23549   3.224  16.648   3.546  0.2418 -0.0959  0.0674
 4696W        W23550   8.697  12.752  17.140  0.1433 -0.2907  0.0418
 4697W        W23551   7.307  17.139  14.106 -0.1671  0.1473  0.1151
 4698W        W23552  14.196   7.019   4.693  0.1567 -0.2059  0.1139
 4699W        W23553   4.256   4.568   0.308 -0.2574  0.2672  0.1135
 4700W        W23554  12.613  16.237  16.314  0.0268 -0.1807  0.0464
 4701W        W23555  15.077  11.133   1.269  0.0444  0.0560 -0.3508
 4702W        W23556   4.420  10.813   4.615 -0.2276 -0.2413  0.1387
 4703W        W23557   9.493   5.650   5.210  0.2354  0.3829  0.0457
 4704W        W23558   6.508  14.582   1.053 -0.1706 -0.2914  0.1321
 4705W        W23559   5.210   5.457   1.309  0.0314 -0.3052  0.1207
 4706W        W23560   9.477  10.313   1.948 -0.0643  0.1053 -0.0427
 4707W        W23561  10.702  14.516  15.651 -0.0743  0.2352 -0.0475
 4708W        W23562   1.833   0.831   0.841  0.1300  0.2589 -0.2099
 4709W        W23563  12.833  13.949   3.457 -0.1020 -0.0284 -0.0584
 4710W        W23564   8.867   1.674   4.434 -0.0040 -0.3075 -0.0023
 4711W        W23565   2.746   0.156   1.097 -0.3399 -0.0353  0.2953
 4712W        W23566   4.167  17.571  12.852 -0.1866  0.1443 -0.0369
 4713W        W23567  14.372  15.874  12.781  0.1067 -0.2507  0.1954
 4714W        W23568  17.008  13.222  16.532  0.0872  0.1744 -0.4182
 4715W        W23569  12.521   9.614   1.460  0.1277  0.0276  0.2461
 4716W        W23570  11.898  11.828  16.621 -0.2065  0.2546 -0.0343
 4717W        W23571  12.999  14.054  16.032  0.0724  0.1945 -0.2336
 4718W        W23572  15.110  16.784   3.797 -0.1329 -0.0071  0.0981
 4719W        W23573   5.818   8.489   1.824 -0.0003 -0.1144 -0.3132
 4720W        W23574  14.844   7.451  16.160 -0.0533 -0.2729  0.1279
 4721W        W23575   2.306   2.198  12.497 -0.0173  0.4041  0.1272
 4722W        W23576  16.194   5.560   0.210 -0.1180 -0.1224 -0.0419
 4723W        W23577  16.420  15.654  13.026  0.1845  0.1626  0.1247
 4724W        W23578  14.634   5.736  13.346  0.3773 -0.3942 -0.0571
 4725W        W23579   3.757   8.533   0.908 -0.0576 -0.0800 -0.2485
 4726W        W23580  17.155   9.399  13.272 -0.0740  0.0961  0.1145
 4727W        W23581   6.993  17.127  13.652 -0.2837 -0.1364  0.2307
 4728W        W23582   4.795   6.322  16.135  0.0421 -0.2158 -0.2812
 4729W        W23583   6.290  10.043   5.910 -0.0172 -0.0632  0.1169
 4730W        W23584  16.636  10.971   0.500 -0.0129  0.1468 -0.0665
 4731W        W23585  10.351   9.034  13.574 -0.0535  0.2923 -0.2615
 4732W        W23586   8.848   6.674   4.365 -0.1299 -0.2563  0.5260
 4733W        W23587   2.337  13.635  16.326 -0.0141  0.0420  0.1531
 4734W        W23588   2.146   5.337  15.410 -0.2115 -0.2046 -0.1640
 4735W        W23589   6.260  13.131   1.582 -0.1667 -0.1921  0.1206
 4736W        W23590  13.259   6.754   0.704 -0.0871 -0.1045  0.1678
 4737W        W23591   3.821   0.456   4.206 -0.0307 -0.1052  0.4353
 4738W        W23592  15.325   8.767  15.206  0.1965 -0.0435 -0.1577
 4739W        W23593  14.374  12.105   3.070  0.0193 -0.0522  0.0042
 4740W        W23594  15.393   1.170   4.015  0.1412  0.0857 -0.2802
 4741W        W23595   4.792  15.168  13.569  0.3923 -0.2406  0.0802
 4742W        W23596  12.748  11.685  11.308 -0.2144 -0.0071  0.1834
 4743W        W23597   0.922   6.456   1.057 -0.0566 -0.2332  0.1457
 4744W        W23598  16.740   7.530  11.976 -0.0514  0.1763 -0.0780
 4745W        W23599   2.697  11.971   2.577  0.0521  0.6145 -0.1438
 4746W        W23600  10.836   3.145   5.057  0.2432  0.0308  0.0624
 4747W        W23601  11.712  14.315   3.149 -0.1195  0.1871  0.2041
 4748W        W23602  15.475   6.650   2.727  0.1806 -0.0803 -0.0488
 4749W        W23603  12.267  17.058  12.550 -0.1647  0.2037  0.2465
 4750W        W23604  15.775   4.068  14.069  0.0444 -0.3187 -0.0854
 4751W        W23605  12.362   5.253  16.616 -0.2918  0.1294  0.3618
 4752W        W23606  15.455   2.374   0.381  0.1855 -0.0668  0.0480
 4753W        W23607  13.411   2.077   1.746 -0.1645 -0.1994 -0.1213
 4754W        W23608  17.198   5.999   0.647 -0.1608  0.2018 -0.2012
 4755W        W23609  15.617  17.483   0.625  0.0213 -0.0014  0.0310
 4756W        W23610   0.807  10.306   3.955  0.0179  0.0222  0.0589
 4757W        W23611  15.165  11.538  15.052 -0.0578 -0.0628  0.0000
 4758W        W23612  15.121   2.093   2.273  0.1036 -0.1292 -0.0274
 4759W        W23613   6.301  15.576  14.470  0.0218  0.1795  0.2061
 4760W        W23614  16.979  15.795  17.151 -0.3244  0.2264  0.1060
 4761W        W23615   4.013  13.009   2.725  0.2086  0.0898 -0.1760
 4762W        W23616  17.582   3.176  14.638 -0.1696 -0.3528  0.1873
 4763W        W23617  10.606   8.037  15.251 -0.0381 -0.0324 -0.0056
 4764W        W23618  15.456  14.702  16.926 -0.0352  0.1221  0.2290
 4765W        W23619   2.330  12.515   1.227  0.1545  0.1232 -0.2387
 4766W        W23620  14.133   8.283   1.608 -0.2156  0.3134 -0.3152
 4767W        W23621   7.785   2.300  16.212  0.4639 -0.0681  0.3417
 4768W        W23622  16.756   8.018   3.008  0.1107 -0.0615 -0.0810
 4769W        W23623  14.602   2.955  13.492  0.2424 -0.0162 -0.0512
 4770W        W23624   9.410   7.557  14.723  0.0819  0.0264 -0.0184
 4771W        W23625   9.510  16.051   0.005  0.1000 -0.1056 -0.3506
 4772W        W23626   4.690  16.805  16.981  0.2716 -0.0284  0.1533
 4773W        W23627  17.440   7.223   2.049 -0.1908 -0.1997  0.0539
 4774W        W23628   0.217   9.541  15.474 -0.1313 -0.1006  0.2377
 4775W        W23629   3.061  10.252  12.702  0.2680  0.4145  0.1381
 4776W        W23630  14.109   7.857  15.862  0.2179 -0.1231 -0.0939
 4777W        W23631   6.069   3.460   2.442  0.2247 -0.3472  0.0557
 4778W        W23632  15.085   5.522  13.686 -0.1788 -0.0180  0.1068
 4779W        W23633   0.598   0.286   3.401 -0.0802  0.0392  0.0051
 4780W        W23634   3.934   3.061   0.028  0.0244  0.1742 -0.0939
 4781W        W23635   0.493  17.193   0.938 -0.0997 -0.0525  0.3966
 4782W        W23636   6.168   5.030  12.785  0.1319  0.0052  0.1730
 4783W        W23637   7.475   9.568  12.520  0.0065  0.1030  0.1019
 4784W        W23638   9.614   9.350   4.107  0.0372  0.2979 -0.2121
 4785W        W23639  11.399   3.673  16.398 -0.0212 -0.1778  0.0510
 4786W        W23640   4.066   0.793  16.467  0.0078 -0.0211  0.0282
 4787W        W23641  16.190  13.410  14.216 -0.0786  0.1684  0.0813
 4788W        W23642  17.349  14.558  14.214  0.1511  0.3089 -0.1727
 4789W        W23643   6.859   9.757  16.002 -0.2213  0.0700 -0.2146
 4790W        W23644  10.534  16.967   0.266 -0.1512  0.1583 -0.2178
 4791W        W23645   4.621  11.643  14.782  0.1677 -0.2146 -0.0580
 4792W        W23646  10.396   0.239   1.261  0.0883  0.0847  0.0512
 4793W        W23647  14.976   2.871  12.691 -0.2475  0.2297 -0.0064
 4794W        W23648   9.412  13.621  15.557  0.5436 -0.0106  0.1403
 4795W        W23649   0.375  17.505   1.348  0.2713  0.2053 -0.0825
 4796W        W23650   5.999  13.933   1.174 -0.0585 -0.2847 -0.2017
 4797W        W23651  15.981   8.022  12.765  0.0071 -0.0208  0.0248
 4798W        W23652  15.161   5.098  15.258  0.1543 -0.1554 -0.1639
 4799W        W23653   9.096  14.289  12.713 -0.1992  0.0481 -0.0218
 4800W        W23654   9.899  15.049  15.418  0.0024  0.0680 -0.1531
 4801W        W23655   3.283  10.360   0.888  0.2264  0.0881 -0.0113
 4802W        W23656   2.232   6.763   0.894 -0.3071  0.0650 -0.1495
 4803W        W23657   3.660   7.653  14.990 -0.0102  0.2903 -0.0552
 4804W        W23658   9.600  15.803   4.627  0.2046 -0.4477 -0.1845
 4805W        W23659   1.152   9.767   5.270  0.1275  0.0273 -0.2799
 4806W        W23660  14.173  14.122   2.743 -0.2979 -0.2088 -0.0327
 4807W        W23661   6.115   2.345   1.285  0.0910 -0.0737  0.0377
 4808W        W23662  13.491   5.548   4.123  0.1327 -0.3177  0.0262
 4809W        W23663   0.048   2.533   3.738 -0.0671 -0.2638 -0.4294
 4810W        W23664   7.321  16.643  14.014  0.1870  0.0981 -0.0485
 4811W        W23665  14.911   7.942  16.774 -0.1107  0.2140  0.1040
 4812W        W23666   4.495  16.541   4.910 -0.0994 -0.3440  0.0305
 4813W        W23667  10.329  12.287   1.115 -0.1351 -0.0011 -0.0825
 4814W        W23668   3.181  10.727   3.108  0.2913 -0.1816  0.2700
 4815W        W23669  16.557   0.194   0.786 -0.2107  0.1329 -0.1203
 4816W        W23670   0.323   9.996  17.244 -0.1756 -0.0769 -0.0448
 4817W        W23671  16.477  14.296  14.011 -0.0197 -0.2463  0.1454
 4818W        W23672   0.830  12.044  14.294  0.3603 -0.6083 -0.1338
 4819W        W23673  13.708   4.117  12.313 -0.0207 -0.1342 -0.0230
 4820W        W23674  14.519   7.629  17.149 -0.0613 -0.2007  0.1759
 4821W        W23675  10.641  10.740  12.455 -0.2390 -0.2418 -0.0676
 4822W        W23676   6.990  12.310   3.156 -0.2491  0.0282  0.1662
 4823W        W23677  13.121  13.389   4.040 -0.2616  0.4299 -0.0919
 4824W        W23678  12.201  17.320  14.892 -0.2166 -0.2237  0.1394
 4825W        W23679   9.933   6.792   2.172 -0.1014 -0.2467  0.1069
 4826W        W23680   4.948  16.906   0.183  0.2177  0.2782  0.1172
 4827W        W23681  13.676   6.846   4.536 -0.3237 -0.0641 -0.1097
 4828W        W23682   0.641  11.324   0.732  0.0347 -0.4832  0.2018
 4829W        W23683  11.538   5.949  12.513 -0.1565  0.3434 -0.0935
 4830W        W23684  11.202   9.626  16.386 -0.0023 -0.3745 -0.1388
 4831W        W23685   9.762   1.623   2.551 -0.1416 -0.1427 -0.0600
 4832W        W23686   2.716   0.211  15.379 -0.2493  0.0202  0.1027
 4833W        W23687  15.363   1.819  16.924  0.2587 -0.2367  0.0892
 4834W        W23688   6.048   2.446  15.111  0.0366 -0.0645  0.2136
 4835W        W23689  14.770  16.707  14.561  0.1138 -0.2777  0.2104
 4836W        W23690   2.550  15.340   3.189 -0.1845  0.3816  0.1027
 4837W        W23691  14.842   4.685  16.524  0.1072  0.2691  0.0744
 4838W        W23692   1.903  14.447  17.233 -0.1250 -0.2221 -0.0715
 4839W        W23693   6.850   7.632   2.571  0.1759 -0.0523  0.1706
 4840W        W23694  14.199   0.776   2.839  0.1151  0.2773  0.0145
 4841W        W23695   6.143   0.035  15.069 -0.0591  0.0516  0.0204
 4842W        W23696   8.927  14.497  12.274  0.1005  0.1010 -0.0771
 4843W        W23697   9.954   5.306   3.879  0.0919  0.1102  0.1029
 4844W        W23698  16.872  15.918  12.300 -0.2046 -0.0894 -0.1171
 4845W        W23699   3.911   4.082  16.671  0.1823 -0.0558 -0.1805
 4846W        W23700   1.538   6.755   3.555  0.0837 -0.0933 -0.0805
 4847W        W23701   6.727  16.219  12.125  0.4306 -0.0949 -0.0384
 4848W        W23702  15.557  12.711  13.015  0.1002 -0.1669  0.0874
 4849W        W23703   0.247  13.340  16.753 -0.0588  0.0140 -0.1797
 4850W        W23704   4.376   8.340   5.233 -0.1748  0.2443 -0.1408
 4851W        W23705   2.702  14.341  14.304 -0.0679 -0.0071  0.1788
 4852W        W23706  16.136   2.916   0.155 -0.3498 -0.0966 -0.0966
 4853W        W23707   7.351   1.633   0.736  0.0643 -0.1523 -0.2961
 4854W        W23708  14.791   7.736  14.850 -0.1803 -0.0424  0.1842
 4855W        W23709  10.063  14.535  16.392  0.3165 -0.3979 -0.2194
 4856W        W23710   8.699   9.325  16.664 -0.1340 -0.1320 -0.2010
 4857W        W23711   1.054   0.641   0.954  0.1299  0.0560  0.1521
 4858W        W23712  15.433   5.880   0.390 -0.1248  0.3692  0.1422
 4859W        W23713  17.223   4.027  12.707 -0.1169  0.1478  0.3304
 4860W        W23714  13.601   2.992  13.425  0.1877  0.0849 -0.0361
 4861W        W23715  17.441   7.606  13.654  0.2329 -0.0689 -0.3094
 4862W        W23716   1.871   9.797   1.489  0.0288  0.2133 -0.1646
 4863W        W23717  14.501  15.017   2.299 -0.0568 -0.3217 -0.0820
 4864W        W23718   6.032   4.309  13.349 -0.2004  0.2168  0.0115
 4865W        W23719   2.523   9.995   5.061  0.0137 -0.0136  0.3331
 4866W        W23720   4.269   5.531  15.763  0.1592 -0.0856  0.0290
 4867W        W23721   6.809   2.454   2.084  0.0954 -0.0499 -0.0848
 4868W        W23722   5.791  13.047  16.827  0.3392  0.0424 -0.1464
 4869W        W23723   0.936   9.782  12.807  0.4139 -0.0735 -0.0457
 4870W        W23724  14.763  11.115   1.647 -0.1061  0.2778 -0.2909
 4871W        W23725  16.267   1.099  17.034 -0.3243  0.0441 -0.3461
 4872W        W23726  15.274  13.687   3.904 -0.1202  0.0449  0.2862
 4873W        W23727  15.065  13.764  14.948  0.2074 -0.2442 -0.2379
 4874W        W23728  15.209  17.511  16.988  0.0609 -0.1895 -0.1033
 4875W        W23729   8.740  13.685  16.970  0.0248 -0.0562  0.1029
 4876W        W23730  11.081   1.739   4.665  0.2521 -0.1297  0.0625
 4877W        W23731  16.049  12.739  17.239  0.0717  0.1301 -0.0798
 4878W        W23732  15.059   6.807  17.200 -0.2291  0.0356 -0.0714
 4879W        W23733   6.373  12.942  15.859  0.2742 -0.0982 -0.1082
 4880W        W23734  12.156   4.261  14.157 -0.0907  0.0874 -0.2586
 4881W        W23735  10.109  12.932   3.102  0.1129  0.0248 -0.2536
 4882W        W23736   5.299   9.739   2.145 -0.0741  0.1479  0.2375
 4883W        W23737   6.976  10.647  16.579 -0.1749 -0.3277  0.1093
 4884W        W23738   0.956   1.303  16.118  0.2297 -0.1538  0.1742
 4885W        W23739  15.020  12.608  15.087  0.1251 -0.1472  0.0348
 4886W        W23740  15.790   6.836  15.924 -0.0336 -0.0524 -0.0314
 4887W        W23741  13.363   6.279   2.518  0.2261  0.1502 -0.0828
 4888W        W23742  17.390  12.014   3.854  0.0295  0.3515  0.0111
 4889W        W23743   7.334  15.281  15.649  0.1233 -0.0100  0.3514
 4890W        W23744   8.071  12.123   1.465 -0.1435 -0.1369  0.4640
 4891W        W23745   7.939   8.622  14.188 -0.0470 -0.1647  0.4478
 4892W        W23746   9.020  13.971  14.825 -0.1995  0.1471 -0.0286
 4893W        W23747  12.426   3.354   0.443 -0.2586  0.1688 -0.1036
 4894W        W23748   1.275  12.357  16.853  0.0477 -0.1548  0.1938
 4895W        W23749   1.506   6.122   2.162 -0.4436 -0.1280 -0.0376
 4896W        W23750   8.928   8.812  14.907  0.3100  0.2703 -0.2653
 4897W        W23751  10.003  13.614  13.644 -0.0053  0.1001 -0.0253
 4898W        W23752   1.273   6.324   3.898 -0.0152 -0.4375 -0.0050
 4899W        W23753   3.496   6.819  13.007  0.1731  0.1601 -0.0543
 4900W        W23754  16.928   0.186   1.159  0.0641  0.0208  0.0241
 4901W        W23755  13.052   8.408   1.485  0.0863  0.2566 -0.0645
 4902W        W23756   8.374   6.845   4.445  0.2792 -0.1881 -0.2269
 4903W        W23757  17.170  13.008   4.005  0.0119 -0.0058  0.0354
 4904W        W23758   3.455  15.129   3.015 -0.2827  0.1101  0.1883
 4905W        W23759   4.242   0.663   2.179 -0.0993  0.1120  0.0386
 4906W        W23760   6.509   8.054  14.944 -0.2607 -0.3600  0.2233
 4907W        W23761   7.852  11.899   0.558 -0.0225  0.2100 -0.0075
 4908W        W23762   5.165  11.138  15.821 -0.1715  0.1181  0.0219
 4909W        W23763  17.440   3.777   0.868 -0.0572  0.0597  0.2215
 4910W        W23764   5.851   8.783  15.387 -0.0761 -0.1781  0.1680
 4911W        W23765   5.590   0.553   2.962 -0.1959 -0.2679  0.2501
 4912W        W23766  12.376   4.099   5.046  0.0721  0.1459  0.3134
 4913W        W23767  13.558  16.688   1.279 -0.1666  0.2002  0.0321
 4914W        W23768   7.934   7.181   4.561  0.1981 -0.1682  0.3550
 4915W        W23769   3.660  12.180   1.429 -0.3393  0.3192 -0.2508
 4916W        W23770   5.533  11.814   0.299 -0.2750 -0.0476 -0.0462
 4917W        W23771  11.851   6.975  16.927 -0.1802 -0.1162  0.2081
 4918W        W23772  14.771   2.861  14.461  0.0858 -0.2957 -0.3311
 4919W        W23773   3.395  10.236   2.679  0.1217  0.0465  0.0699
 4920W        W23774  13.755  15.446  17.127 -0.1556 -0.3180 -0.3122
 4921W        W23775  11.351   7.258   1.616 -0.0497  0.0048 -0.0937
 4922W        W23776   4.603  10.739   1.494  0.1126 -0.0045  0.0806
 4923W        W23777   5.077   1.449  11.934 -0.3375 -0.2402  0.1376
 4924W        W23778  10.158  16.915   3.782  0.1664  0.3930 -0.0907
 4925W        W23779  14.365   8.537  14.744  0.0189 -0.2201  0.1811
 4926W        W23780  14.392   0.625   4.765  0.0581  0.0731  0.0351
 4927W        W23781  10.575  15.810   0.220  0.0389 -0.1626  0.1009
 4928W        W23782   1.921  16.493  16.847 -0.1243  0.1193  0.0080
 4929W        W23783   5.798  10.500  16.923 -0.0633 -0.3652  0.0267
 4930W        W23784   5.203   8.171   4.362 -0.1780  0.0221 -0.0302
 4931W        W23785  13.616   3.929  16.808 -0.3831  0.2695  0.1165
 4932W        W23786  10.691  15.007  15.768  0.0405 -0.0023  0.2179
 4933W        W23787  13.098  13.468  15.195  0.1799 -0.2177 -0.5393
 4934W        W23788   1.989   2.174   1.041 -0.0702  0.0577  0.0519
 4935W        W23789   4.826   0.924  14.109 -0.0520 -0.2040  0.3281
 4936W        W23790  13.001  16.457   3.086 -0.1004 -0.0417 -0.1717
 4937W        W23791   7.631  16.089   3.020  0.1577 -0.0796  0.1335
 4938W        W23792  15.897  16.550   1.648  0.0263  0.1087  0.0873
 4939W        W23793  10.438   7.836  14.099 -0.2019 -0.0584  0.0856
 4940W        W23794  15.824   9.242   3.054 -0.1796 -0.0873 -0.2408
 4941W        W23795  12.655  16.209  14.003  0.1226  0.0083 -0.0020
 4942W        W23796   3.011   2.224   2.763  0.3128  0.0420  0.0786
 4943W        W23797   5.219  11.270  13.352 -0.1979  0.2353 -0.0450
 4944W        W23798   0.481  13.523   1.616 -0.1823 -0.0828 -0.0255
 4945W        W23799  13.294  12.580  13.514 -0.0201  0.0781  0.0536
 4946W        W23800   9.386   5.443  14.249  0.3552 -0.1160 -0.0243
 4947W        W23801  16.632   4.870   3.293 -0.3269  0.2692 -0.0977
 4948W        W23802   2.617  11.079   4.327  0.0034 -0.2603  0.0784
 4949W        W23803  16.045  17.096  14.704  0.2461 -0.0807  0.2050
 4950W        W23804   4.548  12.497   2.111  0.0004 -0.0403 -0.1139
 4951W        W23805  12.202  17.394  15.585  0.3528 -0.0277 -0.1554
 4952W        W23806  13.807  10.173   2.053 -0.0265  0.0567 -0.2016
 4953W        W23807   5.755   2.226   3.242  0.0809 -0.0717 -0.1804
 4954W        W23808   4.755   9.184  14.409 -0.1282  0.0579  0.1548
 4955W        W23809   0.576  17.188  13.356  0.0000 -0.1787  0.0026
 4956W        W23810   3.974   3.081  15.009 -0.0917 -0.1457 -0.2607
 4957W        W23811  16.463  14.679   4.345  0.1829 -0.0445  0.0875
 4958W        W23812  16.281   6.849  15.951  0.0924  0.2249 -0.0971
 4959W        W23813  11.444  15.591  13.428  0.3732  0.1238 -0.2811
 4960W        W23814   7.079   2.513  12.185  0.3784  0.0738 -0.2184
 4961W        W23815   0.946   2.535  15.333  0.0551 -0.0088  0.3099
 4962W        W23816   2.252   3.946  13.900 -0.1974 -0.2200  0.1338
 4963W        W23817  14.194   5.809   4.159  0.2015 -0.0218 -0.0887
 4964W        W23818  14.631  15.679  15.544 -0.0219 -0.2176  0.1127
 4965W        W23819   4.743  11.203   4.766 -0.2735  0.1439 -0.0245
 4966W        W23820  17.012  10.702   0.395 -0.2847 -0.0137  0.0618
 4967W        W23821   9.760   7.205   1.948  0.1486  0.1406  0.0257
 4968W        W23822   2.266   2.492   1.866  0.2882 -0.1482 -0.1448
 4969W        W23823  11.202  12.440  13.044  0.1296  0.0869 -0.0954
 4970W        W23824   2.252   8.152  12.106 -0.0326 -0.0079  0.0148
 4971W        W23825   1.906   4.343  15.644  0.1186 -0.1073  0.1735
 4972W        W23826   5.762  12.492  12.922 -0.0261  0.1792 -0.1977
 4973W        W23827   2.602   5.759   4.883  0.0963 -0.2405 -0.0360
 4974W        W23828   6.237  10.982   4.300 -0.2782  0.1076  0.0317
 4975W        W23829   3.734  14.220   4.086 -0.0658  0.0726 -0.1105
 4976W        W23830   5.171  10.050  15.237 -0.0555  0.1110 -0.0054
 4977W        W23831  12.598   0.084  14.395 -0.2121 -0.0352 -0.3360
 4978W        W23832   1.354   4.408   4.826  0.2074  0.4430  0.4967
 4979W        W23833  10.190   6.798  15.529  0.2290 -0.1399  0.0965
 4980W        W23834   3.861  14.392   2.296 -0.0465 -0.0131  0.4937
 4981W        W23835   6.394  11.559  15.026 -0.2379  0.3115 -0.0565
 4982W        W23836  15.959   6.962   4.355 -0.1049  0.0751 -0.0514
 4983W        W23837   4.083   3.420  12.683 -0.0062 -0.2798 -0.1398
 4984W        W23838  15.626  12.469  14.542 -0.1395  0.0782  0.0497
 4985W        W23839   8.114  14.105  16.091 -0.1173  0.0833  0.1998
 4986W        W23840  13.919   9.363   1.273 -0.1419 -0.1159  0.2400
 4987W        W23841   4.363   0.475  15.652 -0.1613 -0.0032 -0.2740
 4988W        W23842   6.146   0.947  14.283 -0.2058  0.0866  0.1835
 4989W        W23843   3.831   4.006   1.376  0.0984 -0.0832 -0.1204
 4990W        W23844   3.058   4.912   3.302 -0.2215 -0.3393 -0.1575
 4991W        W23845   2.064  15.616  14.053  0.0471 -0.1186 -0.1932
 4992W        W23846  14.010  11.838  14.380  0.0981  0.2190 -0.1084
 4993W        W23847   2.152  16.695  15.158 -0.0144  0.1285 -0.1036
 4994W        W23848   5.856  15.183   3.186 -0.0054 -0.0915 -0.1081
 4995W        W23849   7.123   3.079  12.380 -0.3357  0.1074 -0.0586
 4996W        W23850   8.653   8.358   2.666 -0.1340  0.0061  0.0522
 4997W        W23851  15.813   8.908  16.905 -0.0891  0.1290  0.0452
 4998W        W23852   1.578   9.904   0.239 -0.1857 -0.1350 -0.2376
 4999W        W23853  10.903   8.033   5.318 -0.0630  0.1307  0.0823
 5000W        W23854   1.878   8.413   1.751  0.1184  0.0204  0.1420
 5001W        W23855   9.710  10.080   0.287  0.0504  0.0880  0.0575
 5002W        W23856  12.162   2.642   1.819  0.1980 -0.3083 -0.1311
 5003W        W23857  17.264   2.664  13.009  0.0196 -0.1575  0.0453
 5004W        W23858   9.482   7.770   0.663 -0.0156  0.1317 -0.4302
 5005W        W23859   0.931  10.594   4.797 -0.0814 -0.1010  0.0433
 5006W        W23860  15.462   6.345   4.425  0.1699 -0.0813 -0.1627
 5007W        W23861   8.409   0.277   1.689  0.0528  0.3698  0.0647
 5008W        W23862   7.015  14.105  15.065 -0.0272 -0.1683  0.0163
 5009W        W23863   5.686   7.057   3.938 -0.1942  0.0638 -0.0609
 5010W        W23864  12.519   2.426   0.232  0.1377 -0.1511  0.1731
 5011W        W23865  13.916   4.521   0.236  0.2550 -0.3072  0.1983
 5012W        W23866  16.758   5.412  17.246  0.0709 -0.2898 -0.1627
 5013W        W23867   5.737   2.133   1.048 -0.0215  0.2507  0.0053
 5014W        W23868  10.548   8.108   4.928 -0.0050  0.2243 -0.0909
 5015W        W23869   4.407   1.241  14.135 -0.0015 -0.0245  0.1189
 5016W        W23870  15.929   4.703  12.573  0.1044  0.1178 -0.3399
 5017W        W23871   1.070  15.395   5.119 -0.0419  0.1638  0.0754
 5018W        W23872   3.031   6.462   0.389  0.1067 -0.1573  0.0645
 5019W        W23873   2.903   8.075   1.144 -0.0065 -0.1408 -0.0353
 5020W        W23874  13.465   8.148   0.417  0.2673 -0.0420 -0.3267
 5021W        W23875  15.581  15.766   1.993  0.0552 -0.1681 -0.0102
 5022W        W23876   1.629   8.881   5.083 -0.1201 -0.1955  0.3287
 5023W        W23877   4.574  14.225  16.057  0.1560  0.0226 -0.1612
 5024W        W23878   5.192  10.092   0.849  0.2316 -0.2830 -0.0814
 5025W        W23879  12.902  16.154  12.088 -0.2158  0.0139 -0.0295
 5026W        W23880  13.605   1.303   4.261 -0.0442  0.0554  0.2099
 5027W        W23881   0.597  14.323  16.663  0.1133  0.0355  0.0227
 5028W        W23882   4.901   7.614   2.228  0.5272  0.1242  0.1013
 5029W        W23883   9.830   3.862   4.215  0.1457  0.5779  0.1249
 5030W        W23884  13.366   5.981  14.903  0.0490 -0.2545 -0.0422
 5031W        W23885  11.558   8.240  12.302  0.1214 -0.3793  0.1047
 5032W        W23886  11.357  11.444  14.576 -0.2451 -0.1892  0.2837
 5033W        W23887   3.266  10.358   4.447 -0.0773 -0.1368  0.4531
 5034W        W23888   2.265   9.600   4.627  0.1518  0.1269 -0.0457
 5035W        W23889   3.627   3.562   2.409 -0.1308  0.4340  0.0108
 5036W        W23890   6.232   6.310  17.028 -0.2058  0.1375 -0.1669
 5037W        W23891   5.928  15.923  14.176  0.2825 -0.1927  0.0037
 5038W        W23892   7.384   6.702  12.663  0.1636  0.1882 -0.1145
 5039W        W23893  10.175   1.792   3.449 -0.3735  0.1193 -0.0131
 5040W        W23894  13.205   9.527  12.940 -0.2125 -0.0522 -0.3342
 5041W        W23895   5.481   5.698  12.523 -0.0540 -0.4192  0.1929
 5042W        W23896   8.510  15.939  14.175 -0.2557 -0.2749  0.2300
 5043W        W23897   7.737   5.483   1.653  0.1591 -0.1884  0.2390
 5044W        W23898  12.884  13.170  15.749 -0.1249 -0.1882 -0.1833
 5045W        W23899   7.968   6.470  16.935  0.1588 -0.1361  0.2169
 5046W        W23900  16.713  16.940  12.244  0.4228 -0.0158 -0.1089
 5047W        W23901   1.166   6.197  13.030  0.0666  0.1493  0.1885
 5048W        W23902  13.800   8.076  16.171 -0.2167 -0.3137  0.1045
 5049W        W23903   0.627  16.326   5.049  0.0280 -0.0906 -0.1633
 5050W        W23904  12.012   9.912   2.761  0.2534 -0.4111  0.3431
 5051W        W23905   7.128   7.586   4.528  0.1163  0.2651 -0.2287
 5052W        W23906  10.352   0.571  17.036 -0.0529  0.3663  0.1484
 5053W        W23907   3.948  13.175   4.204  0.2466 -0.0688  0.0254
 5054W        W23908   8.619   5.948  12.808  0.0396 -0.1485  0.0042
 5055W        W23909  10.626   8.531   4.024  0.0251 -0.2367 -0.1649
 5056W        W23910   0.871  11.195   4.912 -0.4578 -0.1969  0.2326
 5057W        W23911  15.746  14.413  16.603  0.0621  0.0194 -0.1263
 5058W        W23912   3.464   6.583  13.912 -0.2426 -0.0956 -0.1622
 5059W        W23913   6.604   7.981   2.817  0.0854 -0.0307 -0.0267
 5060W        W23914  16.783   2.994   1.642 -0.3263 -0.1671 -0.1346
 5061W        W23915  15.400  10.315   2.894 -0.0433  0.0144  0.0443
 5062W        W23916   6.180   9.520   5.065  0.1251  0.2811  0.2141
 5063W        W23917   3.735  11.160  15.577 -0.0308  0.2684 -0.1687
 5064W        W23918   5.478  13.959  15.699  0.0103 -0.0080 -0.0057
 5065W        W23919   9.592  12.680  13.489 -0.1563 -0.0160 -0.0359
 5066W        W23920  12.055   9.585   3.271 -0.2463  0.1337  0.2011
 5067W        W23921   1.438  16.861  15.848  0.0907  0.0291 -0.0089
 5068W        W23922  12.372   1.713  15.613  0.2116  0.2409 -0.2408
 5069W        W23923   9.119   2.726  14.906  0.1634  0.1263  0.0850
 5070W        W23924   7.779   2.397   3.846  0.2345 -0.1919  0.1460
 5071W        W23925  16.708  13.422  13.106 -0.0937 -0.1027 -0.4535
 5072W        W23926  11.630  13.610  17.219  0.0493 -0.4233 -0.2277
 5073W        W23927   4.751   5.559   0.325 -0.0105 -0.0586  0.0065
 5074W        W23928   6.030   7.898   2.506  0.0293  0.0502 -0.1560
 5075W        W23929  11.878  10.094  14.823  0.0121 -0.2061 -0.1057
 5076W        W23930   0.411   1.903   2.338  0.0931 -0.1611  0.1400
 5077W        W23931   6.567  13.711  13.482 -0.0192 -0.2286 -0.2297
 5078W        W23932   2.919   8.797  12.464  0.1224 -0.0210 -0.2751
 5079W        W23933   3.282   2.954  14.652  0.3035  0.1085  0.0419
 5080W        W23934   2.377   3.352  12.210  0.0597  0.1342  0.1344
 5081W        W23935   8.648   9.651  13.700  0.1533 -0.2816  0.0575
 5082W        W23936  16.762   6.981   4.136 -0.0851 -0.2360  0.3668
 5083W        W23937   7.399  15.858   4.011  0.2326  0.3736 -0.3427
 5084W        W23938  13.952  16.218   2.013  0.0580  0.1511  0.2158
 5085W        W23939  17.029  15.385  14.726  0.2179 -0.2237  0.1939
 5086W        W23940   3.592  10.601  16.239  0.0604  0.0594 -0.2173
 5087W        W23941  15.442   4.658   4.391 -0.1251  0.0003 -0.2372
 5088W        W23942  10.100   9.385   2.380  0.1940 -0.0994 -0.1466
 5089W        W23943   3.294   7.261   2.050  0.2794  0.1510  0.0749
 5090W        W23944  10.925   8.463   2.300 -0.2796 -0.0440 -0.1128
 5091W        W23945   6.116   8.547   5.271 -0.1009  0.3308 -0.1332
 5092W        W23946  16.225   7.727   1.161  0.0738 -0.0023  0.1712
 5093W        W23947  17.525  17.350   0.656  0.1590 -0.0432 -0.0460
 5094W        W23948  17.128   7.559   3.776  0.0196 -0.4074 -0.3864
 5095W        W23949   2.347  16.311  16.649  0.0348 -0.4640  0.0488
 5096W        W23950  11.993   4.696   4.657 -0.1290 -0.0649 -0.1035
 5097W        W23951   8.493   2.409   1.238  0.1283 -0.2551  0.2854
 5098W        W23952   3.742   5.581  16.050  0.1167  0.1639  0.0017
 5099W        W23953  12.684   3.943  15.925 -0.1568  0.0972  0.0968
 5100W        W23954   2.431   7.816   1.233  0.0840 -0.0996 -0.0711
 5101W        W23955  14.022  10.030   4.934  0.0509  0.1033  0.0789
 5102W        W23956   0.286  17.008   0.035  0.2015  0.2827 -0.0226
 5103W        W23957  15.149  15.042  17.139 -0.2257 -0.2779  0.0785
 5104W        W23958  13.333   7.094  12.264 -0.1519 -0.0337  0.1812
 5105W        W23959  17.376  12.149   4.387 -0.0525  0.0743  0.1480
 5106W        W23960  14.919  11.966  16.893  0.3062  0.4880 -0.0894
 5107W        W23961  15.308   0.215  12.235  0.0559 -0.1446  0.0925
 5108W        W23962   2.939   6.270   4.787 -0.0019  0.0815 -0.2315
 5109W        W23963  17.292   0.959   0.318  0.1045 -0.3152  0.2020
 5110W        W23964   8.879   8.142   2.069 -0.3828 -0.3570  0.0741
 5111W        W23965   4.431  11.371  15.948 -0.1023 -0.0000 -0.2625
 5112W        W23966  14.443  10.088  12.634  0.1109  0.0977 -0.1334
 5113W        W23967   5.974  15.789  13.159  0.1260  0.4853  0.2550
 5114W        W23968   3.357   9.444   4.964 -0.0604  0.5781 -0.1082
 5115W        W23969  16.810  13.115  12.706 -0.1814 -0.2609  0.0806
 5116W        W23970   4.719   7.163   3.440 -0.2115 -0.2092 -0.1824
 5117W        W23971  14.081   6.301  15.488 -0.2133 -0.2088  0.2314
 5118W        W23972   7.531   1.046   0.581 -0.1857 -0.0703  0.0136
 5119W        W23973  12.409  10.680   4.998  0.0927  0.1554  0.2570
 5120W        W23974   2.646   1.620  16.805  0.1804 -0.0188  0.2652
 5121W        W23975   2.875   4.501  15.799 -0.1064  0.0264 -0.0499
 5122W        W23976  17.578   7.556   4.412 -0.2580  0.0647 -0.1422
 5123W        W23977   6.177   7.382  13.296 -0.0641 -0.0305 -0.0693
 5124W        W23978   0.788   4.267  15.374 -0.2904 -0.1335  0.1693
 5125W        W23979   0.519   5.783  13.403 -0.1984  0.1851  0.0793
 5126W        W23980  10.336   5.938  14.166  0.6026 -0.1601  0.0777
 5127W        W23981  15.660  14.235   4.809  0.0866 -0.0824  0.1931
 5128W        W23982  16.143   7.599   4.230  0.5566  0.1548  0.2328
 5129W        W23983  11.362   5.940   1.443  0.0458 -0.3388 -0.1518
 5130W        W23984   0.823   5.858   0.346 -0.0821 -0.1761 -0.2553
 5131W        W23985   6.465   9.847   4.559 -0.1953 -0.0490 -0.3229
 5132W        W23986  13.569   5.867   0.786  0.0170 -0.2189 -0.0905
 5133W        W23987  15.758  13.846   1.745  0.2725  0.0847  0.1112
 5134W        W23988  12.309   0.846  15.094 -0.0058 -0.1778  0.1299
 5135W        W23989   0.350   9.021  17.110 -0.1674  0.0883 -0.1748
 5136W        W23990   1.107  12.593  15.847  0.0011  0.0065  0.0567
 5137W        W23991   7.923   4.329  16.934 -0.2870 -0.0702 -0.1574
 5138W        W23992   1.380   3.962  12.526 -0.2623  0.2661 -0.0295
 5139W        W23993  14.648  17.186   3.529  0.0714  0.1317 -0.0525
 5140W        W23994  15.610  15.392  16.459 -0.1974 -0.1049 -0.1692
 5141W        W23995   5.524  14.566   3.889  0.0076  0.0241 -0.0013
 5142W        W23996   4.495  12.754  12.523  0.0319 -0.1069 -0.0146
 5143W        W23997  17.156  14.741  13.396 -0.0735  0.0010  0.2904
 5144W        W23998   1.959  16.770   4.735  0.0338  0.0877  0.1897
 5145W        W23999   2.679   5.262  11.711  0.2008  0.0332 -0.1609
 5146W        W24000  14.714   9.378   1.008  0.0140 -0.0352  0.3273
 5147W        W24001   2.828   0.331   2.763  0.1248 -0.2111  0.0842
 5148W        W24002   1.766   4.050   4.951 -0.4793 -0.0420  0.1924
 5149W        W24003   9.852   5.729  14.159  0.0975 -0.1121  0.2014
 5150W        W24004   8.830   0.474  12.526  0.2027 -0.1447 -0.0770
 5151W        W24005   7.294  10.014   3.817  0.0060 -0.0690 -0.2020
 5152W        W24006   3.896  10.159   4.089  0.0134 -0.1929 -0.1515
 5153W        W24007   7.919   9.616  15.397  0.0508 -0.0537 -0.2244
 5154W        W24008   7.266   4.112  16.688  0.0606 -0.1492  0.3733
 5155W        W24009   7.744  14.937   0.117  0.0321 -0.1824  0.1076
 5156W        W24010   2.665   1.700   2.318  0.1647 -0.4968 -0.0411
 5157W        W24011  15.031   9.794   3.297  0.1844  0.1186 -0.2621
 5158W        W24012  14.373  11.622  13.934  0.0281  0.0922 -0.0449
 5159W        W24013  13.072  11.642   4.351 -0.3265  0.0578 -0.1783
 5160W        W24014   0.016   4.144   3.912  0.2668 -0.1230 -0.0583
 5161W        W24015  15.217  12.168   2.199 -0.2265 -0.1030  0.0181
 5162W        W24016  13.958  15.687   2.889 -0.0978  0.1109 -0.0461
 5163W        W24017   7.139  17.073   0.640 -0.6785 -0.4354  0.3397
 5164W        W24018   0.118  12.707   0.060 -0.1883 -0.0877  0.0164
 5165W        W24019   6.044  16.738   1.991  0.2982 -0.0217 -0.3156
 5166W        W24020  17.209   8.991  12.667 -0.1307 -0.1701  0.0648
 5167W        W24021   3.227   2.401  12.563 -0.0761 -0.2767 -0.0293
 5168W        W24022   9.112  13.360  12.495  0.0386  0.0753 -0.0700
 5169W        W24023   4.098   5.196  16.321 -0.0696 -0.0406  0.2912
 5170W        W24024   8.937   3.885   4.510 -0.1634  0.2224  0.3480
 5171W        W24025  14.422  13.347  12.853 -0.1803 -0.2378 -0.2052
 5172W        W24026  13.476   5.971  14.371  0.1812  0.0018  0.1868
 5173W        W24027   0.476  12.363   0.791  0.0397  0.0848  0.0725
 5174W        W24028  11.850  16.843  16.442  0.3216 -0.4703  0.1318
 5175W        W24029   9.502  12.756  13.024  0.0594  0.0154 -0.1486
 5176W        W24030   0.310  17.369  16.285 -0.1637  0.1203  0.0114
 5177W        W24031   3.179  12.710  15.477  0.2110 -0.2598  0.0404
 5178W        W24032   9.390  14.283   1.607  0.1169 -0.0458  0.1651
 5179W        W24033   4.299   3.198  16.367 -0.2089 -0.0776 -0.2134
 5180W        W24034  11.274   9.117   1.929  0.0777  0.1429 -0.0032
 5181W        W24035   0.671   7.727   1.074  0.2287  0.4044  0.0353
 5182W        W24036   7.066  12.622  12.919 -0.5654  0.4026  0.1118
 5183W        W24037  13.925   7.223   0.028  0.0532  0.1476  0.2106
 5184W        W24038  11.210  13.494   0.502 -0.2109  0.0250  0.2221
 5185W        W24039  16.153   9.072  13.702  0.0794 -0.0030 -0.0760
 5186W        W24040  15.624  14.719  13.063  0.0037 -0.1626  0.1083
 5187W        W24041  14.053   4.685  14.808 -0.0090 -0.0287  0.3877
 5188W        W24042   2.593  12.951   1.252 -0.0918  0.0920  0.1969
 5189W        W24043  11.477   0.810  14.579 -0.0169  0.0155  0.2239
 5190W        W24044   3.742   8.217  15.694  0.0096 -0.0521 -0.2863
 5191W        W24045   3.001   2.916   0.452  0.0822  0.0984  0.0106
 5192W        W24046   1.583  13.458   4.753  0.2226 -0.0354  0.0555
 5193W        W24047  11.855  11.005  14.276  0.0333  0.0739 -0.0474
 5194W        W24048   0.845  14.120  13.463 -0.3038 -0.1347 -0.1148
 5195W        W24049   9.637  12.624   0.631 -0.1858 -0.2136  0.0312
 5196W        W24050   1.487   2.047   2.451  0.0528  0.1341  0.2246
 5197W        W24051   8.023  11.102   4.520  0.1466 -0.0154  0.1232
 5198W        W24052  14.629  16.557   0.947  0.1278 -0.1467  0.3905
 5199W        W24053  15.127   5.163   4.083  0.1329  0.0256  0.1523
 5200W        W24054  17.336   9.643   1.215 -0.1725 -0.0580  0.1717
 5201W        W24055   7.727   3.683  16.514 -0.0445 -0.0256 -0.0947
 5202W        W24056   0.578  12.894   2.817 -0.0967 -0.5026  0.1663
 5203W        W24057   3.344   8.565   0.313  0.2230  0.2559  0.1281
 5204W        W24058  13.130   0.776   4.917 -0.0072  0.2231 -0.3644
 5205W        W24059  12.670   6.507   1.765 -0.0664 -0.0711  0.2099
 5206W        W24060   1.252   0.346   4.948 -0.2557  0.1090 -0.1506
 5207W        W24061   2.030  10.055   0.409 -0.1215  0.1412  0.0204
 5208W        W24062  11.784   9.446  12.675 -0.0744  0.1612 -0.2011
 5209W        W24063   5.004   8.497  16.602 -0.1228 -0.0731 -0.0195
 5210W        W24064   6.349   3.043  16.396 -0.1376 -0.0153 -0.0137
 5211W        W24065  11.971   1.903  15.216  0.0443  0.1339 -0.0090
 5212W        W24066   3.674   7.153  14.852  0.1383  0.0185  0.1576
 5213W        W24067   8.904  12.273   0.324 -0.0251  0.0030  0.0919
 5214W        W24068   1.045   6.195   5.260  0.1262  0.0596  0.1643
 5215W        W24069  15.803   7.442   2.449 -0.0419  0.2645  0.1503
 5216W        W24070  11.248  13.296  14.442 -0.0472 -0.1443  0.2238
 5217W        W24071   8.630   5.498   1.179 -0.2165 -0.0962  0.0038
 5218W        W24072  13.618  17.529   3.340 -0.0338  0.1331  0.2344
 5219W        W24073  17.177  14.893  16.576 -0.2271 -0.1866  0.1381
 5220W        W24074   0.357   4.249   0.517  0.2081  0.1470 -0.1024
 5221W        W24075   5.648  10.192  12.529  0.1328 -0.1295 -0.2368
 5222W        W24076   0.338   5.687  17.207  0.1620 -0.1038 -0.2573
 5223W        W24077   9.145  15.127   4.234 -0.0589 -0.1641  0.1865
 5224W        W24078   8.689  11.154  15.141 -0.0213  0.2359 -0.2877
 5225W        W24079  14.753  14.290  16.948  0.0079  0.1042  0.1536
 5226W        W24080   1.447  17.585  14.707  0.2275  0.0919 -0.0456
 5227W        W24081   4.791   0.866  16.730 -0.0976  0.0129 -0.0261
 5228W        W24082   3.362  10.293  13.580 -0.0979  0.1325  0.0663
 5229W        W24083   0.249   9.054  16.531 -0.0375 -0.0952  0.0262
 5230W        W24084   4.787   5.796   1.140  0.2029 -0.3454  0.1043
 5231W        W24085  16.750   5.027   1.485  0.2038 -0.1562 -0.0650
 5232W        W24086  16.349   7.004   5.489  0.2513 -0.2206 -0.1389
 5233W        W24087   1.063   3.413   3.251  0.0304 -0.2054 -0.0655
 5234W        W24088   5.942  11.749   0.554  0.2071 -0.0801  0.0870
 5235W        W24089   2.852   3.970   2.867  0.0704 -0.0815 -0.1584
 5236W        W24090  17.108   5.286   1.215 -0.0177 -0.0893  0.1599
 5237W        W24091  12.433   7.575   1.236 -0.2829 -0.0970  0.0262
 5238W        W24092   3.126   5.168  13.483 -0.2869  0.0733 -0.0719
 5239W        W24093   5.674   0.984  14.540  0.0433 -0.0175 -0.3020
 5240W        W24094   6.163   7.658   1.687 -0.1571  0.1403  0.0664
 5241W        W24095  16.459  10.733  15.075 -0.2220 -0.0843 -0.3055
 5242W        W24096   3.551   8.616  15.470  0.1271  0.0046  0.0655
 5243W        W24097   1.794   4.845  11.781  0.1508  0.3068  0.2093
 5244W        W24098   6.881  15.265  16.729  0.0060 -0.1324 -0.1987
 5245W        W24099  16.097   8.253   0.985  0.0803  0.1771  0.0019
 5246W        W24100   0.187   7.535   0.304 -0.2638 -0.0178 -0.0432
 5247W        W24101  10.422   7.652   3.173  0.0843 -0.0294  0.0626
 5248W        W24102   3.307   6.660  15.178  0.0450  0.1644  0.0462
 5249W        W24103   6.633   2.606   2.521 -0.2804 -0.3450 -0.1044
 5250W        W24104   8.948   2.322   4.764  0.3014 -0.1511  0.1397
 5251W        W24105   4.553  13.849   4.700  0.1559  0.1408  0.0071
 5252W        W24106  11.281  15.063   3.064 -0.0435 -0.0768 -0.2559
 5253W        W24107  10.761   1.318  17.122  0.1110  0.4714 -0.0386
 5254W        W24108  16.755  16.751  15.891 -0.1858 -0.0787  0.0819
 5255W        W24109  13.130  17.355  12.811  0.0721 -0.0564 -0.0104
 5256W        W24110   1.178  14.703   0.436  0.0071 -0.1159 -0.2165
 5257W        W24111   4.509  14.070  16.893  0.3316  0.0507  0.0039
 5258W        W24112  13.439   8.783  16.543  0.2271  0.0681  0.0203
 5259W        W24113  12.792   5.676  13.110  0.0422 -0.3154  0.1222
 5260W        W24114  10.592   8.823   1.300 -0.0118 -0.0042  0.0990
 5261W        W24115  14.859  11.818   3.094  0.3461  0.0555  0.0959
 5262W        W24116  11.196   4.435   0.957  0.2529  0.4458  0.3076
 5263W        W24117   2.110  10.043   2.319 -0.1194 -0.1183 -0.2015
 5264W        W24118   8.036  16.199   3.611 -0.1662  0.1129 -0.0124
 5265W        W24119   5.300  14.513  15.757 -0.0309 -0.0046  0.1390
 5266W        W24120   5.018  14.751  15.412 -0.2621  0.0460 -0.2627
 5267W        W24121  15.230  17.527   4.198  0.1213 -0.1335 -0.0257
 5268W        W24122  10.167   1.094  13.097 -0.1562 -0.0060 -0.2313
 5269W        W24123  11.400  10.206   1.077  0.0298 -0.0641  0.2243
 5270W        W24124   8.950  13.629  15.308  0.0042  0.0726  0.1742
 5271W        W24125  16.278   2.025  14.610  0.0139  0.1615 -0.0438
 5272W        W24126   2.878   0.051   4.274  0.0407  0.1225 -0.1822
 5273W        W24127   5.496   1.846  16.815  0.0621 -0.2475 -0.0801
 5274W        W24128   8.545   9.706   3.796  0.0946 -0.1377  0.0323
 5275W        W24129  12.108  16.874   1.251  0.0097  0.0452  0.1617
 5276W        W24130   0.096   4.272  14.009  0.1123  0.1650 -0.0804
 5277W        W24131  10.394   6.910  13.741 -0.1221 -0.0259  0.1443
 5278W        W24132   9.053  10.198   2.228 -0.2346  0.1099  0.0172
 5279W        W24133  15.143  10.245   2.401  0.1449 -0.0917 -0.0788
 5280W        W24134   1.992   1.501   3.563  0.2019 -0.4083 -0.0723
 5281W        W24135   6.853  16.716   0.751  0.2687  0.2276 -0.0450
 5282W        W24136   0.088   3.087   3.468  0.0016  0.1867  0.0663
 5283W        W24137  12.515   3.686   4.221 -0.1434  0.0031  0.1234
 5284W        W24138   9.312   3.487  12.330 -0.0342 -0.1958 -0.2452
 5285W        W24139  10.241  10.562  11.677  0.0804  0.1029  0.0345
 5286W        W24140  10.198  16.525   0.792 -0.0156  0.0279  0.0516
 5287W        W24141  10.793   6.691  14.070 -0.1516 -0.1682 -0.1190
 5288W        W24142  16.132  12.376   4.612 -0.2617 -0.0152  0.3521
 5289W        W24143   0.523  15.583   3.817 -0.1546  0.2376  0.0257
 5290W        W24144  12.843   0.013  16.616 -0.0157 -0.4248  0.0281
 5291W        W24145  11.608   5.505  16.951  0.0515 -0.0311  0.0875
 5292W        W24146  14.002  17.217  16.658 -0.3964  0.0888  0.0539
 5293W        W24147  10.140  15.823   3.197  0.1993 -0.3520  0.0078
 5294W        W24148   8.542  10.278   5.227 -0.5254 -0.0070 -0.3651
 5295W        W24149  14.563   0.519   4.008 -0.0769  0.0832  0.0443
 5296W        W24150   3.457   6.298   4.156 -0.0251  0.2539  0.0258
 5297W        W24151   5.613   1.604   1.352  0.2232  0.2819 -0.0752
 5298W        W24152  12.551   0.241  12.095 -0.3331 -0.0324  0.1367
 5299W        W24153  13.469   5.222  12.743  0.0623  0.1127 -0.3445
 5300W        W24154   4.493   3.203   0.319  0.0866  0.2285  0.0165
 5301W        W24155  15.392   9.230   3.751 -0.1029 -0.0104  0.2880
 5302W        W24156  16.797   3.313  17.146 -0.1545  0.0703 -0.0135
 5303W        W24157   0.312   0.244   3.026  0.0393 -0.0311 -0.0165
 5304W        W24158   0.529   6.311  16.484 -0.1482 -0.2044  0.1044
 5305W        W24159   4.550   0.092  16.870  0.1162  0.0292 -0.0503
 5306W        W24160   8.460   5.896   4.246  0.0481 -0.1719  0.0880
 5307W        W24161   4.437   4.401  12.733 -0.1784 -0.0228  0.0817
 5308W        W24162  16.109   4.472  15.931  0.0357 -0.4076 -0.3624
 5309W        W24163  10.461   4.288   0.534  0.1750  0.0132 -0.0638
 5310W        W24164  12.630   7.620  14.778 -0.2382  0.0612 -0.1569
 5311W        W24165   8.317   5.122  16.576  0.2292  0.2588  0.0123
 5312W        W24166  17.499   5.739  15.337  0.1668 -0.0227  0.0813
 5313W        W24167  10.410  13.876   4.667  0.0639  0.0007  0.1402
 5314W        W24168  13.830  10.687  16.518 -0.3388  0.2379 -0.0271
 5315W        W24169  15.472  17.472   3.313  0.0768  0.0203  0.0478
 5316W        W24170  13.162   6.588  11.088 -0.3258 -0.0834  0.1456
 5317W        W24171   4.435   0.843  13.281  0.2324  0.0694 -0.0607
 5318W        W24172   9.653   9.147  16.045 -0.1844 -0.0760  0.0548
 5319W        W24173   0.672   2.592   4.971  0.0351 -0.0269 -0.0684
 5320W        W24174   3.545   0.220   3.824 -0.1285  0.2075 -0.2273
 5321W        W24175  17.188   2.780   2.431 -0.3291 -0.4327 -0.1334
 5322W        W24176  13.917  10.828   2.102  0.0166 -0.0212  0.1009
 5323W        W24177   2.948  11.071   0.300  0.1069  0.5396  0.3443
 5324W        W24178   6.117  11.940  16.234  0.0669 -0.1117 -0.0047
 5325W        W24179  15.159  17.444   0.794  0.0125 -0.0231  0.1227
 5326W        W24180  14.081  13.437  14.220  0.1549 -0.1282  0.0656
 5327W        W24181  15.523   7.363  13.303 -0.0742 -0.1060 -0.0106
 5328W        W24182   2.319  10.914   3.370 -0.2628 -0.1885  0.0300
 5329W        W24183   4.427  14.388  14.103  0.1514  0.1165  0.0857
 5330W        W24184  13.064  15.626  13.754  0.3546 -0.1105  0.3235
 5331W        W24185   2.085   5.332  13.364  0.1696  0.1037  0.1625
 5332W        W24186   4.803   8.917  13.960  0.2371  0.0128 -0.1951
 5333W        W24187   3.747  14.378  13.506  0.0133  0.1911  0.0933
 5334W        W24188  12.633  12.345  15.876 -0.2704  0.1166  0.2940
 5335W        W24189  10.291   4.922   3.689  0.0917 -0.1302  0.2761
 5336W        W24190  10.707  14.496   4.288  0.1672  0.4654  0.1393
 5337W        W24191   2.864   1.230   4.479  0.0284 -0.2334  0.1762
 5338W        W24192  16.048   0.819   4.500  0.0450  0.0471 -0.0911
 5339W        W24193  10.661   2.158   2.197 -0.1261 -0.1198 -0.0666
 5340W        W24194  14.574   2.131   1.467  0.1763 -0.0014  0.3814
 5341W        W24195  14.668  14.584  14.323  0.0233  0.0778 -0.0691
 5342W        W24196   8.144  17.556   1.993  0.2080 -0.0166 -0.0816
 5343W        W24197   2.385   2.324  15.417 -0.0626 -0.0051  0.1542
 5344W        W24198   0.815   6.995   1.775  0.0444 -0.2006 -0.0622
 5345W        W24199   8.469   0.318   2.744 -0.1224 -0.0600 -0.3761
 5346W        W24200   3.764  16.287   2.362  0.0497 -0.1215 -0.3866
 5347W        W24201   5.546  13.565   3.468  0.0645 -0.0749 -0.2055
 5348W        W24202   8.770   4.387  14.892 -0.0993 -0.0693  0.3848
 5349W        W24203   6.739  17.090   2.665 -0.1753  0.0573  0.0509
 5350W        W24204   8.157   6.216  12.775 -0.5706 -0.2742  0.0972
 5351W        W24205  17.554   8.982  13.029  0.1148  0.1528 -0.0333
 5352W        W24206   5.109   8.112  12.710 -0.2246 -0.0471 -0.1395
 5353W        W24207  12.154   0.280   5.698 -0.1457 -0.2260 -0.0774
 5354W        W24208   7.364   8.903   2.442  0.0134 -0.2194  0.2555
 5355W        W24209   9.820  14.637  13.162  0.3271  0.1444 -0.3436
 5356W        W24210   6.602  17.482   4.386 -0.1519 -0.2740  0.1369
 5357W        W24211   0.657  15.572  14.162  0.1142  0.2439  0.1692
 5358W        W24212  16.269   0.640  11.830  0.2333 -0.0780 -0.0766
 5359W        W24213   6.070   4.718   5.123  0.1168 -0.5472  0.2354
 5360W        W24214   8.664   2.700   0.867 -0.1459 -0.3039  0.1120
 5361W        W24215  12.080  13.509   0.264 -0.0350 -0.0276  0.1209
 5362W        W24216  11.250  16.370   1.593 -0.0127 -0.0897  0.0202
 5363W        W24217  15.114   2.705   1.080 -0.1796  0.0535 -0.1588
 5364W        W24218   6.311   0.952  16.828  0.2767 -0.3013 -0.0257
 5365W        W24219  16.599  16.216   3.008  0.0741 -0.1667 -0.4209
 5366W        W24220   7.814  13.144  12.455 -0.0125 -0.5021  0.2092
 5367W        W24221  11.962   7.716   2.062 -0.0151  0.1988  0.2834
 5368W        W24222   2.452   8.931  13.796  0.1662 -0.1781  0.0401
 5369W        W24223  14.342   8.116   0.666  0.3896  0.0110 -0.3764
 5370W        W24224  14.721   0.947   0.435 -0.1974 -0.1068  0.0357
 5371W        W24225   3.211  13.827  15.471  0.3931 -0.3763 -0.2019
 5372W        W24226   0.339   8.460  12.359 -0.1315 -0.1044 -0.2852
 5373W        W24227   6.922   4.014   0.767  0.0638  0.3343  0.1513
 5374W        W24228   8.292   9.191   3.568  0.2152 -0.3143  0.1651
 5375W        W24229   5.503   4.428  15.798 -0.2311  0.1970  0.0114
 5376W        W24230   5.877  15.400  16.710 -0.0782  0.3845  0.2169
 5377W        W24231   1.921   5.946  14.569 -0.1074 -0.1625 -0.0868
 5378W        W24232   5.019  12.781  12.668  0.0175 -0.1630 -0.1402
 5379W        W24233   8.910  12.082   3.347  0.2504  0.3944  0.0518
 5380W        W24234   1.788   6.574   3.107  0.0945  0.1632 -0.3338
 5381W        W24235   4.714  12.968   4.422  0.0067 -0.2223  0.0036
 5382W        W24236   1.278   7.271   3.124  0.3936 -0.1587  0.0635
 5383W        W24237   3.281   3.296  12.900 -0.0133 -0.3257 -0.3724
 5384W        W24238  10.338  12.003   2.757  0.0060 -0.1593  0.1825
 5385W        W24239  16.449  15.422   2.057 -0.1897 -0.2029  0.1220
 5386W        W24240   3.466   0.355   3.372 -0.3372 -0.3449  0.2643
 5387W        W24241   9.052  17.305  12.653 -0.1896 -0.2321  0.0388
 5388W        W24242  12.621   8.365   0.013  0.0583  0.0021  0.2855
 5389W        W24243  15.015   9.320   5.593 -0.0913 -0.0246  0.3515
 5390W        W24244  14.171  12.147  15.846 -0.0386 -0.1096  0.0788
 5391W        W24245   2.994   4.309   2.468 -0.0517  0.0211  0.0687
 5392W        W24246   6.771  12.328   0.408  0.1314  0.1564 -0.1750
 5393W        W24247   1.697   0.234  13.623  0.4462 -0.1471 -0.2129
 5394W        W24248   1.845   4.903   4.431 -0.0302  0.0976 -0.0269
 5395W        W24249   3.553  12.575  13.707 -0.0201 -0.0126 -0.1687
 5396W        W24250   7.281   0.734  15.829 -0.1264 -0.2828  0.0256
 5397W        W24251   4.244   2.459  12.174  0.1386  0.0076  0.2190
 5398W        W24252   6.933   3.687  13.765  0.1152 -0.1640 -0.1410
 5399W        W24253   2.545  12.887  12.460 -0.2662  0.0875 -0.0236
 5400W        W24254   2.124   9.728  16.737 -0.1801 -0.2801  0.1416
 5401W        W24255   6.934   0.512  14.544  0.3848 -0.1956  0.2562
 5402W        W24256  15.169  10.888   3.125  0.0033 -0.0749 -0.0240
 5403W        W24257   9.381   6.369   3.666  0.0085 -0.0684 -0.0066
 5404W        W24258   4.002   8.845   4.074  0.1657  0.0296 -0.3466
 5405W        W24259  16.661   1.731   0.305 -0.1963 -0.0011 -0.1455
 5406W        W24260   7.460  13.209  14.536 -0.0456 -0.0314  0.0144
 5407W        W24261  16.839  11.334   0.236 -0.0074 -0.3517  0.2281
 5408W        W24262  13.931   8.531  15.867  0.0154 -0.1362  0.1536
 5409W        W24263   4.308  16.754  15.491  0.0879  0.1153 -0.3695
 5410W        W24264   4.136  14.675  13.594 -0.1647  0.2073  0.1214
 5411W        W24265  14.961   8.366  15.615  0.0367  0.0438 -0.1345
 5412W        W24266  17.057   5.352  12.105 -0.0313 -0.0390  0.1914
 5413W        W24267   5.300   3.480  15.599 -0.5566  0.2760 -0.1302
 5414W        W24268  12.646   4.861  14.779 -0.1590 -0.0094 -0.1205
 5415W        W24269   9.177  11.135  15.203 -0.2572  0.2483  0.1617
 5416W        W24270   3.627  13.052  12.850 -0.1820 -0.3849  0.0621
 5417W        W24271   0.842   4.961   0.227  0.3064  0.0585 -0.1747
 5418W        W24272   4.451  15.757  12.951  0.3621 -0.3153  0.1340
 5419W        W24273  12.271  16.032   0.662  0.0279 -0.3232 -0.1752
 5420W        W24274   0.782   3.117  17.205 -0.1870  0.1233  0.1566
 5421W        W24275  13.762   5.727   2.114  0.2399  0.2363  0.5871
 5422W        W24276  17.234   2.735   5.167 -0.1719  0.2517 -0.0357
 5423W        W24277  11.728  11.257   2.540 -0.0591 -0.1260  0.0169
 5424W        W24278   4.003   0.731  12.830  0.3612 -0.0502 -0.2819
 5425W        W24279  11.719   1.934  14.796 -0.3163  0.1215  0.1138
 5426W        W24280   1.510   2.033   1.363 -0.0428  0.1170  0.1353
 5427W        W24281  16.775   8.526  16.694  0.0866  0.0306  0.1346
 5428W        W24282   6.333   4.660   3.067 -0.1712 -0.1313  0.2878
 5429W        W24283  15.173   4.672  15.018  0.0939 -0.0419 -0.0769
 5430W        W24284   1.122  13.582  14.620 -0.1568 -0.0073 -0.6227
 5431W        W24285  10.962   8.401  14.958  0.1139 -0.2941 -0.2511
 5432W        W24286   8.351  14.945   2.312 -0.2098  0.1547 -0.2562
 5433W        W24287   5.989  14.766   4.633 -0.1776 -0.1459  0.1356
 5434W        W24288   4.154   1.424  16.827  0.1188  0.1912  0.0221
 5435W        W24289   6.356   9.488   4.146  0.1026 -0.0463 -0.1894
 5436W        W24290   0.902  13.905   0.651  0.1930 -0.2183  0.0133
 5437W        W24291  10.910  12.839  14.711  0.3060 -0.3099 -0.0023
 5438W        W24292  16.052  10.233  16.716 -0.0535  0.0336  0.2203
 5439W        W24293   7.875  11.756  13.927  0.3029  0.0665  0.0704
 5440W        W24294   3.860   9.333   4.297 -0.2245 -0.3218  0.0517
 5441W        W24295  16.364  16.571  15.466 -0.2451  0.2351 -0.2047
 5442W        W24296   8.263  17.303   3.818 -0.2397  0.0292  0.1992
 5443W        W24297   2.110   6.722  16.967  0.0833 -0.3495 -0.2580
 5444W        W24298  13.209   2.022   2.940 -0.2188  0.1250 -0.2444
 5445W        W24299   6.356  16.762   1.108  0.1539  0.0889  0.1350
 5446W        W24300  11.682   0.377   1.322  0.4295 -0.1017 -0.1601
 5447W        W24301   6.078   8.534  12.884  0.1346 -0.2117 -0.4081
 5448W        W24302  12.716   1.913   3.000 -0.1566 -0.2975 -0.2648
 5449W        W24303  15.967   9.180  14.589 -0.1455 -0.0855 -0.1302
 5450W        W24304   3.689  12.744  13.284  0.1122  0.0463  0.1228
 5451W        W24305   5.731   9.388  14.440  0.1200 -0.1629  0.1832
 5452W        W24306   1.980   1.501  15.792 -0.2068 -0.0781 -0.1607
 5453W        W24307  12.270   6.167   0.878 -0.0470  0.0667 -0.4087
 5454W        W24308  16.910  12.532  15.132  0.2874  0.2085 -0.0171
 5455W        W24309   0.918   1.020   4.528 -0.1693  0.1806 -0.0552
 5456W        W24310   6.860  11.148   0.996 -0.0000 -0.0073  0.0706
 5457W        W24311   1.698   4.940   1.453  0.0128  0.3596  0.0099
 5458W        W24312  11.466   6.712  13.511 -0.1923 -0.0573 -0.3900
 5459W        W24313   3.206   4.767   1.538 -0.0019  0.1694 -0.2196
 5460W        W24314   3.160  17.112   3.206 -0.0912  0.0305  0.0747
 5461W        W24315  14.998   6.678   2.555 -0.1152  0.0690  0.0919
 5462W        W24316  12.977   7.215   4.900  0.0112 -0.2519 -0.0826
 5463W        W24317  13.521  16.908   1.832  0.0002  0.0267  0.3086
 5464W        W24318   2.575   4.069   1.501 -0.2109  0.0215  0.1582
 5465W        W24319  17.344   6.069  13.666 -0.0866  0.2845 -0.0561
 5466W        W24320  11.937   5.311   0.727 -0.0885 -0.0583  0.1140
 5467W        W24321   3.426   6.079  13.543  0.1012  0.1664 -0.2056
 5468W        W24322  11.584   0.606   1.744  0.0482 -0.5356  0.1604
 5469W        W24323   7.911   4.469  15.131 -0.3373  0.0497  0.0481
 5470W        W24324  10.979   4.770   4.275 -0.0932 -0.2366 -0.1086
 5471W        W24325  13.864   9.533  13.758 -0.1497 -0.4280  0.0467
 5472W        W24326  17.349   0.956   4.832 -0.1387 -0.1680 -0.1881
 5473W        W24327   1.373   5.629   4.633 -0.2888  0.1382  0.0299
 5474W        W24328  15.807   9.623   2.671 -0.0817  0.2514 -0.1037
 5475W        W24329   1.455   7.976  16.033  0.5798  0.2954 -0.0962
 5476W        W24330  11.513   1.380  14.724  0.0570 -0.0687 -0.1074
 5477W        W24331  11.586   7.630  13.655 -0.0715 -0.0497  0.2722
 5478W        W24332  11.676   1.726  14.329 -0.0057 -0.1079 -0.0942
 5479W        W24333  17.043  15.324   3.291 -0.0111  0.1416 -0.2231
 5480W        W24334  14.370  14.462  13.844  0.0770 -0.0925  0.0269
 5481W        W24335  13.656  13.499  14.932  0.1312  0.0526 -0.1027
 5482W        W24336  15.286   6.360   0.341  0.0922 -0.0916 -0.0393
 5483W        W24337   3.860  11.268   4.734  0.4347 -0.0977  0.0566
 5484W        W24338  15.989   1.359   2.661 -0.3555 -0.1031  0.0269
 5485W        W24339   4.172   6.162  12.864 -0.1875 -0.1361 -0.1839
 5486W        W24340   8.777  17.205   4.603  0.1647  0.0786  0.2600
 5487W        W24341   6.234   5.119   2.088  0.0626  0.2757 -0.2553
 5488W        W24342   4.897  10.025   5.019 -0.1420 -0.2541 -0.2486
 5489W        W24343   8.104  10.914   2.679  0.2420 -0.1059 -0.0058
 5490W        W24344   2.908  15.109  16.134 -0.2714  0.3519  0.0447
 5491W        W24345  17.422   4.590   2.237  0.0276  0.1172  0.0549
 5492W        W24346   4.145   6.960   5.057  0.0198 -0.2475  0.0193
 5493W        W24347  10.103  15.049   3.628  0.0812  0.1004 -0.0032
 5494W        W24348   7.685   4.204   0.686 -0.4213 -0.1375  0.0540
 5495W        W24349  16.356   7.907   3.875 -0.3209  0.1732  0.0401
 5496W        W24350   3.055   0.994  14.992 -0.1593 -0.3814  0.2445
 5497W        W24351  16.157   3.990  13.433  0.2593  0.0462  0.0003
 5498W        W24352   7.040  10.310  15.297  0.3082 -0.1894  0.2182
 5499W        W24353   7.686  15.928  13.625 -0.2189 -0.2304  0.0356
 5500W        W24354  17.345   2.172   0.829  0.0826 -0.1260 -0.0923
 5501W        W24355   0.419   2.295  15.264 -0.0309 -0.2959 -0.1454
 5502W        W24356  11.869  15.708   4.983  0.1634  0.1549 -0.3706
 5503W        W24357  10.916   9.592   4.898 -0.1758  0.1540 -0.1118
 5504W        W24358  14.901   5.754   3.023 -0.2483 -0.0228  0.0432
 5505W        W24359  16.051   4.107   1.607  0.1799  0.0723  0.0806
 5506W        W24360   0.780  11.435   2.338 -0.2298 -0.0143 -0.3040
 5507W        W24361   3.180   7.329   0.820  0.2477  0.2778  0.1200
 5508W        W24362   1.612  10.047   3.002  0.3613 -0.3976  0.0396
 5509W        W24363   2.972  11.436   1.637 -0.0328  0.1655  0.2947
 5510W        W24364  16.143  10.562  14.457 -0.3023 -0.1264  0.2317
 5511W        W24365   8.631  15.924  12.238 -0.2592  0.0419  0.1092
 5512W        W24366   0.315   8.313  15.913  0.0923  0.0616  0.0719
 5513W        W24367   5.867   1.261   4.609 -0.0596 -0.1283  0.2152
 5514W        W24368  17.278   9.961   6.029  0.1602  0.0023  0.1404
 5515W        W24369   3.258   5.325  11.546  0.1177 -0.2015 -0.2215
 5516W        W24370   7.126  10.238  16.881  0.0964 -0.1968  0.0129
 5517W        W24371   0.686  10.055   2.985  0.1592 -0.0130 -0.0470
 5518W        W24372  12.488   1.799  15.140  0.2940 -0.0476 -0.1686
 5519W        W24373  12.996  14.504   0.964  0.3114  0.2661  0.1891
 5520W        W24374   0.864  10.816  14.714 -0.0772 -0.1431  0.4474
 5521W        W24375  10.844  12.414   2.630  0.2118 -0.1324 -0.1022
 5522W        W24376   7.112  15.324  14.044  0.0195  0.0271  0.3492
 5523W        W24377   4.877   6.094   4.741 -0.0086 -0.3200  0.0535
 5524W        W24378  11.128  10.812   4.155 -0.0312  0.0865  0.3466
 5525W        W24379  12.017  15.450   2.833  0.2678  0.1746 -0.3890
 5526W        W24380  15.519  10.142   2.028  0.0098  0.0234  0.1108
 5527W        W24381   9.116   0.939   1.481 -0.0405 -0.0473 -0.2282
 5528W        W24382  14.640   7.333   2.392  0.0810  0.1558 -0.0943
 5529W        W24383   0.828   1.545   2.453  0.1922  0.1936 -0.1339
 5530W        W24384   8.771   5.165  14.832 -0.1646 -0.4132 -0.4935
 5531W        W24385   5.242   4.647  16.256  0.2388  0.0053 -0.0874
 5532W        W24386   2.445  14.742  14.547 -0.0659 -0.1053 -0.0340
 5533W        W24387  10.419   0.842   3.131  0.2329  0.2080  0.5003
 5534W        W24388  13.277   9.249   0.941 -0.1334 -0.1291  0.2154
 5535W        W24389   7.381   2.413  14.572  0.0774 -0.0524  0.1956
 5536W        W24390   7.812  14.381  12.995  0.2713  0.2970 -0.1027
 5537W        W24391   1.514   7.374  16.750 -0.0627  0.2595  0.0945
 5538W        W24392   1.169   7.773  14.266 -0.2090 -0.1035 -0.0459
 5539W        W24393  10.680  13.915  12.431  0.0249  0.2349 -0.2372
 5540W        W24394  12.867   7.227  12.296 -0.1968 -0.0167  0.2254
 5541W        W24395   8.157  15.650   4.522  0.1383 -0.0589  0.1714
 5542W        W24396  13.804   2.177   0.624  0.2504  0.1625 -0.1948
 5543W        W24397   7.321  13.839   0.940  0.0624  0.2033 -0.1321
 5544W        W24398   5.483  11.011   1.102  0.1897 -0.1149  0.0369
 5545W        W24399   5.074   9.355   2.675  0.1898  0.1018 -0.0442
 5546W        W24400   0.347   6.494  14.938  0.0341  0.0593 -0.0213
 5547W        W24401  17.201  16.205   1.331  0.0406  0.0541  0.3244
 5548W        W24402   7.313   4.253   3.848 -0.3796 -0.2373 -0.1203
 5549W        W24403   7.395   1.829  17.070 -0.3596 -0.0497 -0.1432
 5550W        W24404   0.270   5.443   5.116 -0.1025 -0.0087  0.1988
 5551W        W24405   5.843   2.376   3.882 -0.0623 -0.1385  0.1660
 5552W        W24406  15.849   6.614  17.006  0.0926 -0.2660 -0.0553
 5553W        W24407  17.037   8.909   1.856 -0.3166  0.0556 -0.1129
 5554W        W24408  11.393  10.761   0.364  0.3879  0.0499 -0.1675
 5555W        W24409   0.396   1.118  13.729  0.1944 -0.2219 -0.1230
 5556W        W24410  14.520  17.594  13.504 -0.0007  0.0339 -0.1439
 5557W        W24411   3.491   3.041   2.752 -0.0713 -0.0678  0.0158
 5558W        W24412  14.092   3.687   2.159  0.1146  0.1352  0.0142
 5559W        W24413   7.484  16.633   1.971  0.0054  0.0968  0.3065
 5560W        W24414  11.422  14.522  12.667 -0.1620  0.2031 -0.0193
 5561W        W24415   2.187   7.940   1.908  0.2042 -0.0352  0.2181
 5562W        W24416   4.859   6.911   2.865  0.2447  0.1012 -0.1073
 5563W        W24417  15.534   9.912  13.394 -0.2390  0.0756 -0.0082
 5564W        W24418  17.355   1.655   3.185  0.0284  0.2471  0.3243
 5565W        W24419   6.017   9.543   2.632  0.2835 -0.1704  0.2398
 5566W        W24420   7.845  16.314  15.040  0.1048 -0.1495  0.2896
 5567W        W24421   4.817  14.327  16.508 -0.1753  0.2111  0.3139
 5568W        W24422   7.714   2.155  15.689  0.3363  0.1461  0.2807
 5569W        W24423   7.111   5.293  17.011  0.1264  0.2370  0.0109
 5570W        W24424  11.466  17.391   1.745 -0.1750 -0.0404  0.0414
 5571W        W24425  14.721   8.476   3.502 -0.1689 -0.0379  0.0787
 5572W        W24426  13.058  13.811   1.702 -0.4414 -0.0124 -0.0461
 5573W        W24427  12.437  14.015   0.195 -0.1347 -0.1492 -0.0204
 5574W        W24428   2.722   2.141   1.051  0.0792  0.1820  0.1235
 5575W        W24429   9.850   3.950  16.405 -0.0856  0.3179 -0.0117
 5576W        W24430   8.893  10.186  17.186 -0.0758  0.2967  0.4094
 5577W        W24431   9.623  12.371   5.090  0.2565 -0.0833  0.1708
 5578W        W24432   6.490   6.486  13.713 -0.2689  0.0380  0.0542
 5579W        W24433   9.105   4.658  16.672  0.2517  0.0651  0.3859
 5580W        W24434   7.453   2.613   0.302  0.0668  0.0047 -0.0253
 5581W        W24435  14.751  10.421  15.679 -0.0391  0.4066  0.0334
 5582W        W24436  10.249  11.367   4.800 -0.1701  0.2061 -0.1069
 5583W        W24437  12.007   5.482   3.816  0.0212 -0.2293 -0.0746
 5584W        W24438  10.888   6.841   2.826 -0.1123  0.0087  0.3250
 5585W        W24439   1.441  12.204   5.115  0.2374  0.2526  0.1955
 5586W        W24440  10.216   6.393  15.908  0.1296  0.4182  0.1603
 5587W        W24441  11.069   9.366  15.005 -0.0602 -0.1311  0.1273
 5588W        W24442  11.549   9.524  14.125 -0.1904  0.0943 -0.0878
 5589W        W24443   3.773   9.426   6.285  0.0858 -0.0016 -0.1722
 5590W        W24444  13.684  13.471  14.456 -0.1048  0.0525 -0.3369
 5591W        W24445   8.564   6.061  14.642  0.1269 -0.0043  0.1789
 5592W        W24446   7.333  12.223   4.784  0.1585 -0.1353  0.0847
 5593W        W24447   9.039   9.741  16.375  0.1331  0.1438 -0.0238
 5594W        W24448  15.095   9.235  15.137 -0.2724  0.2378  0.3625
 5595W        W24449  10.344  15.409   3.337  0.1180 -0.3359 -0.0685
 5596W        W24450  10.184  15.985   0.958 -0.0113  0.0852  0.0074
 5597W        W24451  13.193  16.601   3.739 -0.0669  0.0363 -0.1772
 5598W        W24452  14.688   0.620   3.161 -0.1275 -0.0441 -0.1419
 5599W        W24453   6.368   5.752  17.186  0.1511  0.1090  0.2368
 5600W        W24454  15.791  13.190   4.984 -0.1439 -0.2739  0.1752
 5601W        W24455   9.708   7.734   3.656 -0.0138  0.1585  0.2491
 5602W        W24456   4.876   4.315  16.435 -0.1098  0.2124 -0.3231
 5603W        W24457  15.722  15.796   5.260  0.0490 -0.0118 -0.0933
 5604W        W24458  14.691   8.904  13.236  0.0896 -0.1849 -0.0956
 5605W        W24459   2.005  13.752   5.432 -0.0813 -0.0236 -0.0005
 5606W        W24460  17.431  17.113   2.648 -0.0473 -0.0513 -0.0359
 5607W        W24461  14.379   6.475   2.799 -0.0816 -0.0742 -0.3822
 5608W        W24462   1.436   0.845  14.802 -0.2652 -0.1676 -0.2691
 5609W        W24463  16.039  15.666  12.225  0.0765 -0.0216 -0.3334
 5610W        W24464  10.214  12.091  12.806  0.0521  0.4152  0.0988
 5611W        W24465  16.283  15.542   0.220 -0.1098  0.2522  0.0652
 5612W        W24466  12.048   3.747  14.268 -0.1006 -0.0817 -0.1871
 5613W        W24467   2.286   9.832  12.818 -0.1344 -0.1865  0.1389
 5614W        W24468   4.159  14.275  12.695  0.1774  0.1173 -0.1882
 5615W        W24469   0.995   0.212  16.333 -0.0330 -0.0786 -0.1439
 5616W        W24470  13.139   8.777  15.165  0.2466 -0.1842 -0.0755
 5617W        W24471   0.159  14.945   0.067 -0.0337  0.1051  0.2982
 5618W        W24472  14.639   5.374  13.947 -0.1666  0.0050 -0.1138
 5619W        W24473   5.506  14.729   2.253  0.0834  0.1393  0.1486
 5620W        W24474   4.542  12.284  15.612 -0.0096 -0.1625 -0.1338
 5621W        W24475   0.930   6.534   3.470 -0.3897  0.1745 -0.0010
 5622W        W24476  10.258  16.978  13.234  0.0123 -0.1892  0.0131
 5623W        W24477   7.986  13.038  14.363 -0.0305 -0.0249  0.1424
 5624W        W24478  16.963  16.769  16.325  0.1620  0.2648 -0.2677
 5625W        W24479   0.690   5.984  12.890  0.0311  0.0512 -0.0028
 5626W        W24480  16.099   5.427   2.228  0.1477 -0.3173  0.0398
 5627W        W24481  12.663   0.034   1.065  0.0780  0.1402  0.0412
 5628W        W24482   6.642   5.343  14.831 -0.2349 -0.2657  0.0609
 5629W        W24483  10.134  13.860  15.973 -0.0054 -0.3482 -0.2272
 5630W        W24484  12.140  14.646  13.258 -0.1236 -0.1610 -0.1316
 5631W        W24485   5.075   3.225  14.064  0.1403 -0.0016 -0.0569
 5632W        W24486   7.013  11.610  12.463 -0.0672 -0.0514 -0.0198
 5633W        W24487  17.600   1.598  14.794 -0.2973  0.1207  0.2895
 5634W        W24488  10.770   6.080  13.348  0.1017 -0.4155 -0.1397
 5635W        W24489   3.725   1.616   3.465  0.1061 -0.0214  0.2241
 5636W        W24490  10.842   3.584   3.517  0.1456  0.1743  0.1730
 5637W        W24491   1.519   5.021  14.699 -0.2673 -0.0471 -0.1113
 5638W        W24492   0.359   4.133   4.470  0.0826 -0.0188  0.3726
 5639W        W24493   6.933   6.949  14.310 -0.2151  0.0232  0.1096
 5640W        W24494   8.712   8.141   5.167 -0.2698 -0.2808 -0.1842
 5641W        W24495   3.492   6.112   2.041  0.0298  0.2174 -0.2062
 5642W        W24496  17.480   4.669  13.764  0.3013 -0.0976 -0.1038
 5643W        W24497   7.694  15.811   2.397  0.2797 -0.0134 -0.1796
 5644W        W24498   5.016   0.736   1.721  0.1980  0.0966 -0.1456
 5645W        W24499   1.624   2.187  14.627  0.0195 -0.1857 -0.0016
 5646W        W24500  12.165  11.684  17.103  0.0874 -0.1747 -0.3630
 5647W        W24501  14.339   7.173  17.011  0.1726 -0.1446  0.0799
 5648W        W24502  10.705   8.618   0.052 -0.1982 -0.1040  0.0741
 5649W        W24503   6.518   6.955  14.553 -0.0713  0.1376 -0.1936
 5650W        W24504   3.179  10.352  15.734  0.0888  0.3080 -0.0177
 5651W        W24505   4.804  14.148  14.378  0.0049  0.5847 -0.2540
 5652W        W24506  11.333  11.612  16.681  0.0295  0.1913 -0.2798
 5653W        W24507   3.087   6.693  14.204  0.2452 -0.0175 -0.1537
 5654W        W24508   3.997   0.087   2.147 -0.1657 -0.3523  0.1925
 5655W        W24509   3.925   8.190   5.380 -0.1081  0.0937  0.4796
 5656W        W24510   3.037   2.867  12.758  0.0969  0.4366  0.0827
 5657W        W24511  16.715   3.312  14.782  0.0984  0.1086 -0.0773
 5658W        W24512   7.405  14.655   0.525  0.1131 -0.0819  0.1606
 5659W        W24513  11.373   6.850  16.759  0.2815 -0.0915  0.0953
 5660W        W24514  14.869   4.060  17.133  0.0128 -0.2216  0.0818
 5661W        W24515  12.451  11.276   2.812  0.2308  0.0794  0.0781
 5662W        W24516   9.232   4.296   3.496 -0.0248 -0.2520 -0.0810
 5663W        W24517   8.783   6.454   3.383 -0.1499  0.4406 -0.0152
 5664W        W24518   0.280   3.785   3.243  0.0305 -0.0322  0.2563
 5665W        W24519   8.816  14.345  16.821  0.0280  0.2022 -0.0517
 5666W        W24520  16.167   6.365   3.179  0.0509 -0.5276 -0.0897
 5667W        W24521   8.091   5.590   5.151  0.3308 -0.3188  0.0881
 5668W        W24522  17.461   6.732  14.174 -0.1098  0.1559 -0.2593
 5669W        W24523  13.004   0.216   2.695  0.0863  0.0736 -0.0447
 5670W        W24524  15.626   6.242  12.083  0.0190 -0.0650  0.0676
 5671W        W24525  13.929  15.389   4.778  0.0068  0.2126  0.1034
 5672W        W24526   3.976  13.928  13.034  0.0497  0.0230  0.0999
 5673W        W24527   1.373   4.056  14.901 -0.0209  0.0407  0.1468
 5674W        W24528   1.651   7.990   4.186  0.0235  0.3428 -0.2201
 5675W        W24529  11.659   5.808  13.235  0.0146 -0.0291 -0.3006
 5676W        W24530   2.461   7.872   4.098 -0.1287 -0.0199  0.3692
 5677W        W24531   2.033  13.201  15.125  0.1809  0.0614 -0.2298
 5678W        W24532   4.741  14.596  11.220 -0.0639  0.0159  0.2627
 5679W        W24533   1.749   0.662   1.709  0.1981 -0.2103  0.1259
 5680W        W24534   4.615   6.676  16.502  0.2829  0.2650  0.0591
 5681W        W24535   8.118  11.201   3.677  0.3738  0.0176 -0.0879
 5682W        W24536   6.875   7.306  14.007 -0.1323 -0.2971  0.2569
 5683W        W24537   6.827  14.400  15.410  0.0455  0.0657 -0.3318
 5684W        W24538  11.217  12.360   2.961  0.2889  0.2169 -0.0157
 5685W        W24539  12.471   1.566   3.278 -0.2040 -0.1307  0.3439
 5686W        W24540   7.761  14.126  16.888  0.0413  0.0545  0.1699
 5687W        W24541  15.344   8.360  14.828 -0.0002  0.1420  0.0408
 5688W        W24542   5.731   4.647  12.335  0.1336  0.0339  0.0121
 5689W        W24543   1.792   0.566  17.055  0.2786 -0.0190 -0.1683
 5690W        W24544   0.013  15.161  14.957  0.1049 -0.0318 -0.1881
 5691W        W24545   2.620   4.051  14.229  0.1212 -0.1366  0.0822
 5692W        W24546   3.654   0.644   2.238 -0.2039 -0.0413  0.1942
 5693W        W24547  12.459  14.272  13.144 -0.0402 -0.2270 -0.0145
 5694W        W24548   7.310  13.863   3.542 -0.0880  0.0340 -0.1870
 5695W        W24549  14.443   1.096  17.196  0.0137  0.0453 -0.0826
 5696W        W24550   0.661   3.814  13.229 -0.1335  0.0371  0.2172
 5697W        W24551  11.075   1.050   1.160  0.1029  0.0544  0.2136
 5698W        W24552   1.365   9.364   5.617  0.1893 -0.0411  0.1355
 5699W        W24553   3.473   0.907  13.118 -0.3150  0.0245 -0.1400
 5700W        W24554   9.648  11.451  13.920  0.3807  0.1490 -0.0418
 5701W        W24555  11.341  11.991   5.006  0.1955 -0.0721  0.0909
 5702W        W24556  14.412  12.647  13.890 -0.2351  0.1582 -0.3859
 5703W        W24557  10.760  12.935   3.631 -0.2986 -0.1374 -0.1699
 5704W        W24558   0.247   3.818  15.753  0.2474  0.2148 -0.1505
 5705W        W24559  13.926   1.689  12.262 -0.1215  0.0790 -0.0905
 5706W        W24560   6.310  13.815  15.070 -0.2571 -0.0722  0.0016
 5707W        W24561   4.314   1.534   6.113  0.0897 -0.0282  0.2740
 5708W        W24562  13.082  16.453  12.515  0.2786 -0.0670 -0.0490
 5709W        W24563   0.074  15.102   2.619  0.0435  0.0207 -0.0506
 5710W        W24564  16.782   9.078  16.903  0.2458 -0.1853  0.0785
 5711W        W24565  10.911   6.769   4.336 -0.1779 -0.0734  0.1141
 5712W        W24566  14.789   0.122  16.484  0.3162  0.0266 -0.3521
 5713W        W24567   5.274   5.346   2.401 -0.2470  0.0618  0.2139
 5714W        W24568   7.628  13.290  13.950  0.0787 -0.0347 -0.2319
 5715W        W24569  17.506  12.103   0.053 -0.0544 -0.0797 -0.0176
 5716W        W24570   3.380   6.536   0.833  0.5308 -0.1536 -0.1674
 5717W        W24571   4.231  11.859  17.235 -0.0154  0.0329  0.1326
 5718W        W24572  10.548  16.536   0.489 -0.2643  0.2703  0.1775
 5719W        W24573   4.501   0.361  14.830 -0.0404 -0.1545  0.0231
 5720W        W24574   0.570  11.866   0.667  0.1589  0.0588  0.0714
 5721W        W24575  10.882  13.133  12.851  0.0928  0.1222  0.0312
 5722W        W24576   8.676  12.898   6.077  0.2563  0.1665  0.2346
 5723W        W24577  11.759   7.903  16.614  0.3368 -0.0118 -0.3333
 5724W        W24578   0.497  14.213  15.029  0.0076  0.0825  0.0923
 5725W        W24579  11.741  17.342  16.210 -0.0919 -0.0060  0.0022
 5726W        W24580  16.661   7.627   1.320  0.0027 -0.3588 -0.0429
 5727W        W24581  11.556  17.135   3.536  0.0342 -0.1613  0.1830
 5728W        W24582   6.578   8.014  12.707  0.0726 -0.0001 -0.1342
 5729W        W24583   7.363  11.094  14.319  0.0060 -0.2119  0.1985
 5730W        W24584   3.990   6.665  16.512  0.0478  0.2775 -0.1828
 5731W        W24585   8.230   3.079   0.177  0.2429 -0.2357  0.2566
 5732W        W24586   1.355  13.135   0.738 -0.1953 -0.0010 -0.1260
 5733W        W24587   2.078  15.142   3.279 -0.3466 -0.0169 -0.2398
 5734W        W24588   5.974  13.259   4.301 -0.2705  0.1401 -0.0716
 5735W        W24589   7.951   7.614   2.907 -0.2412 -0.4426 -0.1425
 5736W        W24590  14.630   0.523   0.268  0.2288 -0.1601  0.1527
 5737W        W24591   0.879  11.318  14.982 -0.0037  0.0305  0.2188
 5738W        W24592   3.446   9.015  13.189 -0.0111  0.2024  0.1364
 5739W        W24593   6.014   7.649  12.119  0.2122  0.3457  0.5435
 5740W        W24594  15.265  14.867  13.720 -0.2658  0.1598  0.1492
 5741W        W24595  13.762   8.999   0.904  0.0898 -0.1151  0.0921
 5742W        W24596  14.526   2.899  16.487 -0.1262 -0.0846  0.2782
 5743W        W24597  12.024   9.507   1.398  0.5454  0.0655  0.0308
 5744W        W24598   6.435   4.860  15.544 -0.0445 -0.1725 -0.1411
 5745W        W24599  15.675  10.591  13.103  0.1219  0.1351 -0.1936
 5746W        W24600  13.628  14.764   2.175  0.1273 -0.2029  0.0698
 5747W        W24601   3.917  15.794  14.690  0.0837 -0.0242 -0.2616
 5748W        W24602   4.385   7.747  15.281  0.1077  0.0977  0.0536
 5749W        W24603  15.358   2.236  13.351  0.3958 -0.0574 -0.3036
 5750W        W24604   4.591   8.197   2.747  0.0563 -0.3113 -0.4283
 5751W        W24605   0.093  14.992  15.622 -0.2887 -0.2793  0.0268
 5752W        W24606   8.192   5.969   4.732  0.0691  0.1267 -0.1392
 5753W        W24607  17.072  16.186  15.178  0.0585  0.1632  0.1830
 5754W        W24608  10.023   5.863   3.657 -0.0103  0.2460 -0.0683
 5755W        W24609   5.262   5.679   1.976 -0.1842  0.0004  0.3062
 5756W        W24610   3.993   8.549   1.706 -0.1653  0.1367 -0.1851
 5757W        W24611   0.979   1.950   4.303  0.1177  0.1940  0.0850
 5758W        W24612   3.512   5.390  14.655 -0.4092  0.1236  0.0654
 5759W        W24613   2.247  10.343  15.430 -0.0183  0.0095 -0.0629
 5760W        W24614   5.003   4.489   4.288  0.2130  0.2785 -0.0778
 5761W        W24615  10.167   2.854   4.082  0.2392 -0.0885 -0.4419
 5762W        W24616   5.971   3.597   0.433  0.1154  0.1500  0.1752
 5763W        W24617   6.315   5.320  16.435 -0.0407 -0.3220  0.0494
 5764W        W24618  16.367   3.662  17.105 -0.0763 -0.0547 -0.1821
 5765W        W24619   7.263  12.655   0.830  0.5819 -0.2952  0.2220
 5766W        W24620  11.524   6.802   3.907 -0.1482 -0.1479  0.0038
 5767W        W24621  14.486   3.844   1.526 -0.1016 -0.1742  0.0183
 5768W        W24622   8.374   3.584   0.212 -0.0353  0.0719  0.1990
 5769W        W24623  12.507  10.660   6.069  0.4777  0.2816  0.0844
 5770W        W24624  16.758  16.629  13.367 -0.2969 -0.0694 -0.1074
 5771W        W24625  11.662  17.433  14.234 -0.3247 -0.2721  0.0715
 5772W        W24626  14.202  17.227   2.740  0.1629  0.1114 -0.1158
 5773W        W24627  12.660   4.913   5.218  0.0612  0.2331 -0.0468
 5774W        W24628   1.849   3.394  15.286 -0.0956 -0.1031  0.0338
 5775W        W24629   6.751   6.961   4.052  0.0880  0.0455 -0.0702
 5776W        W24630   8.836   0.063   1.509 -0.0749 -0.1166 -0.0591
 5777W        W24631  10.181  15.777  13.789  0.0300 -0.0836  0.0343
 5778W        W24632  17.233   3.600   0.331  0.0395  0.2093 -0.0581
 5779W        W24633   2.389   4.394   1.807  0.1633 -0.3100  0.1692
 5780W        W24634  12.667  10.954   2.337 -0.0710 -0.1587  0.1424
 5781W        W24635   9.416  10.966  17.242  0.4906  0.2358 -0.1609
 5782W        W24636  14.850   0.484   1.841  0.2562  0.1056 -0.5681
 5783W        W24637  13.760  14.177   1.213 -0.3284 -0.4105  0.1040
 5784W        W24638  14.450   7.280   1.320 -0.2653 -0.0511 -0.1201
 5785W        W24639  16.580   8.355   3.811  0.2135  0.2504  0.1293
 5786W        W24640   0.879  17.014  15.765  0.0913 -0.2133  0.0015
 5787W        W24641  10.850   4.376  16.250 -0.0745  0.1255  0.3660
 5788W        W24642   3.970   8.909  13.433  0.1655  0.0117  0.0133
 5789W        W24643   5.318   4.038  15.515 -0.2404 -0.1168  0.1873
 5790W        W24644   3.334  10.544  11.548 -0.0633 -0.1106 -0.0692
 5791W        W24645   0.828  17.337  13.777  0.2492  0.1412  0.2553
 5792W        W24646  12.677   8.609  14.952 -0.1416  0.1534 -0.0710
 5793W        W24647   2.680   6.756   2.949  0.1816  0.2246  0.1697
 5794W        W24648  16.827  12.711   2.761  0.1076  0.0206 -0.0041
 5795W        W24649  13.073   5.573   4.946  0.1041 -0.0648  0.2883
 5796W        W24650   2.767  10.751   2.421 -0.1308  0.2602 -0.1153
 5797W        W24651   6.270  14.559   2.573 -0.1324 -0.0692 -0.1907
 5798W        W24652  14.912   4.674   4.351 -0.0176 -0.1614  0.1230
 5799W        W24653   7.944  17.197  15.478  0.1438 -0.1377 -0.0754
 5800W        W24654  15.079   8.831   2.814 -0.1902  0.0302 -0.0202
 5801W        W24655   2.497  13.908  15.857  0.5439  0.4181 -0.0002
 5802W        W24656   8.148   6.360  14.841 -0.1744  0.0130  0.3041
 5803W        W24657  17.335  14.984  16.083 -0.1946 -0.1187  0.1742
 5804W        W24658   2.268  17.186   4.915 -0.3405  0.0248  0.2979
 5805W        W24659  14.325  10.597   3.315  0.4030 -0.0298  0.0841
 5806W        W24660  17.235   5.565  16.964  0.0696  0.3871  0.0049
 5807W        W24661   4.631  17.097   2.085 -0.1068  0.0476  0.1775
 5808W        W24662   3.935   0.316  12.559  0.2744 -0.3080 -0.2648
 5809W        W24663  17.525   0.638  12.856  0.1644  0.1455 -0.0855
 5810W        W24664   8.536  15.915   4.207 -0.0702 -0.0050  0.3067
 5811W        W24665   3.667  13.639   1.562 -0.2056  0.1774  0.0253
 5812W        W24666  12.318  10.794   3.186 -0.4219  0.2238 -0.2889
 5813W        W24667  12.482  15.842  12.176 -0.3842  0.2132 -0.0678
 5814W        W24668   1.615   8.174  16.592 -0.1235  0.0858 -0.1748
 5815W        W24669   4.902   6.620  14.095  0.2465 -0.2949  0.3230
 5816W        W24670   6.521  13.583   1.577 -0.1350  0.0613 -0.1147
 5817W        W24671  15.048   4.438  12.066 -0.1197 -0.1277 -0.2155
 5818W        W24672   3.667   4.869  15.417 -0.1102 -0.3583  0.1562
 5819W        W24673   8.010   3.324   1.963 -0.0039  0.3026 -0.0052
 5820W        W24674   1.796  12.337   1.961 -0.1006 -0.0817  0.1316
 5821W        W24675  11.423   7.900  14.004  0.1546 -0.2328  0.1319
 5822W        W24676   4.906   7.838  17.016 -0.0595 -0.0691  0.2746
 5823W        W24677   5.946  12.122  15.703 -0.1236 -0.0800  0.1760
 5824W        W24678   0.485   8.665   0.409  0.0707  0.3047  0.1437
 5825W        W24679   2.414   1.166  14.265 -0.0701  0.0157  0.1973
 5826W        W24680   6.621  13.594  12.635  0.0261 -0.2757  0.0264
 5827W        W24681  17.546  10.328   1.771 -0.2073 -0.1459  0.0345
 5828W        W24682  15.602   0.604   0.734  0.2759 -0.0042  0.1349
 5829W        W24683  11.619   1.507  15.187 -0.2343 -0.1013 -0.0843
 5830W        W24684  16.530  16.859   3.798  0.0677  0.1575  0.0084
 5831W        W24685   3.427  13.350  16.207  0.0756 -0.2644  0.1392
 5832W        W24686  13.189  10.272   2.008  0.0537  0.0902 -0.0699
 5833W        W24687  11.831  13.982  16.164 -0.2929  0.0870 -0.1101
 5834W        W24688  14.321  15.309   0.621 -0.1475 -0.1541 -0.0215
 5835W        W24689  11.348   7.679   0.697 -0.0054 -0.1700 -0.0569
 5836W        W24690  10.313   7.633  14.791 -0.0568  0.1553  0.0099
 5837W        W24691  15.805  10.282  13.554 -0.2100 -0.1765 -0.3124
 5838W        W24692  13.532  13.947   1.633 -0.3932 -0.2302  0.0446
 5839W        W24693   6.290   8.697  15.615 -0.1144 -0.2309  0.1712
 5840W        W24694   6.968   8.161  12.999 -0.0850  0.4017 -0.1437
 5841W        W24695  14.940  16.831  13.217  0.1809 -0.1756  0.1622
 5842W        W24696  16.268   9.315  15.051 -0.0445 -0.2694  0.0085
 5843W        W24697   6.339   0.253  12.817 -0.1421 -0.0924 -0.1957
 5844W        W24698   1.868  16.994   3.303 -0.2345 -0.1428 -0.1264
 5845W        W24699   5.338  12.348  16.370  0.1794  0.1764 -0.0397
 5846W        W24700  15.138   6.301  13.970  0.0200 -0.1175  0.1915
 5847W        W24701   0.840   1.674  15.171 -0.2119  0.4407 -0.2190
 5848W        W24702  14.138   7.346  13.443  0.0332  0.1017 -0.2102
 5849W        W24703   6.857   7.064   1.761  0.1064 -0.1546 -0.1335
 5850W        W24704   3.975   0.757  15.441 -0.1057 -0.0984  0.3172
 5851W        W24705   0.531   5.344   0.287 -0.1312  0.2159  0.1816
 5852W        W24706  11.854   1.411   2.147  0.0045  0.3606  0.1289
 5853W        W24707  17.237  16.611   4.682  0.0495  0.1537  0.1738
 5854W        W24708   8.871  13.808  12.531 -0.2664  0.2933 -0.0388
 5855W        W24709  16.636  12.522  13.394 -0.1354 -0.0351 -0.3881
 5856W        W24710   4.214  11.266  16.393  0.1274  0.2343 -0.2663
 5857W        W24711   1.576  13.765  13.767 -0.0238 -0.0847  0.0954
 5858W        W24712   2.281   9.306   0.648  0.0806 -0.3089  0.0332
 5859W        W24713   4.841  17.328  17.163  0.0598 -0.1233  0.1008
 5860W        W24714   1.014   9.718  14.477  0.3073 -0.1868  0.1563
 5861W        W24715   3.643   5.927  14.044 -0.1239 -0.1440  0.0809
 5862W        W24716   1.698  11.051  15.380 -0.3415 -0.1496  0.0558
 5863W        W24717   9.475   9.887  12.639 -0.0402  0.1489  0.0497
 5864W        W24718  16.957   7.287  12.747 -0.0284  0.2383 -0.2614
 5865W        W24719   4.766  14.607  12.502 -0.0868  0.0634  0.1664
 5866W        W24720  10.460  16.789   5.028 -0.1258 -0.2602 -0.0913
 5867W        W24721   7.010  14.161   3.202  0.0832 -0.0913  0.2401
 5868W        W24722  14.055   9.633   3.402  0.0710  0.0089  0.0960
 5869W        W24723   7.424  10.051  12.181  0.0762  0.0770  0.1329
 5870W        W24724  10.086   1.271   3.344  0.4099  0.0227 -0.2564
 5871W        W24725   3.766  12.731  15.049 -0.3554  0.0172  0.1614
 5872W        W24726   9.356   4.037  16.309  0.1293  0.0630  0.2969
 5873W        W24727   0.463   9.192   4.628 -0.1387 -0.1157  0.0718
 5874W        W24728   7.276  11.124   1.275 -0.2091  0.2060  0.0370
 5875W        W24729   3.402   6.695   1.833  0.0846  0.0306 -0.0992
 5876W        W24730  10.691   6.992   0.504  0.0492  0.1312  0.1771
 5877W        W24731   2.304   4.525  11.027 -0.1588 -0.3058 -0.0749
 5878W        W24732   6.059   6.622   1.223 -0.0906 -0.3209  0.3171
 5879W        W24733  11.390  14.537   5.023  0.1029  0.1257 -0.3020
 5880W        W24734  16.398  11.047  12.187 -0.1096  0.1714  0.1596
 5881W        W24735   0.028   2.908  13.339 -0.2390 -0.2218 -0.2206
 5882W        W24736   9.566   1.124  16.570  0.0956  0.0245  0.1784
 5883W        W24737   8.725  11.033  13.176  0.0247 -0.1763  0.1366
 5884W        W24738  16.843   8.187   5.864 -0.1397  0.0241 -0.2442
 5885W        W24739  14.838   5.766   1.038  0.0502  0.2162 -0.0295
 5886W        W24740   0.900  13.665   2.982 -0.0361 -0.0697 -0.0035
 5887W        W24741   2.165   7.293   3.402  0.3648  0.2102 -0.1981
 5888W        W24742   3.308  16.448  15.640 -0.1233  0.1952 -0.1887
 5889W        W24743  10.285   8.477   2.604 -0.0316  0.3852  0.1094
 5890W        W24744   2.496  16.947  13.163 -0.1001 -0.0324  0.0448
 5891W        W24745   7.858   5.855  16.722  0.2885 -0.1544  0.1216
 5892W        W24746  12.394   9.495  13.031 -0.0126 -0.0418 -0.0231
 5893W        W24747   8.759   5.668  15.822 -0.1235  0.0857 -0.0320
 5894W        W24748  14.886   9.771   6.531  0.1006 -0.0074 -0.4152
 5895W        W24749  13.467  17.339  17.099  0.0300  0.0145  0.3571
 5896W        W24750  10.388   8.391  16.358  0.3460 -0.0732  0.3039
 5897W        W24751  11.823   3.945   3.528 -0.2511 -0.0154  0.0067
 5898W        W24752  14.057   5.008   4.375  0.0855  0.0474 -0.2920
 5899W        W24753   9.336   0.307   2.850 -0.0935  0.1352 -0.1664
 5900W        W24754  16.274  11.531   5.169 -0.1020 -0.1636  0.5009
 5901W        W24755  14.740  15.930   1.300 -0.0967 -0.1843  0.2754
 5902W        W24756   5.316   9.761  15.604 -0.4405 -0.4614 -0.1189
 5903W        W24757   5.224  15.219   4.734  0.0494 -0.1517 -0.0219
 5904W        W24758   1.776  12.781  12.393 -0.4569  0.0648  0.0012
 5905W        W24759  15.778   4.548   1.557  0.0348  0.1628  0.0731
 5906W        W24760   1.463   8.439  16.162 -0.2527 -0.0580  0.1187
 5907W        W24761   3.708   5.614  12.228 -0.1656 -0.1770  0.1945
 5908W        W24762   2.461   8.973   4.740  0.1239  0.0242  0.0448
 5909W        W24763  17.423  11.152  12.669 -0.1042  0.6186  0.0724
 5910W        W24764  12.135  12.467  16.044  0.1639 -0.1431  0.0838
 5911W        W24765  13.571   4.041  13.580 -0.3977 -0.2481 -0.0947
 5912W        W24766  12.708  11.427   2.135 -0.2199  0.0637  0.3549
 5913W        W24767   9.284  11.761  11.912  0.0938 -0.1173 -0.0554
 5914W        W24768   6.365  14.407   3.400  0.1147 -0.0145 -0.0343
 5915W        W24769   8.687   9.846   2.327 -0.0715  0.0952 -0.1059
 5916W        W24770   5.558   4.160   2.565  0.0629 -0.0729 -0.0433
 5917W        W24771   8.415  13.976  13.952  0.0246  0.1154 -0.5847
 5918W        W24772   7.879  10.820  13.375 -0.2488 -0.3621 -0.0109
 5919W        W24773   8.346   9.816  15.252  0.3005 -0.0018  0.0150
 5920W        W24774   6.139   6.347   0.701 -0.0194 -0.2739 -0.1702
 5921W        W24775   4.215  14.110   0.022  0.2551 -0.3683  0.0661
 5922W        W24776   4.099   6.614   2.335  0.3939 -0.1545  0.2599
 5923W        W24777   4.860   2.390  12.185 -0.0116 -0.0200  0.4126
 5924W        W24778  13.485  15.764   4.035 -0.1604 -0.0915  0.0885
 5925W        W24779   0.274  12.737  16.748  0.0082  0.0051 -0.0017
 5926W        W24780  10.040  16.881   1.093 -0.0162 -0.3627 -0.0894
 5927W        W24781  15.606   1.131   3.149 -0.2895  0.1352  0.1834
 5928W        W24782  10.005   1.936   2.314 -0.1639 -0.2062  0.0542
 5929W        W24783  10.136   0.228   2.685  0.2570 -0.0931 -0.2039
 5930W        W24784  11.941  15.606  12.990 -0.0531 -0.3392  0.0888
 5931W        W24785  11.430   8.446   2.247 -0.1261  0.2730  0.3160
 5932W        W24786  12.791  12.332  15.283  0.0138 -0.1197  0.0319
 5933W        W24787   3.940   5.999   1.159 -0.0637 -0.1744 -0.2044
 5934W        W24788  12.949   2.162  15.967 -0.1773 -0.0474 -0.0131
 5935W        W24789   4.708  10.497   4.125  0.0109  0.2192 -0.1219
 5936W        W24790  11.422   9.159  12.876 -0.0512 -0.2074  0.1109
 5937W        W24791   7.456  10.989  13.756 -0.0095  0.0259 -0.0015
 5938W        W24792  14.926  12.477  12.649 -0.2236  0.1133  0.1435
 5939W        W24793  16.300  17.024   3.275  0.0028 -0.2244  0.0405
 5940W        W24794   8.632  10.146  13.291  0.2270 -0.0891  0.0843
 5941W        W24795   5.014   2.046  13.679  0.2127 -0.1378  0.3808
 5942W        W24796  16.989  13.873   4.157  0.0835  0.1741  0.0270
 5943W        W24797   9.569   3.780  15.083 -0.0848  0.1284  0.1191
 5944W        W24798   7.733   1.779   1.151 -0.0126  0.4197  0.0952
 5945W        W24799   5.894  10.569  14.095 -0.2367  0.2885  0.1162
 5946W        W24800   8.082  15.047  12.229  0.0583  0.3292 -0.1391
 5947W        W24801  16.079   4.396   1.956  0.3328 -0.2769 -0.4496
 5948W        W24802  13.687  12.711   2.635 -0.0549 -0.2523  0.0844
 5949W        W24803   1.836   7.574  14.088  0.1002 -0.3347 -0.0904
 5950W        W24804   5.522   8.595  15.052 -0.2183 -0.0651 -0.1124
 5951W        W24805   4.570  10.546   3.023  0.1191  0.1473  0.0587
 5952W        W24806  17.362  15.555  16.779  0.2203 -0.0628  0.0398
 5953W        W24807  17.301   6.842   2.865  0.0670 -0.1707 -0.2069
 5954W        W24808  15.280   6.438  15.241 -0.1130 -0.2243 -0.0836
 5955W        W24809  12.443   8.974   0.563  0.1179 -0.1912  0.0820
 5956W        W24810   3.560   9.191  12.363  0.0439  0.1087 -0.2748
 5957W        W24811  10.614  17.246   2.081  0.2982  0.1557 -0.0731
 5958W        W24812  14.828   9.505   5.117  0.3783 -0.1524 -0.0438
 5959W        W24813   7.237  16.085   0.468 -0.0365  0.3170  0.2389
 5960W        W24814   7.525  14.244  12.459  0.1886 -0.1233  0.2865
 5961W        W24815  16.125  12.662  13.381  0.0327  0.0329 -0.1659
 5962W        W24816   3.585   3.065   2.236  0.2289 -0.1658 -0.0690
 5963W        W24817   8.799   4.367   2.689 -0.1480 -0.0521 -0.0820
 5964W        W24818   7.544   1.225   2.448  0.0952 -0.2840 -0.2657
 5965W        W24819  16.733  13.941   0.284  0.2396  0.0636  0.0169
 5966W        W24820   4.760  15.344   1.827 -0.0224  0.0273  0.2295
 5967W        W24821   6.251   9.028   2.550 -0.0887  0.0424  0.2305
 5968W        W24822   6.873   5.390  16.452 -0.1960  0.0987 -0.2452
 5969W        W24823  10.076  12.225   4.730  0.1232 -0.1911 -0.1005
 5970W        W24824   1.829   4.155  14.809  0.0671  0.2398 -0.1023
 5971W        W24825  14.070   3.715  12.062 -0.0287 -0.2235 -0.3059
 5972W        W24826  16.300   3.243  16.045 -0.0433 -0.1722  0.0982
 5973W        W24827  12.479   7.306   3.798  0.1184 -0.1283 -0.0440
 5974W        W24828  13.995  13.879   1.511  0.1917  0.0216 -0.0940
 5975W        W24829   7.391  12.915  12.140 -0.1628  0.2790 -0.2227
 5976W        W24830   2.360   7.564  12.897  0.2397 -0.1071 -0.1408
 5977W        W24831  13.200   7.336   0.046  0.2087  0.3823 -0.1046
 5978W        W24832  11.489   7.120  14.958 -0.3338  0.1752  0.0301
 5979W        W24833  11.310   2.149  13.340 -0.1887 -0.1927 -0.3455
 5980W        W24834   4.141  10.969   1.336 -0.0593 -0.1070 -0.1342
 5981W        W24835  16.661   2.935  16.211  0.0868  0.0441  0.1505
 5982W        W24836   2.842   4.911  14.259 -0.2556  0.0549  0.0455
 5983W        W24837   8.276   7.991   2.809  0.1799 -0.2631 -0.3622
 5984W        W24838  11.168  12.798   3.188 -0.1135  0.1610 -0.0231
 5985W        W24839   8.041  16.788   3.939 -0.2304  0.1538  0.0379
 5986W        W24840   9.600  12.597   2.959 -0.2006 -0.2082  0.2624
 5987W        W24841   2.612  16.840   1.361  0.0630  0.1922 -0.0060
 5988W        W24842   4.104   9.418  15.800  0.1265 -0.1196  0.0774
 5989W        W24843  13.503   0.449  12.247 -0.0456  0.1609  0.1028
 5990W        W24844  15.900   3.316   0.213 -0.0391  0.1179  0.0263
 5991W        W24845  10.498   2.145  15.596  0.1948  0.1663  0.2481
 5992W        W24846  12.608   8.783   4.867 -0.0827 -0.0191 -0.0013
 5993W        W24847  11.252   1.580   2.400  0.0183 -0.0032 -0.0369
 5994W        W24848   7.948   3.211   1.418 -0.0678 -0.0308 -0.4401
 5995W        W24849   0.776  11.274   4.339 -0.0416  0.1451 -0.0198
 5996W        W24850   3.753  12.348   3.985  0.0465 -0.1564 -0.3190
 5997W        W24851  14.237  13.701   2.983  0.0157 -0.2941 -0.0945
 5998W        W24852  15.758   4.642  14.635  0.0310  0.3452 -0.0960
 5999W        W24853  12.984   6.468   4.366 -0.3166  0.0175 -0.1400
 6000W        W24854   9.514   5.885   3.698 -0.0223 -0.2666  0.3021
 6001W        W24855  11.437   2.544  16.506 -0.1891 -0.0960  0.3830
 6002W        W24856  17.580  12.624   2.115 -0.0432 -0.4561  0.1533
 6003W        W24857  12.788   0.998  14.225  0.0972  0.2255  0.0312
 6004W        W24858   0.893  12.821   0.920  0.0530 -0.0061  0.0267
 6005W        W24859   4.114   6.387   1.507 -0.3937 -0.4073  0.0879
 6006W        W24860  17.163   9.120  13.856 -0.0553  0.3857  0.1108
 6007W        W24861   9.508   8.819   2.314 -0.1017 -0.2513 -0.0119
 6008W        W24862  10.339   0.535   5.111  0.4255  0.3406 -0.4541
 6009W        W24863   1.312  11.676   1.760 -0.0295  0.1231  0.1638
 6010W        W24864  10.478   3.278   1.924 -0.0989  0.2543 -0.0248
 6011W        W24865   3.231   0.079  15.150 -0.0635 -0.3101 -0.0035
 6012W        W24866   4.078  16.444   3.253 -0.1148 -0.1726 -0.1591
 6013W        W24867  10.936   6.706  13.569  0.1075  0.0126  0.0238
 6014W        W24868  13.766   4.640   1.641 -0.1615 -0.0633 -0.0543
 6015W        W24869  10.207  15.625   2.430 -0.1344  0.4106  0.1134
 6016W        W24870   6.774   1.024   3.374 -0.1458  0.2229  0.0797
 6017W        W24871   0.878   9.844   1.976  0.1349  0.2856  0.1322
 6018W        W24872   3.939   6.710   0.701  0.0662  0.1951  0.0366
 6019W        W24873   9.678  14.537  14.863  0.0230  0.0983 -0.0040
 6020W        W24874  14.773  13.010  14.877  0.0446 -0.3139 -0.1581
 6021W        W24875   1.895   5.970   1.697  0.1110  0.1939  0.1035
 6022W        W24876   9.189  15.643  16.365 -0.0552  0.0185 -0.0173
 6023W        W24877   8.173  11.649  12.655  0.3452  0.2463  0.0915
 6024W        W24878   1.049   1.424   4.260 -0.3310  0.1314  0.0548
 6025W        W24879   2.904   3.539   5.108 -0.1449  0.0437 -0.0041
 6026W        W24880  13.579   3.282   3.620 -0.1061  0.1234  0.0532
 6027W        W24881  14.753  11.589   4.813 -0.0851  0.1653  0.2020
 6028W        W24882   4.007   9.230   2.737 -0.2626 -0.0084  0.0292
 6029W        W24883   9.873   2.893   1.268 -0.1554  0.1417 -0.1217
 6030W        W24884  11.570   0.146  12.169  0.0454  0.1364  0.3407
 6031W        W24885  13.431   2.225   4.502 -0.5701 -0.1353 -0.1602
 6032W        W24886   3.344   8.936  14.633 -0.1107  0.0036  0.0157
 6033W        W24887  10.937  14.362   2.098 -0.0788  0.0260  0.2300
 6034W        W24888  14.416  15.899   2.890 -0.2413 -0.0037  0.4153
 6035W        W24889  14.274  17.149  12.805 -0.0095 -0.1104  0.4674
 6036W        W24890   6.983  10.696   1.186 -0.0402  0.0595 -0.2285
 6037W        W24891  17.518  10.369   3.466  0.3476  0.1465  0.1158
 6038W        W24892   9.738  11.024   1.734  0.3313  0.2778 -0.1169
 6039W        W24893   0.228  16.675   2.257  0.1475 -0.1506  0.0427
 6040W        W24894   9.603   9.910   5.147 -0.0748  0.0531  0.0367
 6041W        W24895   9.112  12.283   3.811 -0.1873 -0.0808 -0.0055
 6042W        W24896  12.794  14.627  13.965 -0.0860 -0.0045 -0.1467
 6043W        W24897   3.427  11.851  13.591  0.2871  0.0139  0.0252
 6044W        W24898   2.394   6.893  12.865  0.1942  0.1778 -0.1454
 6045W        W24899   7.610  13.905   2.664  0.2347 -0.0975  0.1656
 6046W        W24900  13.500   7.430  14.786 -0.1899 -0.5838  0.1990
 6047W        W24901   8.222   2.245  15.600 -0.0286 -0.0920 -0.2428
 6048W        W24902  17.272   0.747   2.579 -0.2137  0.0255 -0.2628
 6049W        W24903   8.743  10.824   0.594  0.0460  0.1116 -0.1372
 6050W        W24904  16.361   4.259  13.095  0.1490  0.1062 -0.2738
 6051W        W24905   6.976   8.636   3.818  0.1960  0.1692 -0.1586
 6052W        W24906   9.790   2.023   1.909  0.1036 -0.3496  0.3442
 6053W        W24907  11.993  16.292  12.864 -0.2161 -0.1185  0.1347
 6054W        W24908   6.025  14.783   3.480  0.1461  0.0370 -0.3515
 6055W        W24909  11.086   1.572  14.428  0.0776 -0.3173  0.2414
 6056W        W24910  10.168   6.070   4.200  0.1475  0.0873 -0.1370
 6057W        W24911   9.177  14.443  14.719 -0.1298 -0.4147 -0.2878
 6058W        W24912   0.541  14.496   4.218  0.0720  0.0383 -0.0950
 6059W        W24913  14.570   3.923   0.397  0.0774  0.0730  0.1087
 6060W        W24914  14.351  10.950  14.627 -0.0949  0.0420 -0.0537
 6061W        W24915   8.576   7.265  12.002 -0.1082  0.2184 -0.1212
 6062W        W24916   1.019  12.736   4.619 -0.1924 -0.0974 -0.2716
 6063W        W24917   8.709  15.911  13.069 -0.0245  0.1137  0.0453
 6064W        W24918   0.347  13.266  13.721  0.1824 -0.0335  0.0797
 6065W        W24919   6.908   5.431  12.992  0.3145 -0.2794 -0.1190
 6066W        W24920  16.312  10.978  14.203 -0.4164 -0.1517  0.2349
 6067W        W24921  11.297   5.231  16.573 -0.0532 -0.1024  0.3035
 6068W        W24922   9.030   4.474  15.275 -0.4895  0.0068  0.1887
 6069W        W24923   8.444   5.198  17.146 -0.0231 -0.0373 -0.0745
 6070W        W24924   1.373  15.603   4.282 -0.0053 -0.1127  0.3162
 6071W        W24925   2.285   8.837   0.579 -0.0609 -0.0323 -0.1254
 6072W        W24926   5.339   1.366   3.346 -0.0199  0.0096  0.1040
 6073W        W24927   6.349   6.150   2.508 -0.2707  0.1133 -0.1486
 6074W        W24928  14.148  16.167  14.155 -0.2073 -0.1880 -0.3168
 6075W        W24929  11.293   0.340   1.054 -0.1103  0.0782 -0.0805
 6076W        W24930  12.291   9.303  13.499 -0.2632  0.1235  0.1219
 6077W        W24931  12.022   3.261  13.455 -0.2828 -0.1284  0.2582
 6078W        W24932   1.702   7.789   1.880  0.0138 -0.1850  0.1946
 6079W        W24933   6.812   2.320   3.379 -0.1454  0.2449  0.1617
 6080W        W24934  12.319   6.841  15.181 -0.2126  0.3353  0.1371
 6081W        W24935  14.461   8.993   4.835 -0.1185 -0.0769  0.1428
 6082W        W24936   4.636   2.522   4.006  0.1568 -0.0939 -0.0321
 6083W        W24937   2.431  11.972  14.168 -0.0611 -0.0507  0.1060
 6084W        W24938  13.017  13.653  12.760 -0.2229  0.1246 -0.0450
 6085W        W24939  10.273   3.887   2.240 -0.0951 -0.1332 -0.1801
 6086W        W24940  12.116   0.058  16.041  0.2156 -0.1063  0.0766
 6087W        W24941   7.184   6.464  15.266 -0.2227 -0.1596 -0.2317
 6088W        W24942  15.216   2.942  14.913  0.0100 -0.2820 -0.1330
 6089W        W24943   1.030  12.190   4.693 -0.1445  0.2392 -0.3503
 6090W        W24944   9.495   3.666  11.910 -0.1575 -0.3697 -0.3978
 6091W        W24945   3.314   4.944  16.701  0.2325 -0.0422  0.1397
 6092W        W24946  16.806   4.051  14.034  0.0836 -0.1957 -0.0603
 6093W        W24947  14.190   2.457  13.947  0.1955  0.1895  0.2584
 6094W        W24948   6.304   1.385   4.114  0.2480 -0.0171  0.5014
 6095W        W24949   9.435  10.541   4.315  0.0372  0.2451  0.1998
 6096W        W24950   1.246   0.592   1.838 -0.1417  0.0957 -0.0712
 6097W        W24951  16.344  10.070   0.293 -0.0353 -0.1581  0.2148
 6098W        W24952   6.897  14.919  15.880  0.2742 -0.1112  0.2430
 6099W        W24953   9.838   4.666   1.600  0.0131 -0.1080  0.2386
 6100W        W24954   7.370   4.829   0.736  0.0382  0.0705 -0.2010
 6101W        W24955   7.916   5.915   1.397 -0.0504  0.3196  0.0837
 6102W        W24956   2.739   2.626   1.873  0.1370 -0.3815  0.2830
 6103W        W24957  16.599   1.690  13.845  0.1760 -0.1072  0.0165
 6104W        W24958   4.056  16.854   2.957 -0.0615  0.1329 -0.0561
 6105W        W24959  15.403   9.222   2.542 -0.3197 -0.1342 -0.1857
 6106W        W24960   5.349  17.449   3.567 -0.1614 -0.0067  0.0948
 6107W        W24961   8.971   2.323  16.221 -0.0093  0.1982  0.3877
 6108W        W24962   4.471  12.627  14.636 -0.3675  0.1455 -0.2775
 6109W        W24963   0.006  17.422   0.123 -0.2275 -0.1609 -0.1534
 6110W        W24964  13.253   5.406   1.915 -0.0788  0.4092 -0.1975
 6111W        W24965   2.511  13.475   3.654  0.3003 -0.2752 -0.2986
 6112W        W24966  13.188   8.266   3.991 -0.0381 -0.0424  0.0101
 6113W        W24967   9.026  16.150   1.571 -0.0220 -0.0464  0.1653
 6114W        W24968   1.284  13.567   0.991 -0.1406 -0.3888  0.0574
 6115W        W24969   9.492  11.902  16.776  0.3976  0.1287  0.0259
 6116W        W24970   9.730   0.982  13.607  0.0050  0.3978  0.2044
 6117W        W24971   8.978  14.726  16.465 -0.0968  0.0618  0.2667
 6118W        W24972  10.771  10.165   4.728 -0.2385 -0.1937 -0.4473
 6119W        W24973  13.501   4.191  12.761 -0.2141  0.0181  0.2727
 6120W        W24974   1.291  13.847  15.077 -0.1360  0.2616 -0.3171
 6121W        W24975   5.877  17.426  13.082 -0.5918 -0.0641  0.1159
 6122W        W24976  10.182   8.085  14.414  0.2530 -0.0548 -0.4265
 6123W        W24977   7.008   0.727  12.929 -0.1139 -0.0514 -0.1434
 6124W        W24978  13.787  12.932  16.419  0.2490 -0.1006 -0.3187
 6125W        W24979  11.581   7.270  16.587  0.0841 -0.1899  0.1427
 6126W        W24980   2.346  12.750   3.473  0.1337 -0.2899 -0.0294
 6127W        W24981  15.108   5.913  15.091 -0.4392 -0.0848 -0.3273
 6128W        W24982  11.736   4.767   1.718 -0.0894  0.5183  0.1834
 6129W        W24983  11.880   1.255  14.401  0.2074 -0.2368  0.0992
 6130W        W24984   6.251   9.691   3.301 -0.2738 -0.0199 -0.1717
 6131W        W24985   7.683  17.556   0.572  0.1389 -0.3946  0.0036
 6132W        W24986   7.403  15.118  16.933  0.3002  0.0924  0.0931
 6133W        W24987   6.812   7.782   4.905  0.1753  0.1499 -0.4267
 6134W        W24988  16.630  12.517   1.936 -0.1167  0.1699  0.4511
 6135W        W24989   7.953   2.613  15.852 -0.0072  0.5063  0.0596
 6136W        W24990  17.482  15.178  13.487  0.0326  0.1756  0.3364
 6137W        W24991  13.455  16.385   3.337 -0.3534 -0.1626  0.0048
 6138W        W24992   8.250   2.249   4.263  0.1514  0.0020 -0.3929
 6139W        W24993  12.504   5.010  12.670  0.4466  0.3260 -0.3528
 6140W        W24994   7.941  17.255   4.926 -0.1305 -0.0405  0.1351
 6141W        W24995   5.785  11.985  12.907  0.2497 -0.0168 -0.1274
 6142W        W24996   9.164  16.392   0.249  0.0402  0.3135  0.2140
 6143W        W24997   8.866   9.911   4.515 -0.0415  0.0750 -0.3115
 6144W        W24998  16.602   0.726   1.839  0.2289 -0.2975 -0.0843
 6145W        W24999   9.790   2.146   1.377  0.2580  0.4652  0.0011
 6146W        W25000  15.846  10.684  16.448  0.2263  0.1381  0.0171
 6147W        W25001   7.834   4.879   0.511  0.0731 -0.0149  0.0702
 6148W        W25002   0.790  16.552   4.250  0.1340 -0.3089 -0.1011
 6149W        W25003   1.394  11.334   5.009  0.2613  0.1528  0.0951
 6150W        W25004  10.019   0.978   3.906 -0.1687  0.0272 -0.2031
 6151W        W25005   5.684   4.188  14.145  0.4238  0.0659 -0.0547
 6152W        W25006  16.361  13.434   1.677  0.0635 -0.0147 -0.3084
 6153W        W25007   8.947   8.489  14.128 -0.1662  0.0124  0.3748
 6154W        W25008   1.217   8.283   3.844 -0.0596  0.0069 -0.1730
 6155W        W25009   3.443   2.419   3.492  0.1586 -0.2388  0.0334
 6156W        W25010   1.815   1.545   0.063  0.0946  0.1096 -0.0335
 6157W        W25011  13.669  14.051   2.826  0.3645  0.0312 -0.0695
 6158W        W25012  12.951   7.790   0.061 -0.2888 -0.0328 -0.0994
 6159W        W25013  10.196  13.099  13.538  0.2160  0.2221 -0.2293
 6160W        W25014   7.352  13.338  16.923  0.1488  0.1986  0.0630
 6161W        W25015  14.681   5.308   0.878 -0.3517 -0.0485 -0.0532
 6162W        W25016   5.253  10.792   0.163  0.0737 -0.1633 -0.0301
 6163W        W25017  14.339  11.375   4.045  0.0773 -0.2120 -0.1923
 6164W        W25018   6.559   2.750  16.749  0.1034  0.0223  0.1985
 6165W        W25019   8.598   4.733  16.388 -0.0478  0.1185  0.3468
 6166W        W25020  15.116  11.067   0.279  0.1379  0.1642  0.3012
 6167W        W25021   6.080   1.257   2.089 -0.3013 -0.1976  0.0012
 6168W        W25022   1.211  11.677   2.220 -0.0661 -0.0861 -0.0551
 6169W        W25023  14.553  17.201  13.205  0.0582  0.3380 -0.2448
 6170W        W25024  10.561   6.386  13.746 -0.1956 -0.0948 -0.3179
 6171W        W25025  16.853   8.710   6.028 -0.1326 -0.3080  0.0186
 6172W        W25026  15.718  15.542   3.230  0.0054  0.1435 -0.1116
 6173W        W25027  15.364   2.531   3.944  0.1757 -0.0482 -0.0369
 6174W        W25028   0.314  14.104  12.543 -0.0708  0.1796 -0.1082
 6175W        W25029   8.445   0.201   1.182 -0.2490 -0.0307  0.0021
 6176W        W25030  17.418  12.056   5.265 -0.1236 -0.2188 -0.2489
 6177W        W25031  17.070   7.962  13.816 -0.1376 -0.0115 -0.0624
 6178W        W25032   0.192   4.961  12.191  0.1896 -0.0034 -0.0293
 6179W        W25033  10.332  11.657  14.504 -0.1283 -0.0209 -0.4065
 6180W        W25034   6.715  10.187   3.259 -0.0018  0.1443  0.0406
 6181W        W25035  14.968  12.454  17.033  0.2191 -0.0621 -0.1472
 6182W        W25036   4.166   5.953   3.791 -0.1492 -0.0297  0.1590
 6183W        W25037  10.830   1.569  13.080 -0.1358  0.0834  0.2236
 6184W        W25038   1.634  10.271   1.631  0.0391  0.0656 -0.1859
 6185W        W25039   4.473  10.517  15.504 -0.1829 -0.1951  0.3006
 6186W        W25040   6.649   6.240   5.128 -0.1644 -0.2618  0.0672
 6187W        W25041  13.014   3.225  15.987 -0.0051 -0.1468  0.2214
 6188W        W25042  14.518   1.855   0.179 -0.0172 -0.1815  0.1004
 6189W        W25043  14.071   8.031   0.235  0.0742 -0.4353 -0.0605
 6190W        W25044   0.283   5.764  12.497  0.1362 -0.3001 -0.0461
 6191W        W25045   8.738   9.165   2.113  0.0087 -0.2472 -0.1685
 6192W        W25046   5.273  13.189   3.253 -0.0740  0.0736 -0.0671
 6193W        W25047   7.375  11.619   2.968  0.0333 -0.0621 -0.0411
 6194W        W25048   6.372   3.493  16.718 -0.0219  0.2372 -0.2871
 6195W        W25049  15.913  13.937   2.157  0.3879 -0.1754 -0.2620
 6196W        W25050  16.520  10.016   1.638  0.2478 -0.3088  0.0711
 6197W        W25051   9.573   9.024  12.240 -0.2263  0.2375 -0.0148
 6198W        W25052   8.238   0.011   0.591  0.2286 -0.0909 -0.2618
 6199W        W25053  16.267   6.835  13.348 -0.1833 -0.0413 -0.2670
 6200W        W25054   5.438  11.329  15.467 -0.0687 -0.4513  0.1592
 6201W        W25055  17.387   9.322   2.478 -0.2695  0.3261  0.0948
 6202W        W25056  16.239   6.924   0.738  0.1910 -0.2466  0.3059
 6203W        W25057  13.732  15.004   3.762  0.1896  0.2158 -0.1144
 6204W        W25058  11.089  16.361  16.000 -0.1017 -0.2879  0.1833
 6205W        W25059  12.150   3.547   2.413 -0.3380 -0.1248  0.0339
 6206W        W25060  13.508   0.712   3.587 -0.2594  0.2810  0.4419
 6207W        W25061   7.994  15.259  14.216  0.2125  0.1214  0.0371
 6208W        W25062   4.379   0.383   3.049  0.1027  0.1510 -0.0881
 6209W        W25063  13.241   7.823   1.962  0.2335  0.0712  0.1740
 6210W        W25064   8.677   6.440  12.630 -0.1087  0.0782  0.0684
 6211W        W25065   7.138   3.304  15.385 -0.0319 -0.1732  0.0659
 6212W        W25066  14.769   6.065   5.110 -0.0168 -0.0263  0.3017
 6213W        W25067   8.654   6.292   2.617  0.2451 -0.1959  0.2438
 6214W        W25068   0.763   0.943  13.096  0.1754 -0.0863 -0.0164
 6215W        W25069   3.923   0.353  13.181 -0.2432 -0.3014 -0.1423
 6216W        W25070   1.780   5.991  13.702 -0.3201  0.1414  0.0771
 6217W        W25071  13.732   6.003   5.493  0.1968 -0.3200 -0.5818
 6218W        W25072   3.291   5.535  12.610  0.2577  0.2230 -0.2681
 6219W        W25073   5.494   2.960   1.828 -0.3825  0.0992 -0.3839
 6220W        W25074  17.193   9.523  16.186 -0.2169  0.0678  0.0141
 6221W        W25075   6.475   1.419  16.737  0.0256  0.1510  0.0053
 6222W        W25076   6.064  15.162  12.386 -0.1976 -0.2779 -0.2202
 6223W        W25077   0.920   8.634  12.754 -0.1203  0.1116 -0.1931
 6224W        W25078   9.002   8.469   1.693  0.0592 -0.1293 -0.1857
 6225W        W25079   8.642  15.285   5.218 -0.1534  0.1157 -0.1479
 6226W        W25080   8.539  16.361  15.760  0.1015  0.0151 -0.2617
 6227W        W25081   4.869  12.157  14.675  0.0520  0.1621  0.1743
 6228W        W25082   4.851  15.253   0.764 -0.1598 -0.1384 -0.0613
 6229W        W25083   3.254  10.940  14.492 -0.1221 -0.0466  0.0390
 6230W        W25084   3.680  17.559  12.848 -0.1561 -0.1647 -0.0963
 6231W        W25085   1.429   9.671  15.784 -0.2813 -0.0782  0.1089
 6232W        W25086   7.196   7.692   1.732 -0.2048  0.2388 -0.2065
 6233W        W25087  11.852   7.872  12.298  0.2467 -0.1266  0.1038
 6234W        W25088   2.485   4.895   4.331  0.0588  0.1455 -0.2634
 6235W        W25089   5.274   5.708   3.038 -0.0352  0.0542 -0.2204
 6236W        W25090  11.887   1.069  15.993  0.0619 -0.1640  0.2907
 6237W        W25091   2.971   7.013   1.168  0.0801  0.0360  0.0228
 6238W        W25092   5.840  17.318   2.707  0.0565  0.2254  0.2561
 6239W        W25093   5.576  14.083   3.917 -0.4267  0.3566 -0.1278
 6240W        W25094   9.715  13.212  15.124 -0.0649 -0.2358  0.1112
 6241W        W25095   4.302  10.735  14.997 -0.1983  0.0052 -0.1724
 6242W        W25096  12.321   5.594  14.386  0.1524 -0.1424 -0.0544
 6243W        W25097  15.543   0.362  15.249  0.2197 -0.5479 -0.1001
 6244W        W25098  15.289  10.578  12.505 -0.1023 -0.0338  0.0749
 6245W        W25099  10.173   3.477   5.019 -0.0031 -0.2608 -0.1673
 6246W        W25100  14.796   9.846   4.742 -0.0444 -0.1352  0.1320
 6247W        W25101  16.578   5.830  15.042  0.1482 -0.0850  0.0596
 6248W        W25102   1.780   1.316   0.881  0.3166  0.2160  0.0614
 6249W        W25103   7.891   9.164   4.728  0.5535  0.2949  0.2006
 6250W        W25104   0.062   6.456  17.181 -0.1359 -0.1166 -0.0515
 6251W        W25105  14.642   3.348  15.424 -0.1395  0.0449  0.0631
 6252W        W25106  16.075  11.867  13.241  0.2203  0.0690  0.2433
 6253W        W25107  12.430   5.426  17.144  0.1073  0.1085  0.0467
 6254W        W25108   1.797  13.830   2.374 -0.3545 -0.2124 -0.0946
 6255W        W25109  16.460  10.459  15.853  0.2498 -0.0298  0.0372
 6256W        W25110  13.816   4.696   3.146  0.2289  0.0800 -0.0282
 6257W        W25111  10.320   8.722  16.765  0.0203 -0.1803 -0.0895
 6258W        W25112   2.215   9.103  13.341  0.1809  0.0805 -0.1084
 6259W        W25113   5.650  15.633   4.642  0.3671  0.0887 -0.1621
 6260W        W25114   7.475  13.684   1.557  0.1911 -0.0166  0.1502
 6261W        W25115   0.528  10.888   1.027 -0.0706 -0.1717  0.2962
 6262W        W25116  15.398   1.973  14.821  0.1330 -0.1507 -0.2380
 6263W        W25117   9.649   9.846  15.806 -0.1319  0.0486  0.0307
 6264W        W25118   5.046   2.945   5.220  0.0166  0.1408 -0.3290
 6265W        W25119  10.700  10.976  16.759  0.3224 -0.0295  0.0888
 6266W        W25120   3.604  14.687  13.877 -0.0780  0.0289  0.0027
 6267W        W25121   1.570   6.751  14.334 -0.0027 -0.2086 -0.0198
 6268W        W25122   7.912  17.115   4.343 -0.3086  0.2402 -0.1603
 6269W        W25123   9.625   3.429   1.055  0.2928 -0.0229  0.1706
 6270W        W25124   1.655  16.846   1.417  0.1414  0.2007  0.2437
 6271W        W25125  13.158  16.295   1.466 -0.0046 -0.3441 -0.0245
 6272W        W25126   8.819   3.311  12.394  0.2561 -0.0230 -0.3346
 6273W        W25127   2.600   4.574   0.527  0.0371  0.3123  0.1008
 6274W        W25128   8.507   1.541  16.167 -0.1254  0.1946 -0.0908
 6275W        W25129  15.932  10.962   1.781  0.1918 -0.0448  0.0287
 6276W        W25130  11.126   4.094   5.454 -0.0656 -0.0424  0.1636
 6277W        W25131  14.635   5.118   4.128 -0.0828  0.2245  0.0788
 6278W        W25132   2.001  12.115  14.491  0.3563  0.0530  0.1254
 6279W        W25133   6.085  15.542   4.969  0.1339 -0.0318 -0.2278
 6280W        W25134   5.055  15.412   2.283  0.2404  0.0540 -0.0355
 6281W        W25135   7.165   0.843   2.136 -0.2326 -0.0531 -0.3781
 6282W        W25136   6.300   2.791   4.011  0.3044  0.1339 -0.0784
 6283W        W25137   0.380  10.353   2.664  0.4446 -0.1683 -0.2503
 6284W        W25138   8.904  13.359   2.793  0.0055  0.0047  0.1250
 6285W        W25139   4.063   4.595   3.667  0.1746 -0.0711  0.4352
 6286W        W25140   6.527  11.583  15.557 -0.1595  0.0033 -0.0390
 6287W        W25141   7.487   8.866   4.621  0.1816 -0.1427  0.3209
 6288W        W25142   8.405   6.275   3.067 -0.1282  0.0895  0.1437
 6289W        W25143  16.507   9.015  14.665  0.0982  0.0242 -0.1745
 6290W        W25144  10.415  14.785   1.001  0.2469  0.3787  0.0126
 6291W        W25145   8.959  10.928  12.598 -0.0928  0.0834  0.0960
 6292W        W25146   6.628   6.352  14.541 -0.0782  0.1117 -0.1063
 6293W        W25147  16.998  14.396  15.031  0.1745  0.1459 -0.1438
 6294W        W25148  12.107   9.789  15.896 -0.0170  0.0066  0.0647
 6295W        W25149   9.992  11.601  12.993 -0.0579 -0.3054 -0.0120
 6296W        W25150  12.935   5.055  13.686 -0.0158  0.0375 -0.1610
 6297W        W25151   9.449   8.045  14.954 -0.1719  0.1404  0.0172
 6298W        W25152  11.335   7.089  15.651 -0.2826 -0.2548 -0.0964
 6299W        W25153  10.412  17.384  14.702  0.6846 -0.0865 -0.0791
 6300W        W25154   0.425   7.687  15.155  0.0554 -0.2781 -0.1798
 6301W        W25155   1.356  17.282  15.623  0.2471 -0.0115  0.3252
 6302W        W25156  14.452   3.823  15.403  0.0553 -0.1919  0.0102
 6303W        W25157   3.524  14.292   4.861  0.1535  0.0308 -0.0297
 6304W        W25158   3.261  14.230  16.347  0.0689  0.0913 -0.1040
 6305W        W25159   4.391  15.380  15.683 -0.0852  0.3310 -0.0027
 6306W        W25160   7.847   8.329   2.103  0.1194  0.2900  0.2157
 6307W        W25161   5.023   2.649  16.545  0.0227  0.1587  0.0825
 6308W        W25162   0.274   2.003  16.743 -0.2791  0.0847  0.4115
 6309W        W25163  12.756   8.488   2.754  0.1441  0.0600  0.0730
 6310W        W25164   3.698   3.301   3.293  0.0216  0.0325 -0.2578
 6311W        W25165   8.735  16.806   3.044 -0.0311 -0.0729  0.0177
 6312W        W25166   0.391  17.419  16.985  0.1892  0.2738 -0.0506
 6313W        W25167   9.809   7.815   3.163 -0.1329  0.0931  0.0927
 6314W        W25168   0.970   6.957  13.548  0.0885  0.1102  0.0437
 6315W        W25169   8.095   1.797  12.965  0.1417  0.0115  0.1598
 6316W        W25170   1.105  10.733  15.992 -0.0948 -0.0608  0.3060
 6317W        W25171   3.317   2.975   4.237  0.1755  0.4121  0.0390
 6318W        W25172  10.642  14.822  15.206 -0.0182 -0.0937  0.2148
 6319W        W25173  12.941   1.167   0.069  0.1820 -0.1275  0.0967
 6320W        W25174   8.009   5.611   2.054 -0.1682  0.2124 -0.1283
 6321W        W25175   2.555  11.364  13.383 -0.1085 -0.1115  0.0052
 6322W        W25176  11.101  11.780  14.257 -0.2538  0.1931  0.4572
 6323W        W25177   1.401   3.357  13.802  0.2103 -0.1256  0.1111
 6324W        W25178   4.800  15.752  12.582  0.2638 -0.0682  0.2490
 6325W        W25179  15.305   8.724   3.663 -0.2608 -0.2175 -0.1685
 6326W        W25180   8.456  11.847  15.946  0.0213  0.1460 -0.2941
 6327W        W25181   5.990   4.097  14.991  0.4634  0.2482 -0.1900
 6328W        W25182   0.612   2.852   0.820  0.2162  0.0846 -0.1271
 6329W        W25183   5.804  10.455  14.605  0.1725 -0.0211 -0.0860
 6330W        W25184  17.432   7.707   5.167  0.1458  0.1352 -0.1124
 6331W        W25185   7.407  12.434  12.380  0.3597  0.2472 -0.0037
 6332W        W25186   3.225   5.342   1.628  0.0604 -0.1193 -0.3371
 6333W        W25187  12.575   4.335  15.611 -0.1338 -0.0953 -0.1424
 6334W        W25188   3.579  12.527   0.084  0.0097  0.0358 -0.2379
 6335W        W25189   8.515   9.946   1.875  0.2050 -0.1162 -0.1627
 6336W        W25190   6.206  14.174  15.899  0.0817  0.0954  0.1880
 6337W        W25191   5.107   3.316   2.074  0.2174  0.0546 -0.0634
 6338W        W25192   0.403  13.793  14.284 -0.0608  0.1326  0.0662
 6339W        W25193   6.170  13.706   2.911  0.0876  0.0117 -0.3124
 6340W        W25194   9.331   9.481  15.334  0.1415  0.0511  0.6620
 6341W        W25195   8.561   3.775  16.883  0.3535 -0.0532  0.3320
 6342W        W25196  11.567   5.465  12.283  0.2298  0.1431 -0.2355
 6343W        W25197  11.597  11.500  12.059 -0.1872 -0.2121  0.2271
 6344W        W25198  17.148   9.739  12.872 -0.0677 -0.2330  0.1660
 6345W        W25199  14.422  13.338  14.639  0.0725  0.0671  0.0082
 6346W        W25200  11.948  14.970  14.989 -0.0136  0.2820 -0.1274
 6347W        W25201  12.507  13.482   2.740  0.0481  0.0967  0.2852
 6348W        W25202  10.789  16.021   0.657  0.1081  0.0024 -0.1710
 6349W        W25203   4.976   6.234  14.383 -0.0000 -0.0515 -0.2057
 6350W        W25204   9.368  11.403   0.351  0.0808 -0.0386  0.1097
 6351W        W25205   2.552  15.161   1.887 -0.3524 -0.3652 -0.2570
 6352W        W25206   7.965  17.387   1.183  0.0345 -0.0574  0.3690
 6353W        W25207   7.147   0.306  15.422  0.3415 -0.0591  0.0614
 6354W        W25208   8.376   3.558  15.004  0.1144  0.0684 -0.0347
 6355W        W25209  16.325   9.787  12.962  0.1972 -0.1789 -0.0055
 6356W        W25210   2.337   9.702  17.198 -0.1810 -0.2458 -0.0144
 6357W        W25211   3.079   5.223  12.045  0.2196  0.2535  0.0767
 6358W        W25212   7.104  11.778   4.998 -0.2293  0.2385 -0.4317
 6359W        W25213   2.784   1.188  16.489  0.2428  0.0243 -0.1126
 6360W        W25214   7.073   6.311  16.877 -0.0018  0.3480  0.0376
 6361W        W25215   2.118  12.633   0.709  0.1881 -0.2691  0.4041
 6362W        W25216   0.561  16.986   3.603 -0.0472 -0.0840  0.1035
 6363W        W25217   2.796  13.647  16.190 -0.0322  0.0269 -0.1449
 6364W        W25218   3.457  12.365   5.414 -0.0005 -0.0562  0.0966
 6365W        W25219  12.366  14.845   5.027  0.0920 -0.2332  0.0529
 6366W        W25220   0.905   1.752  11.928 -0.0407 -0.2106  0.2178
 6367W        W25221  11.478  12.205   1.528 -0.1552 -0.2070 -0.1211
 6368W        W25222  12.759   0.554  15.252  0.0796  0.1651 -0.1546
 6369W        W25223  15.539   9.853   0.661 -0.1633  0.0605 -0.0869
 6370W        W25224   1.568  10.104   2.486 -0.0049 -0.0520  0.1289
 6371W        W25225   4.365   9.502   2.318 -0.0415 -0.0310 -0.0170
 6372W        W25226   5.615   7.426   0.742 -0.1352 -0.0827  0.1485
 6373W        W25227  16.345  10.274  13.236 -0.3556 -0.0225 -0.1700
 6374W        W25228   2.627  10.884  16.297 -0.1741  0.0013  0.2013
 6375W        W25229   3.478   1.805   2.893 -0.1125 -0.0529  0.2631
 6376W        W25230   4.915  12.817   3.993  0.1312  0.1655 -0.0750
 6377W        W25231  16.254  10.864  15.514 -0.0650 -0.0537  0.2002
 6378W        W25232   0.572   4.746  13.365  0.0214 -0.1377  0.0658
 6379W        W25233   2.129  10.130   4.769  0.1085  0.2956  0.0535
 6380W        W25234   0.878   5.648  12.515  0.1468  0.1047  0.1861
 6381W        W25235   9.818  10.737  12.520  0.1798  0.1931  0.0479
 6382W        W25236  12.430  11.160  14.719  0.3855  0.2271  0.2933
 6383W        W25237   3.553   6.502   2.397  0.1136  0.0437 -0.1149
 6384W        W25238  15.787  13.239   4.487  0.2075 -0.0455 -0.0849
 6385W        W25239   2.617  17.207   3.406 -0.3309 -0.1133 -0.0942
 6386W        W25240  12.911   2.615  16.594 -0.0416 -0.2688 -0.1245
 6387W        W25241   0.618  15.901  15.356 -0.0216  0.1907  0.1333
 6388W        W25242  17.125   0.432  16.133 -0.0802 -0.1081 -0.0242
 6389W        W25243   8.851   9.126   1.650 -0.1582 -0.2197 -0.0312
 6390W        W25244  15.069  17.453   3.627 -0.0669 -0.1749 -0.0884
 6391W        W25245   3.097  14.572   4.743 -0.1835  0.0463  0.2727
 6392W        W25246  10.458   7.885   0.603 -0.0806  0.1968 -0.0208
 6393W        W25247  15.277   3.137  17.033  0.1349 -0.0693 -0.1866
 6394W        W25248   6.580  11.156   1.805  0.5033 -0.1786 -0.0572
 6395W        W25249  10.616   5.904   4.453 -0.1065  0.2420  0.0026
 6396W        W25250   7.736   1.499   2.925  0.0921  0.3005  0.0006
 6397W        W25251   4.839   6.750  15.624  0.0908 -0.1958  0.1746
 6398W        W25252   1.654   7.471  15.025  0.0216  0.1761 -0.0325
 6399W        W25253   7.390   5.632  14.652  0.1129 -0.0665  0.0251
 6400W        W25254   7.810  11.144  14.051 -0.3172 -0.2328 -0.2497
 6401W        W25255   2.658  14.212   0.729 -0.0943  0.0266  0.1154
 6402W        W25256   5.701   8.819   3.743  0.0533  0.1905  0.0041
 6403W        W25257   2.110  16.305  14.816  0.0051  0.4093 -0.2115
 6404W        W25258  13.794  17.561  12.234  0.4542  0.1867  0.2385
 6405W        W25259   4.020   8.682   4.952  0.2311  0.1385 -0.0424
 6406W        W25260  11.824  12.942   4.690  0.2063 -0.0578  0.0113
 6407W        W25261  10.906  13.863  14.802 -0.1823  0.3214  0.0532
 6408W        W25262   5.327  16.689   4.678  0.0641  0.2108  0.0185
 6409W        W25263  10.059   4.561   0.200  0.2246 -0.0758  0.0132
 6410W        W25264  11.510  16.860   2.733  0.1251 -0.0297 -0.0830
 6411W        W25265   9.493  13.725   1.097 -0.1366  0.1320 -0.2231
 6412W        W25266  11.610   6.057  17.027 -0.3046 -0.0912 -0.0538
 6413W        W25267  10.074   8.112   2.326 -0.1477 -0.1123  0.0359
 6414W        W25268   0.462  12.376  13.561  0.2085  0.2173  0.2840
 6415W        W25269   2.196  10.353  13.071 -0.5655 -0.0230 -0.0529
 6416W        W25270   4.096   8.979   4.555 -0.0016 -0.5423  0.1250
 6417W        W25271  13.576   8.243   1.856 -0.2883  0.1536  0.4320
 6418W        W25272   7.732  12.486   1.946 -0.3056 -0.1882 -0.0680
 6419W        W25273   0.740   3.042  16.266 -0.0076 -0.2642 -0.1586
 6420W        W25274   0.377  11.747   2.444  0.0036 -0.0037 -0.1167
 6421W        W25275   7.939   1.293   1.816 -0.0423  0.1814 -0.0723
 6422W        W25276  12.743   8.417  13.307 -0.1763 -0.1209  0.2034
 6423W        W25277   2.058  13.653   4.375  0.2120  0.1890  0.0258
 6424W        W25278   4.415   6.322   3.996 -0.1109  0.0005 -0.2103
 6425W        W25279  14.767  16.586   2.458 -0.0963  0.0153 -0.3622
 6426W        W25280   8.570   2.532  15.239 -0.4356  0.1466  0.0153
 6427W        W25281   8.218  15.831  13.063 -0.1306  0.2788 -0.3158
 6428W        W25282   9.057  15.245   1.597  0.1536  0.1534  0.1973
 6429W        W25283   9.461  11.906  15.290  0.0835  0.1251 -0.0302
 6430W        W25284   0.715   6.891   1.280 -0.1864  0.2659  0.2294
 6431W        W25285  11.639  10.021  14.386 -0.2161  0.0907  0.0087
 6432W        W25286   8.595   4.356  14.384  0.3521 -0.3183 -0.2064
 6433W        W25287   8.391   7.761  14.080 -0.4741 -0.2949  0.0619
 6434W        W25288  15.821   9.729   2.087 -0.3352  0.2862  0.2016
 6435W        W25289  12.833   9.407   1.804  0.1298  0.1916 -0.0230
 6436W        W25290   7.093   2.779  15.147  0.2081 -0.2294 -0.0186
 6437W        W25291  12.352  13.713   4.914 -0.0883 -0.1186 -0.0992
 6438W        W25292   9.130   6.795  12.479 -0.2318  0.1374 -0.0600
 6439W        W25293  10.682   0.436   3.246  0.0405 -0.0397  0.0768
 6440W        W25294  13.288  13.183   1.031 -0.1364 -0.1182 -0.0142
 6441W        W25295   6.478  12.061   0.084  0.0427  0.3059  0.0635
 6442W        W25296  15.685   4.914   5.362  0.3422 -0.0692  0.1427
 6443W        W25297   7.768  11.545  14.893  0.0947 -0.1076 -0.0031
 6444W        W25298  16.167   6.565  14.243  0.0000 -0.1399  0.1239
 6445W        W25299   2.560  15.086  15.431  0.5868  0.0306 -0.1653
 6446W        W25300   5.459   2.722  17.224 -0.1200  0.1799  0.3177
 6447W        W25301  16.363   5.201  15.556 -0.0661 -0.2622  0.1792
 6448W        W25302   2.796  13.363  12.654  0.1181  0.2132 -0.1208
 6449W        W25303   9.358   4.924  12.687 -0.0263 -0.5317  0.1064
 6450W        W25304   9.948   3.757  12.229  0.0575  0.0595 -0.3504
 6451W        W25305   3.207  14.801   0.743 -0.0401 -0.4293 -0.1987
 6452W        W25306  16.866   4.193  16.362 -0.2061 -0.2155  0.0579
 6453W        W25307  13.197  11.206  14.728 -0.0335  0.1112  0.1321
 6454W        W25308  14.175  13.758  17.120  0.2204 -0.0960  0.2982
 6455W        W25309   9.913  14.603  15.276 -0.2332 -0.1983  0.0643
 6456W        W25310   9.024  11.670  16.745 -0.2974 -0.0729 -0.0873
 6457W        W25311  10.425   0.610   3.608  0.0005  0.0799  0.4166
 6458W        W25312   2.724  14.560  15.691 -0.1465  0.0656 -0.1643
 6459W        W25313  13.456  14.421   0.857  0.1935 -0.0762 -0.1425
 6460W        W25314   9.070  13.620   0.084  0.1511  0.1304 -0.1028
 6461W        W25315  10.860  10.628   3.694  0.0688 -0.0532  0.2219
 6462W        W25316  15.757  10.651   4.469  0.0143  0.0069 -0.0744
 6463W        W25317  16.377  12.277   0.144  0.0728  0.1761  0.1677
 6464W        W25318   7.790   4.487   4.509  0.1140  0.2686 -0.1663
 6465W        W25319  17.228   9.648   5.537 -0.2619  0.2499 -0.1050
 6466W        W25320  11.099  10.779  14.991 -0.0215  0.0270 -0.1388
 6467W        W25321  13.636   3.071  16.980  0.1639 -0.0080  0.0682
 6468W        W25322   2.427   3.466  15.998 -0.3586  0.2931 -0.1125
 6469W        W25323   5.679   9.848  15.262  0.3557 -0.1388 -0.1924
 6470W        W25324   2.934   7.124  16.562  0.1705 -0.0460  0.0275
 6471W        W25325   7.606  11.823   1.607  0.0945  0.0267  0.3851
 6472W        W25326  10.315  15.706  15.521  0.0627  0.0219  0.0599
 6473W        W25327   8.604   2.335  13.622 -0.3139 -0.1001 -0.1194
 6474W        W25328   2.666   9.229  14.608  0.1876 -0.2518 -0.2528
 6475W        W25329   5.397   9.973   5.493  0.1359  0.3660 -0.1913
 6476W        W25330   1.449   8.092   5.646  0.1859 -0.1646 -0.3129
 6477W        W25331   4.286   2.155  16.718 -0.1282 -0.1014 -0.0569
 6478W        W25332   6.155  13.648  14.523  0.1128  0.3176  0.1508
 6479W        W25333   0.949  14.837  16.614  0.0403  0.0411  0.0763
 6480W        W25334   8.021   1.078  16.514  0.3061 -0.1372  0.1195
 6481W        W25335   2.837   0.831   1.756  0.0101 -0.1375  0.0460
 6482W        W25336  14.972   8.276   1.305  0.1392 -0.0370 -0.5220
 6483W        W25337  13.006   5.148  14.931  0.1027  0.1860 -0.0982
 6484W        W25338   2.041  12.136   2.381  0.0097  0.4977 -0.1537
 6485W        W25339  15.851   8.253  15.588 -0.0134  0.0930  0.2505
 6486W        W25340   2.903   8.265   5.314  0.0753  0.0084  0.0127
 6487W        W25341   6.242  17.210   0.820 -0.2480  0.3049 -0.1445
 6488W        W25342  13.193   0.552  12.640  0.0892 -0.0964  0.2680
 6489W        W25343   4.637   5.407  14.704 -0.0053  0.2902  0.2103
 6490W        W25344   3.896  17.118  14.861  0.1974  0.0376 -0.0073
 6491W        W25345   6.075   5.240   3.883  0.0569  0.0750 -0.1194
 6492W        W25346   6.739   7.106   2.645 -0.2452  0.4077 -0.0507
 6493W        W25347  16.190   8.317   4.197  0.0601 -0.0338  0.0143
 6494W        W25348   2.664   0.030   2.390  0.0853 -0.0883 -0.1228
 6495W        W25349  16.245  13.927  16.319  0.1856  0.0039  0.0840
 6496W        W25350   5.414   5.138   1.951 -0.2264  0.1107 -0.0564
 6497W        W25351  14.022   6.237   5.198 -0.0465  0.0194 -0.2047
 6498W        W25352  13.272  13.675   4.945  0.2162 -0.0447 -0.3037
 6499W        W25353  17.257  13.072   1.653  0.1171  0.2940  0.3334
 6500W        W25354  15.661  16.087  13.587 -0.1037  0.0301 -0.0769
 6501W        W25355  11.487  13.915   3.011  0.0084 -0.3113  0.1044
 6502W        W25356   8.000  12.616   2.342 -0.2063  0.2790 -0.2961
 6503W        W25357  15.461  13.177  14.417 -0.3323 -0.1477 -0.1359
 6504W        W25358  15.339  15.329   2.801  0.0516 -0.1933  0.1000
 6505W        W25359   9.380  14.442  17.158  0.2315 -0.0347  0.2830
 6506W        W25360   4.129  14.045   2.678 -0.0213  0.0596  0.0579
 6507W        W25361   8.034   3.005  13.648  0.1447 -0.1650 -0.0271
 6508W        W25362   5.992  15.388   1.890 -0.2344  0.2666 -0.0648
 6509W        W25363   5.859  16.187  14.697  0.0335  0.2366 -0.1084
 6510W        W25364   5.214   0.265   1.573  0.1578 -0.1294 -0.0191
 6511W        W25365  15.697   8.761  14.662  0.2783  0.1809  0.2362
 6512W        W25366   3.425   8.281   5.429 -0.0101  0.1133  0.1480
 6513W        W25367   4.916  16.074   3.812  0.1426  0.1281 -0.2251
 6514W        W25368  11.805   2.327   1.868 -0.0484  0.2174 -0.1060
 6515W        W25369   6.837   5.507   3.235 -0.5422 -0.0930 -0.0573
 6516W        W25370   1.711  15.721  16.014 -0.2508 -0.2007  0.2696
 6517W        W25371   3.187  17.231  12.167  0.4260  0.2871 -0.1762
 6518W        W25372   0.206   3.340   2.729  0.1295 -0.0051  0.1102
 6519W        W25373   3.338   3.113  16.816 -0.1050  0.0998  0.0595
 6520W        W25374   3.913  13.291  15.252 -0.0900 -0.1290 -0.0674
 6521W        W25375   9.993  16.162  12.928 -0.0829 -0.0096  0.0219
 6522W        W25376   5.351  16.743   5.231  0.3129  0.2524  0.0169
 6523W        W25377  12.871   2.809   4.703  0.3519 -0.2564 -0.1022
 6524W        W25378  16.307   5.003   0.214  0.0308 -0.0877  0.1017
 6525W        W25379   9.163   7.507   4.358 -0.3837  0.0852 -0.0526
 6526W        W25380   3.178   9.908  15.424 -0.0354 -0.3191  0.1795
 6527W        W25381  14.180   5.905   3.578 -0.2213  0.1312 -0.1164
 6528W        W25382   0.972   9.081   4.456  0.3900  0.2494 -0.1739
 6529W        W25383   8.903  14.717   1.660  0.1410  0.0207 -0.2819
 6530W        W25384  13.569   4.444  16.153  0.2919  0.0397  0.6704
 6531W        W25385  17.309  13.867   0.252 -0.2005  0.1740 -0.0431
 6532W        W25386   8.846  14.508  13.140  0.0102 -0.1278  0.0281
 6533W        W25387  10.065  10.426  11.054 -0.0609  0.2321  0.0903
 6534W        W25388  17.199   8.618   3.116 -0.0694  0.0076  0.1077
 6535W        W25389  12.253  14.221   4.110  0.1478 -0.2227  0.3542
 6536W        W25390   4.320  16.556  16.198  0.2534 -0.3300 -0.2553
 6537W        W25391   1.885  12.657  16.271  0.0089  0.2255 -0.1224
 6538W        W25392   5.319   7.013  12.711 -0.0130 -0.1127 -0.1002
 6539W        W25393   6.558  15.680  12.098 -0.2264  0.0322 -0.2522
 6540W        W25394  16.738   3.633  16.769  0.0148  0.2766  0.0176
 6541W        W25395   5.787  10.031  17.206  0.0221  0.3263 -0.0550
 6542W        W25396   7.031   2.379   1.559 -0.1753  0.2504  0.0558
 6543W        W25397  14.802   7.714   1.494  0.0068  0.1324  0.0989
 6544W        W25398   3.111   7.152  14.031 -0.2317 -0.0622  0.1720
 6545W        W25399   9.015  15.408   1.138  0.1195 -0.0054 -0.1604
 6546W        W25400  16.034   0.047   4.921  0.1399  0.0665 -0.0633
 6547W        W25401   9.678  15.453  16.605 -0.0583  0.0829  0.0302
 6548W        W25402  15.681  14.887  15.005 -0.4989 -0.1620 -0.0710
 6549W        W25403   0.246  14.336  13.029 -0.1588  0.1290  0.1640
 6550W        W25404   9.130   5.539   4.875  0.1735 -0.1259  0.1586
 6551W        W25405  12.103  15.222   0.765 -0.1855 -0.3490  0.3281
 6552W        W25406  14.496  12.440   1.068 -0.5279 -0.1971 -0.1454
 6553W        W25407   9.984  16.282   1.289  0.3611 -0.1106  0.1753
 6554W        W25408  17.569   1.599  16.987  0.1513  0.1058 -0.0760
 6555W        W25409   4.512   5.433   0.844  0.1476  0.1017  0.0546
 6556W        W25410   8.603  13.383  13.878  0.0193  0.0097  0.1282
 6557W        W25411   0.201  14.867   1.729  0.0831  0.2460 -0.0997
 6558W        W25412  11.411   2.925  15.580 -0.0029 -0.0968  0.0965
 6559W        W25413   8.252  14.722  14.859 -0.2523  0.0974  0.0500
 6560W        W25414   1.824   1.051  12.558  0.0313  0.1920  0.0980
 6561W        W25415  10.610   2.200  12.642 -0.3402 -0.1254  0.1737
 6562W        W25416  11.853   7.752   0.318  0.4794  0.2888 -0.0175
 6563W        W25417  14.284  10.257   0.408 -0.2517  0.1340 -0.3729
 6564W        W25418   5.761   5.913   1.835 -0.2150 -0.0213 -0.0823
 6565W        W25419   5.307   2.461  13.494 -0.0967  0.1117 -0.3615
 6566W        W25420  13.516  10.276  12.720 -0.1015 -0.0479  0.0242
 6567W        W25421  14.046  17.580   3.573 -0.1944 -0.1706 -0.4456
 6568W        W25422  11.312  14.932   4.732 -0.1652 -0.1179  0.1224
 6569W        W25423  14.558   6.879   2.042  0.0595 -0.1063  0.0136
 6570W        W25424   9.656  16.362  15.434 -0.1291  0.2818  0.1967
 6571W        W25425  13.119  12.476  12.961 -0.0807 -0.0750  0.1250
 6572W        W25426   7.511  15.579  12.885 -0.0646 -0.0448 -0.4216
 6573W        W25427  10.121   8.670   3.145 -0.0347  0.0013 -0.0211
 6574W        W25428  15.517   4.440  13.292 -0.1182  0.0997  0.3130
 6575W        W25429  14.175   4.714  17.087 -0.3402  0.1200 -0.0203
 6576W        W25430   0.359   1.991  16.183 -0.2230  0.1504  0.1459
 6577W        W25431   0.973   3.994  14.488 -0.0057 -0.1705 -0.2482
 6578W        W25432  12.344   8.112   0.678  0.0474 -0.0699  0.2220
 6579W        W25433  17.165   4.987   0.756 -0.1880  0.2170 -0.0078
 6580W        W25434   2.020   8.331  13.941  0.0309  0.2625 -0.4102
 6581W        W25435   4.363  11.552  12.440  0.1008  0.1761  0.2224
 6582W        W25436  15.115   0.209   3.174 -0.1324  0.3276 -0.0229
 6583W        W25437   6.450   8.475   0.829 -0.0555  0.1321 -0.2593
 6584W        W25438  12.170   3.308  16.078  0.0391  0.3746  0.0050
 6585W        W25439   7.583   3.556   0.466  0.1043  0.1921 -0.1769
 6586W        W25440   1.573  12.018   3.805 -0.1893 -0.3523  0.0916
 6587W        W25441   4.182   3.884  12.960 -0.0936 -0.1027  0.1407
 6588W        W25442   9.628   4.541   4.883  0.0101 -0.0532  0.5189
 6589W        W25443  16.916  15.365  13.338  0.1557  0.0326  0.1191
 6590W        W25444   4.770  13.568   0.496  0.4112  0.1721 -0.0916
 6591W        W25445   2.630  16.378   4.387  0.0463 -0.3961 -0.1552
 6592W        W25446  12.137   8.983  15.211 -0.2009 -0.0282  0.0146
 6593W        W25447  14.847   4.901  12.997  0.1367 -0.3307  0.1825
 6594W        W25448   1.986  14.013   3.922  0.0507 -0.1174  0.5454
 6595W        W25449  11.434   2.427  14.763  0.0089 -0.1536 -0.1120
 6596W        W25450   2.397   4.053  13.454  0.0213  0.0569  0.0025
 6597W        W25451   0.994  16.582  13.297 -0.1998  0.2225  0.0035
 6598W        W25452   7.149   6.358  16.386  0.1745  0.0236 -0.0443
 6599W        W25453   2.871   2.266  15.607  0.1445  0.0070  0.0371
 6600W        W25454   0.333   0.510  14.300  0.2041 -0.0869  0.3018
 6601W        W25455   2.283  11.834   4.963  0.2048 -0.2810 -0.1370
 6602W        W25456   2.473  15.973  14.935  0.0968 -0.4038 -0.2669
 6603W        W25457   1.493   9.347   0.318 -0.2948 -0.0851  0.1026
 6604W        W25458   4.657   6.874  12.209 -0.1450 -0.0833  0.3700
 6605W        W25459   8.806   1.238  14.797  0.0997  0.3538  0.0073
 6606W        W25460   0.647  11.237   3.898 -0.1680  0.3096  0.3403
 6607W        W25461  11.391   1.225  14.288 -0.2098  0.1385  0.2387
 6608W        W25462  12.307   4.099  13.009  0.0237  0.1699 -0.0072
 6609W        W25463   1.505   2.691  14.491  0.2584  0.1661  0.0885
 6610W        W25464   9.645   8.490   1.070 -0.0467  0.2320 -0.0263
 6611W        W25465   3.856  12.069  13.691 -0.1098 -0.2320  0.1447
 6612W        W25466   9.370   2.770   5.053  0.1216  0.0086 -0.1297
 6613W        W25467   0.326  13.628   2.099 -0.0927 -0.1773 -0.1751
 6614W        W25468  12.483   4.579   2.036  0.0660  0.1021 -0.3762
 6615W        W25469   5.709   6.562   4.080  0.0166 -0.0716  0.3015
 6616W        W25470   2.374  15.512  12.872 -0.0419 -0.2034  0.4617
 6617W        W25471   4.406   3.239   1.377 -0.1463  0.4360 -0.3515
 6618W        W25472   5.714   7.664  13.212  0.1304 -0.1436 -0.0881
 6619W        W25473   4.844   5.708  15.523  0.1716  0.1839  0.0422
 6620W        W25474  12.493   7.937  17.149  0.2101  0.2388  0.0674
 6621W        W25475  11.177   6.518   3.775 -0.0195 -0.0839 -0.2863
 6622W        W25476   0.905   1.625   1.255 -0.1817  0.3077 -0.0279
 6623W        W25477   2.555   1.635   1.264 -0.1924 -0.1088 -0.3035
 6624W        W25478   6.380   2.314   2.989  0.1213  0.1323  0.1948
 6625W        W25479   4.197   5.035  15.454 -0.4652  0.0885  0.0051
 6626W        W25480  14.878   0.529   1.363  0.1348  0.0478  0.2281
 6627W        W25481  10.075  12.135  14.364 -0.0042 -0.2044 -0.4201
 6628W        W25482   4.293   0.695  12.442 -0.2036  0.3410  0.1200
 6629W        W25483   3.040   3.069  13.317 -0.1376 -0.2484 -0.1309
 6630W        W25484  16.722  13.350   1.288  0.2225 -0.1392  0.0101
 6631W        W25485  16.251   1.367  16.204 -0.1929 -0.3248  0.0360
 6632W        W25486  12.168  15.480  12.126 -0.4372 -0.0290 -0.0069
 6633W        W25487   1.489   2.324  13.991  0.1817  0.0760  0.3186
 6634W        W25488   8.219  12.503  16.242  0.0620 -0.0399  0.4821
 6635W        W25489   8.745   3.631   0.640  0.2814  0.1881 -0.2821
 6636W        W25490   1.349   6.090  16.253  0.3075  0.3298  0.0660
 6637W        W25491  17.234  10.824  13.639  0.0282  0.4739 -0.2693
 6638W        W25492   3.548  15.164  17.173  0.0940 -0.2114  0.2193
 6639W        W25493   0.861   7.396  14.441 -0.1312 -0.0461  0.3371
 6640W        W25494   9.041  17.078   5.535 -0.1693 -0.3519  0.1089
 6641W        W25495   7.669   2.171   5.094  0.1087 -0.1532 -0.1996
 6642W        W25496  17.158  16.791  12.204 -0.1859  0.0626 -0.3580
 6643W        W25497  12.599   3.487   3.332 -0.2344  0.1400 -0.3738
 6644W        W25498   0.663  16.181  12.355 -0.3111  0.0081 -0.0297
 6645W        W25499  16.968  13.646   0.613  0.0519  0.2605 -0.1991
 6646W        W25500   3.499  12.636   4.513  0.1786 -0.1497  0.2582
 6647W        W25501   7.106   3.100   0.026  0.0845  0.0098  0.1661
 6648W        W25502   2.294   8.921  14.686  0.0255 -0.1777 -0.1158
 6649W        W25503  13.745  17.251   0.449  0.0521 -0.4434 -0.2538
 6650W        W25504  15.034   9.687   0.633  0.1477 -0.0004 -0.2619
 6651W        W25505  11.963  17.105   2.653  0.0718  0.0187 -0.2173
 6652W        W25506   9.870  10.238  13.922 -0.3017  0.1580 -0.1910
 6653W        W25507   3.117   4.155  15.556 -0.0870  0.1310 -0.3866
 6654W        W25508  16.233   9.913   6.977 -0.1976  0.1975  0.1151
 6655W        W25509  15.941   1.143  14.873  0.0122  0.0252  0.2301
 6656W        W25510  17.514  10.252   4.697 -0.2030  0.3900 -0.1167
 6657W        W25511   2.067   5.578   2.626 -0.0503  0.2107 -0.0605
 6658W        W25512  17.096  16.440   6.019 -0.2847  0.0579  0.0232
 6659W        W25513   4.473   6.733  14.498  0.0169  0.1046  0.0894
 6660W        W25514   5.412   7.179   2.940  0.0315 -0.0343  0.2210
 6661W        W25515   8.532   1.312  13.783  0.2123  0.0184  0.1366
 6662W        W25516   4.712  11.891  12.889  0.2414 -0.0001  0.3151
 6663W        W25517   2.087  17.446   3.392 -0.1426  0.1116 -0.1678
 6664W        W25518   3.531   4.705  13.268  0.0910  0.0739  0.0383
 6665W        W25519   2.892   1.886  13.043 -0.1241  0.0312  0.0930
 6666W        W25520   6.497   5.644  12.676  0.0135 -0.1636  0.0346
 6667W        W25521  10.367   7.374   0.564 -0.0822 -0.0192  0.0348
 6668W        W25522   5.956  11.333  14.990  0.1480 -0.4514 -0.1806
 6669W        W25523   4.889  11.727  16.122 -0.4013 -0.0140 -0.1931
 6670W        W25524  10.125   4.337   2.518  0.0712 -0.0233 -0.1876
 6671W        W25525   5.003  15.168   1.343 -0.1696 -0.0500 -0.1368
 6672W        W25526   3.020   7.829   3.562 -0.0130 -0.2418 -0.0901
 6673W        W25527  11.648  16.389  12.472 -0.0834 -0.0202  0.1097
 6674W        W25528   9.407   2.020   4.879 -0.1246  0.1243  0.1530
 6675W        W25529   0.595   6.172   3.813  0.0808 -0.0614  0.0266
 6676W        W25530   2.836  17.248   0.375 -0.3074  0.2113 -0.1617
 6677W        W25531   5.248   5.036   5.031  0.3017 -0.0631 -0.0150
 6678W        W25532   3.518   5.221  17.049 -0.0441 -0.2147  0.2147
 6679W        W25533  11.319   5.156  11.889 -0.0976  0.0922  0.2905
 6680W        W25534   0.233   7.942  14.210 -0.1163  0.2306  0.0437
 6681W        W25535  15.938  11.598   4.283 -0.0433 -0.0896 -0.2455
 6682W        W25536   6.206   1.851   1.308  0.0599  0.0798 -0.2671
 6683W        W25537  10.311   5.524  14.475 -0.0176  0.1698  0.0378
 6684W        W25538   9.725   9.115   3.229  0.1554  0.0172  0.1525
 6685W        W25539   0.005   8.881   3.858 -0.0506 -0.1315 -0.0147
 6686W        W25540  16.099   8.293   3.603 -0.3652  0.3332  0.0330
 6687W        W25541   0.471   7.545  11.992 -0.0825 -0.0899 -0.4298
 6688W        W25542   8.953   8.943   2.584 -0.2556  0.4492 -0.1437
 6689W        W25543  17.398  15.626   4.251  0.2368  0.1602 -0.1948
 6690W        W25544  13.762   5.966  16.763  0.2704 -0.1880 -0.2194
 6691W        W25545   7.125   7.381   2.957 -0.1198 -0.0320 -0.1270
 6692W        W25546  14.375  10.535  14.955 -0.1747 -0.3879 -0.2971
 6693W        W25547  17.180   9.277   5.144 -0.3393  0.1509  0.3851
 6694W        W25548   6.800   3.183  12.713  0.1290 -0.0386 -0.1579
 6695W        W25549  11.529   1.204  15.574  0.0518 -0.0818  0.0257
 6696W        W25550   6.441   7.188  15.444 -0.0897  0.0651 -0.1194
 6697W        W25551   0.319  17.172   4.030  0.1561  0.0451 -0.2022
 6698W        W25552   1.327   6.531   4.960 -0.0032 -0.1736 -0.2482
 6699W        W25553  15.889   5.397  16.804  0.1293  0.1353  0.3462
 6700W        W25554  11.637  11.681   1.297 -0.0044 -0.1208  0.1619
 6701W        W25555  10.306  16.515  12.714 -0.0063 -0.1239  0.0880
 6702W        W25556   2.254  14.958   3.800  0.1353  0.1921 -0.0085
 6703W        W25557  14.445   0.616   1.089  0.0579 -0.0007  0.0944
 6704W        W25558   6.507   1.369   0.068  0.0150 -0.1301 -0.2276
 6705W        W25559  15.401  11.347   4.449  0.5123  0.2714 -0.1078
 6706W        W25560   2.900   0.434  15.770  0.1618 -0.0303 -0.2085
 6707W        W25561   8.964  12.633  12.933 -0.0572  0.0189  0.0248
 6708W        W25562  10.312  15.382   0.094 -0.0473 -0.3407 -0.0332
 6709W        W25563   9.089  15.729  12.271 -0.0606  0.2955 -0.1656
 6710W        W25564   0.528   2.043   0.315 -0.0862 -0.1270 -0.1526
 6711W        W25565  13.523   1.351  12.279 -0.1684 -0.1776  0.1910
 6712W        W25566  14.444   8.060  15.581 -0.2124 -0.0255 -0.1526
 6713W        W25567  14.877  16.405   3.529  0.0749 -0.2373  0.3027
 6714W        W25568  10.305  12.036   3.731 -0.0023  0.0158  0.0041
 6715W        W25569   0.773  11.966  15.064 -0.2246  0.3261 -0.3069
 6716W        W25570   1.451  11.533  17.202  0.1800  0.1153 -0.2485
 6717W        W25571   5.090   6.650  13.015 -0.0319 -0.0669 -0.1792
 6718W        W25572  13.956   0.546   4.489 -0.2802 -0.3071  0.0425
 6719W        W25573   0.080  16.130  13.799 -0.0821  0.1105  0.0290
 6720W        W25574   9.782   7.185  15.721  0.1766 -0.2934  0.1970
 6721W        W25575   4.566   1.594   2.400 -0.1437  0.0944 -0.1869
 6722W        W25576   5.862  17.287   1.106  0.1193  0.0443  0.0235
 6723W        W25577   2.710  14.707  17.122 -0.4118 -0.2184 -0.2039
 6724W        W25578  10.934   7.007   1.746  0.0329 -0.0138 -0.4382
 6725W        W25579   3.682  14.369  11.864  0.0107  0.0654 -0.0193
 6726W        W25580  14.821   9.396  15.518  0.1725 -0.2468  0.0652
 6727W        W25581  14.131  15.699   0.873 -0.0294  0.0076 -0.0759
 6728W        W25582  15.279   1.382  16.386 -0.0512  0.2255 -0.1995
 6729W        W25583  12.371   9.784   4.616 -0.2422  0.2497 -0.0312
 6730W        W25584  16.926   7.681   2.137 -0.2346  0.1792  0.1001
 6731W        W25585   6.656  16.079  13.768  0.1088  0.0511 -0.1545
 6732W        W25586  17.480  14.050  14.078  0.0631 -0.3300  0.3125
 6733W        W25587   1.321  15.159  12.656 -0.1427  0.0509  0.0817
 6734W        W25588  12.467   6.472  12.767 -0.0696 -0.1843  0.1133
 6735W        W25589   4.188   5.918  13.994 -0.3099  0.0119  0.3243
 6736W        W25590  12.950   2.371  12.888  0.2056 -0.3656 -0.1769
 6737W        W25591   8.336  10.931   1.379 -0.3320  0.0366  0.2494
 6738W        W25592   0.814   4.402   1.891 -0.1022  0.1138  0.2394
 6739W        W25593  15.472  16.136   5.616 -0.0276  0.1914  0.0210
 6740W        W25594   7.614  10.625   4.793 -0.2032  0.0231 -0.1307
 6741W        W25595   4.634  11.505  17.161 -0.0891 -0.1080  0.1115
 6742W        W25596   2.196   9.947   1.839 -0.0841 -0.0546 -0.0139
 6743W        W25597   5.890  15.367  15.864  0.2506  0.1870  0.0981
 6744W        W25598  15.575  16.477   2.919 -0.1885  0.1859  0.2011
 6745W        W25599   2.912  13.458   5.510 -0.0343 -0.0455  0.3301
 6746W        W25600  15.488   3.458   1.138  0.2270  0.1782  0.1705
 6747W        W25601   9.433  11.960   3.558  0.1698 -0.0226  0.0844
 6748W        W25602  12.147  12.895  14.638 -0.1692  0.3973  0.2463
 6749W        W25603   0.097  14.438   4.561  0.2392  0.3456  0.1330
 6750W        W25604   6.807   6.502  12.884  0.1071  0.0179  0.0671
 6751W        W25605  11.018   4.672   1.354 -0.1294 -0.0620  0.0515
 6752W        W25606   7.552  10.994  12.660 -0.1370 -0.0421 -0.1756
 6753W        W25607   8.415  13.481   2.607 -0.0872  0.0723 -0.0818
 6754W        W25608   7.496   2.431  14.068  0.1323 -0.0464  0.0540
 6755W        W25609   2.580  12.031   1.200 -0.1582  0.1206  0.0303
 6756W        W25610   3.234  13.164  14.355  0.1689  0.1207 -0.0110
 6757W        W25611   8.858  13.538   3.362  0.0621  0.1811 -0.2309
 6758W        W25612  12.424   2.865  14.136 -0.3974  0.1608 -0.1205
 6759W        W25613   7.772  10.979   0.812 -0.0278 -0.0217  0.0688
 6760W        W25614   3.278   6.375  13.077 -0.0516  0.1500 -0.0240
 6761W        W25615  12.093   4.347   4.082  0.4315 -0.3748 -0.0951
 6762W        W25616   1.162   7.827   4.233  0.1040  0.1381 -0.0149
 6763W        W25617  17.391   9.347  15.157 -0.0519  0.0196  0.3471
 6764W        W25618   1.667   8.596   2.391  0.2787 -0.4847 -0.1114
 6765W        W25619  13.248   0.234   3.419 -0.2500 -0.3123 -0.1197
 6766W        W25620   6.500  15.471   3.157  0.0647 -0.0574 -0.1215
 6767W        W25621   0.907   8.823   1.642  0.0814  0.0230  0.2271
 6768W        W25622   5.713  13.460   1.189 -0.1357  0.0162  0.0263
 6769W        W25623   9.426   1.674  12.383 -0.2530  0.2142  0.3192
 6770W        W25624  12.712  15.353   3.617 -0.1715 -0.1481 -0.0942
 6771W        W25625  13.179  12.762  12.370 -0.3299  0.0465 -0.2453
 6772W        W25626  11.894  11.646  15.974  0.2192 -0.0632 -0.2081
 6773W        W25627  10.510  13.542   4.246  0.0471  0.0430  0.1256
 6774W        W25628  14.657  12.221  13.006  0.2777 -0.0377  0.1495
 6775W        W25629  16.410  16.112   0.999 -0.6743  0.0434  0.0557
 6776W        W25630  12.074  17.168  16.765 -0.1916 -0.1528 -0.0430
 6777W        W25631   1.581   1.034  15.976 -0.1032  0.1777  0.0191
 6778W        W25632   0.212  14.383  14.025 -0.0987  0.0338 -0.0729
 6779W        W25633   3.854  15.509  15.633 -0.0154  0.2559  0.0860
 6780W        W25634  15.154   8.523   1.845  0.0249  0.0357  0.3052
 6781W        W25635   4.554   8.216  14.726  0.4411  0.1798  0.0723
 6782W        W25636   1.236  11.222   4.100 -0.1281  0.3044  0.3525
 6783W        W25637  15.888   3.528   5.130 -0.1671  0.2727  0.2251
 6784W        W25638   1.022  11.433   3.159 -0.2335  0.0043 -0.4851
 6785W        W25639  10.069  14.573   2.280 -0.1908 -0.3122  0.3549
 6786W        W25640   9.265  13.045   0.524 -0.2162  0.0546 -0.1512
 6787W        W25641   7.829   8.825   5.076  0.1539 -0.0613 -0.0760
 6788W        W25642  13.551   0.101   0.780  0.0908  0.0689  0.0568
 6789W        W25643   6.010   1.301   1.535  0.0747  0.0462  0.0530
 6790W        W25644  13.441  12.761  14.090  0.3363  0.0986 -0.2406
 6791W        W25645   4.820   6.191  15.667 -0.1543  0.0684  0.0605
 6792W        W25646  13.561  12.966  15.041 -0.2529 -0.0269 -0.0608
 6793W        W25647  16.003  13.930   0.384 -0.0623  0.0829 -0.0563
 6794W        W25648  14.403  11.566  14.482 -0.1520 -0.3776  0.0787
 6795W        W25649   5.972  11.232   0.936  0.0279  0.0098  0.1045
 6796W        W25650   6.350  11.577   0.330  0.2279  0.0507  0.0231
 6797W        W25651  15.288   4.942   3.518  0.1741  0.2634  0.3214
 6798W        W25652  10.455   7.276  16.942  0.0463  0.1600  0.0195
 6799W        W25653   7.629  16.203   1.515 -0.0280 -0.2445 -0.0280
 6800W        W25654   5.966  17.361  17.152  0.0312  0.0785 -0.1937
 6801W        W25655   8.930  16.829  15.772 -0.2030 -0.0525 -0.0560
 6802W        W25656  13.527   6.411  16.992  0.1642 -0.2142  0.0468
 6803W        W25657   1.017   5.155   3.387  0.0378 -0.1541  0.1392
 6804W        W25658   2.428   1.536   0.388  0.0021  0.0944 -0.1848
 6805W        W25659  16.826   8.905   2.940 -0.0496 -0.0319  0.0760
 6806W        W25660   0.646  14.203   1.019 -0.1468  0.1102  0.0873
 6807W        W25661   1.717   4.158  12.159  0.3307 -0.0949  0.3472
 6808W        W25662   7.934  12.694   3.554  0.1929 -0.2104  0.2493
 6809W        W25663  13.645   9.346  12.786 -0.0704  0.0518  0.0613
 6810W        W25664  11.702  10.398   3.512  0.3436 -0.0098 -0.2070
 6811W        W25665   2.029   3.177   3.780 -0.3725 -0.1275 -0.0062
 6812W        W25666   1.706   1.142  13.510  0.0049 -0.2047 -0.4267
 6813W        W25667   8.119   6.915   2.363 -0.2067 -0.0143  0.0693
 6814W        W25668   3.212  14.127  13.100 -0.1377  0.3753  0.2804
 6815W        W25669   4.622   7.773   5.118 -0.1223  0.0427  0.1102
 6816W        W25670  11.726   6.774  15.703  0.0005 -0.1220 -0.1518
 6817W        W25671   4.787  11.146   1.857  0.0068 -0.0980  0.3246
 6818W        W25672   2.759   7.109   3.399  0.2333  0.3322 -0.0024
 6819W        W25673   1.490  10.467  12.451  0.0756  0.0489  0.1232
 6820W        W25674   4.205  15.768   3.706  0.1060  0.1840 -0.1062
 6821W        W25675  16.007  14.283   2.919 -0.4994 -0.1910 -0.0840
 6822W        W25676  16.526   7.634   2.466  0.0621  0.0994  0.1617
 6823W        W25677   8.825   7.564  13.657 -0.0650  0.2734 -0.1926
 6824W        W25678   4.809  11.054   3.231 -0.0865  0.0760  0.0552
 6825W        W25679  12.584  12.816   0.011  0.0010 -0.1448 -0.0048
 6826W        W25680   8.129   0.440  13.678  0.0668  0.0161  0.0237
 6827W        W25681   3.822  11.353   1.077 -0.1470 -0.1454  0.1018
 6828W        W25682  13.408  11.692   3.103  0.1634 -0.2433 -0.1955
 6829W        W25683   9.836  14.580  14.076 -0.1850 -0.0365  0.1498
 6830W        W25684  16.038   4.310  12.261  0.1202 -0.0204  0.0474
 6831W        W25685   3.296  16.645  16.250 -0.0088  0.0228  0.2135
 6832W        W25686  12.829  12.925   3.767 -0.0150  0.0706  0.0705
 6833W        W25687  15.925  13.120  12.974 -0.0671 -0.0952 -0.2124
 6834W        W25688   0.376   4.831   3.376  0.4880  0.1753 -0.1645
 6835W        W25689  14.070   2.887  16.588 -0.0768 -0.2885  0.1593
 6836W        W25690   3.048  16.010   0.902 -0.2889 -0.2316 -0.0962
 6837W        W25691  12.091  11.328  12.821 -0.0128  0.2976  0.0209
 6838W        W25692   1.122   3.095  12.838 -0.1117 -0.1754  0.1355
 6839W        W25693   9.281  14.781   0.294 -0.0230  0.0350 -0.1973
 6840W        W25694   3.165  12.755   0.153  0.3765 -0.0033 -0.3807
 6841W        W25695  11.510   4.744   2.324 -0.4448 -0.0824  0.1303
 6842W        W25696   2.234   3.060  16.705  0.2703 -0.1258  0.3457
 6843W        W25697   6.683  12.875  16.778  0.0866  0.3727  0.0951
 6844W        W25698  14.528   6.436   1.750  0.0689 -0.0291  0.0073
 6845W        W25699   4.033   1.820   4.475 -0.2248 -0.1718 -0.1930
 6846W        W25700   1.489  13.214   3.139 -0.0064  0.0076  0.1117
 6847W        W25701  11.941  17.346   1.492 -0.2653  0.0855  0.1247
 6848W        W25702   9.725   8.625  13.897  0.1209  0.0028 -0.1891
 6849W        W25703   5.306  13.408  13.658 -0.1524  0.3541  0.3624
 6850W        W25704   4.766   0.456  12.463  0.4117  0.2160  0.4341
 6851W        W25705   5.713   8.047   4.309 -0.2288 -0.0514  0.2680
 6852W        W25706  10.118   1.066   1.440  0.1466  0.0810 -0.0461
 6853W        W25707  12.730  13.223   0.279  0.0273 -0.2519 -0.0337
 6854W        W25708   8.661   6.402  13.761  0.0045 -0.0842  0.0101
 6855W        W25709   0.831  14.968  12.504 -0.3095 -0.4002  0.0400
 6856W        W25710  15.805   8.965   3.522  0.1823  0.2059 -0.0287
 6857W        W25711   7.438  13.893  17.181  0.2637 -0.3151  0.1621
 6858W        W25712  16.448  13.980   2.987  0.0709  0.3559  0.0331
 6859W        W25713   1.917   3.814   1.801 -0.0379 -0.0326 -0.0861
 6860W        W25714   3.691   4.955   1.245  0.0656  0.0984 -0.2048
 6861W        W25715   0.797   0.418  14.524 -0.2625  0.0336  0.1105
 6862W        W25716   1.277   3.993   4.094 -0.0647  0.0078  0.0521
 6863W        W25717  11.436  17.589   4.873  0.1059 -0.0873 -0.2884
 6864W        W25718   6.002   7.376  15.320 -0.1465 -0.1671 -0.1602
 6865W        W25719   4.581   7.138  11.324  0.0777  0.2076 -0.0938
 6866W        W25720  12.402  15.952  15.362 -0.0858 -0.0559  0.1635
 6867W        W25721   3.167  12.374   1.739  0.1577  0.0340 -0.0780
 6868W        W25722  12.462  13.828  14.456  0.1481 -0.0480  0.0565
 6869W        W25723  12.304  13.500  13.976 -0.3725 -0.0724  0.1811
 6870W        W25724   7.788   5.465  12.232  0.1957 -0.0589 -0.1300
 6871W        W25725  13.498  16.966  16.778  0.0975 -0.0131 -0.0562
 6872W        W25726   1.540  17.036  13.663 -0.2101 -0.1948 -0.2420
 6873W        W25727   9.430  16.886  12.630  0.0236 -0.3493 -0.0106
 6874W        W25728   6.103   5.732   0.862  0.2724 -0.2402  0.0386
 6875W        W25729  15.404  10.212  12.873  0.3660 -0.3194  0.1603
 6876W        W25730  16.464  14.403   0.613  0.2239 -0.4046  0.0791
 6877W        W25731  15.375   9.063   1.730 -0.1127  0.1998 -0.0196
 6878W        W25732   5.871  16.427  14.260 -0.0101  0.0292  0.1266
 6879W        W25733  10.672  17.251   5.099  0.2069  0.0875  0.2025
 6880W        W25734  16.012   7.883   2.217  0.0986  0.3365 -0.0716
 6881W        W25735  11.855   1.938  13.840  0.2331  0.0695 -0.1196
 6882W        W25736  11.693   9.595  15.115  0.0656  0.0514  0.2450
 6883W        W25737  12.307  16.052   0.172  0.1615 -0.2152  0.0468
 6884W        W25738   5.948  13.751   0.702 -0.0269 -0.0943 -0.1775
 6885W        W25739   7.777   8.431  15.553  0.1515 -0.0348 -0.1014
 6886W        W25740   6.451   4.897   3.822  0.0365  0.1177 -0.1425
 6887W        W25741   0.951   0.506  17.145  0.2114  0.0067 -0.0290
 6888W        W25742   0.695   2.081  13.544  0.4676  0.0615 -0.0474
 6889W        W25743  12.272  10.002  16.976 -0.0588  0.0115 -0.3927
 6890W        W25744   5.694  10.453  15.987  0.0122 -0.0164 -0.0317
 6891W        W25745  11.477   3.567   1.248  0.1266  0.1897 -0.2345
 6892W        W25746  10.112  11.727   1.823  0.1667  0.2587 -0.2515
 6893W        W25747  16.609   6.107  16.812 -0.0656 -0.2579  0.1515
 6894W        W25748   9.886   4.395  13.705 -0.2131 -0.1300 -0.2357
 6895W        W25749  12.318   2.766  17.122 -0.1734  0.0788  0.0487
 6896W        W25750  13.694  15.609  16.665  0.1112 -0.2490  0.1321
 6897W        W25751   0.466   0.261   0.043 -0.2758 -0.2069  0.1971
 6898W        W25752  15.352  16.149  12.781  0.0670  0.0016  0.2660
 6899W        W25753   2.161  11.744   1.746  0.1095  0.0602  0.0946
 6900W        W25754   8.003   5.498   4.599 -0.3969 -0.0533 -0.0899
 6901W        W25755   8.040  14.771  16.557  0.2452  0.1752 -0.0147
 6902W        W25756  17.199   7.938  16.952  0.0748  0.0452 -0.0850
 6903W        W25757  12.984  12.649   0.345 -0.0121  0.3609 -0.0564
 6904W        W25758   6.254  14.714  13.233 -0.0733 -0.2070 -0.0178
 6905W        W25759   5.829  12.667   1.496  0.1454  0.1353 -0.1658
 6906W        W25760  11.869  11.908   1.700  0.0440 -0.4169  0.1452
 6907W        W25761  13.862   8.498   5.361 -0.1888  0.0782 -0.5197
 6908W        W25762   3.002   1.774  15.819 -0.2265 -0.0840 -0.3123
 6909W        W25763   6.210  16.347  13.871  0.1775  0.1246  0.1615
 6910W        W25764   6.612   2.719   5.348 -0.3990 -0.1934  0.0298
 6911W        W25765   9.957   2.102  12.888 -0.0393 -0.3301 -0.0854
 6912W        W25766   8.805  14.084   2.192 -0.1868  0.2656  0.3998
 6913W        W25767   9.772  12.793   4.109  0.2281  0.4786  0.1070
 6914W        W25768  10.531   9.215  15.887 -0.1821  0.1915 -0.1442
 6915W        W25769   8.682   8.785   2.983 -0.0483  0.4996  0.2492
 6916W        W25770  17.199  15.043   2.844 -0.0951  0.1228  0.2092
 6917W        W25771  10.566   2.486  11.969  0.0391 -0.0982  0.1773
 6918W        W25772   9.967  12.319   2.777 -0.0246 -0.0882  0.0471
 6919W        W25773   4.846  12.926   2.153  0.0633 -0.1800 -0.2928
 6920W        W25774   4.157  16.643   3.985 -0.2960 -0.1851  0.1399
 6921W        W25775  13.988  12.226   1.084  0.2250 -0.2650 -0.3346
 6922W        W25776  11.053  10.347   0.128  0.1601 -0.2179  0.0111
 6923W        W25777   1.344   3.894   0.903  0.1267  0.0847 -0.1058
 6924W        W25778  15.706  10.074   2.493  0.1458 -0.0630  0.3314
 6925W        W25779  15.634  10.377   1.557  0.1353 -0.2350 -0.1821
 6926W        W25780  13.161   7.820  15.956  0.0245 -0.2446 -0.0476
 6927W        W25781  11.162  11.352   2.669 -0.1430 -0.0996 -0.0549
 6928W        W25782  12.520   7.776   4.691 -0.0901  0.0248  0.2493
 6929W        W25783   4.231  11.187  12.998 -0.2407 -0.1936  0.1629
 6930W        W25784   2.968   6.761   4.677  0.1331  0.0345  0.0155
 6931W        W25785   7.702   1.987  14.199  0.0619 -0.1983  0.0816
 6932W        W25786   1.346  12.709  14.689  0.4030  0.2291 -0.2165
 6933W        W25787  17.283   3.659   3.988 -0.0762 -0.0741 -0.0445
 6934W        W25788   6.694  10.241   4.804 -0.0504 -0.0097  0.0721
 6935W        W25789  15.521   1.358  15.548 -0.1575 -0.0370  0.1034
 6936W        W25790  14.776   7.425  13.105  0.2371  0.0514  0.0059
 6937W        W25791  12.507   2.160   1.621  0.2127  0.2922 -0.4881
 6938W        W25792  17.512  10.159  14.857 -0.0700 -0.1303  0.0904
 6939W        W25793   3.485  15.540   1.705  0.2278  0.1915 -0.4867
 6940W        W25794  16.628   9.854   2.929  0.0612 -0.2410  0.2412
 6941W        W25795  14.891  11.327  16.981 -0.1936 -0.0011 -0.0328
 6942W        W25796   6.185   2.428   5.185 -0.2985  0.1690 -0.0284
 6943W        W25797   3.605  15.824   2.504 -0.2026 -0.1336 -0.1484
 6944W        W25798   1.025  11.026  15.508  0.1260 -0.0439  0.2233
 6945W        W25799   2.245   3.394   2.785  0.3407  0.1410  0.0535
 6946W        W25800   8.252   3.238  14.100 -0.1067  0.3262 -0.0532
 6947W        W25801   5.037   8.078  11.915  0.0329 -0.2602  0.2093
 6948W        W25802   4.457  14.451   2.271  0.2595 -0.1527 -0.1022
 6949W        W25803  16.877  11.272   1.668  0.3104 -0.1941  0.0136
 6950W        W25804   1.509   9.657  15.260  0.2525 -0.0200 -0.1371
 6951W        W25805  13.616   3.822  13.077 -0.4200 -0.0883 -0.3309
 6952W        W25806   4.368  15.526  14.499  0.4979 -0.1234 -0.0474
 6953W        W25807  13.228   5.928  12.402  0.2712 -0.2541 -0.0642
 6954W        W25808  10.217   3.666  12.833 -0.0027  0.0177  0.0609
 6955W        W25809   0.627  10.705  15.670  0.2532  0.1897  0.2607
 6956W        W25810  11.180  16.722  12.730 -0.2707 -0.0102 -0.2680
 6957W        W25811   5.272   1.069  12.379  0.0447  0.3848 -0.2809
 6958W        W25812  16.232  15.052  13.626  0.0823 -0.4184  0.0044
 6959W        W25813   4.046  16.791  14.015 -0.4678 -0.0611  0.2185
 6960W        W25814   8.891  14.701   3.868  0.0194 -0.3433  0.1178
 6961W        W25815   4.978  14.867  16.528 -0.2487  0.0116  0.1156
 6962W        W25816  13.897  11.989  13.880 -0.1966 -0.1661 -0.0454
 6963W        W25817  11.281  12.170   3.898 -0.0870  0.0492  0.2750
 6964W        W25818  13.895   2.573  13.386  0.2813 -0.1925  0.0900
 6965W        W25819  12.766   2.291   0.701 -0.1363 -0.1984 -0.1564
 6966W        W25820   9.999   9.628   0.223  0.0610  0.1804  0.0915
 6967W        W25821   6.432  17.195  12.238  0.1085  0.0014  0.0624
 6968W        W25822   7.970   7.705   5.034 -0.0083  0.0153 -0.1405
 6969W        W25823   8.747  10.361   0.340 -0.2567 -0.1705  0.1906
 6970W        W25824   3.667  16.032  15.668 -0.0227  0.0231 -0.3227
 6971W        W25825  15.398  14.112  17.041  0.0882 -0.0038 -0.2963
 6972W        W25826  17.306  12.013   3.209 -0.1422  0.0931 -0.0631
 6973W        W25827   6.766  14.533  17.172 -0.0677  0.1805 -0.2584
 6974W        W25828  12.318   1.359  15.119 -0.2989 -0.0785 -0.3319
 6975W        W25829   3.553  15.565  12.561 -0.2399 -0.1009 -0.4020
 6976W        W25830   5.292  13.090   4.247  0.2527  0.1772 -0.1751
 6977W        W25831  17.554   4.229  15.705 -0.0702 -0.1259  0.1440
 6978W        W25832   6.723  17.543   0.647  0.3893 -0.0050  0.1228
 6979W        W25833   0.166  14.648   2.299 -0.0340 -0.0634  0.0638
 6980W        W25834  10.584   5.529   4.804  0.1674  0.1120 -0.1238
 6981W        W25835  12.371  16.542  15.954 -0.2031  0.1958  0.1547
 6982W        W25836   9.879   5.357  14.534 -0.1502  0.0061 -0.0342
 6983W        W25837  14.041   3.407  14.192  0.0458 -0.0623  0.0160
 6984W        W25838   0.163   2.888  17.167 -0.2382 -0.1582  0.2125
 6985W        W25839  11.935   6.002   2.359  0.0629 -0.1353  0.0699
 6986W        W25840  11.413  15.028  16.402  0.0869  0.0226  0.2601
 6987W        W25841  15.353   8.993   5.433  0.0084  0.3836 -0.2135
 6988W        W25842  16.990   4.774  12.043  0.3100  0.2488 -0.3150
 6989W        W25843   3.055   5.496  15.592  0.0306  0.1384  0.0261
 6990W        W25844   7.699  12.145  13.327  0.0494 -0.0929  0.4671
 6991W        W25845  11.966  16.469   0.493  0.2936  0.0052 -0.0297
 6992W        W25846  16.075   6.372  15.256  0.2238 -0.0092 -0.0449
 6993W        W25847   5.678   6.389  15.249 -0.1376 -0.2875  0.2561
 6994W        W25848  13.019   0.515  12.187  0.2650 -0.0082  0.1176
 6995W        W25849   1.899  17.385  13.436  0.0895  0.0830 -0.0139
 6996W        W25850   6.162   6.514  14.371 -0.0384 -0.3474 -0.0859
 6997W        W25851  12.631   3.932   4.638 -0.0969 -0.1239 -0.0100
 6998W        W25852   9.140   7.845   5.196 -0.1322  0.0102  0.2848
 6999W        W25853   1.690   1.114   0.358 -0.1499  0.2628  0.1424
 7000W        W25854  14.523   6.782  16.251  0.4679 -0.0901  0.1198
 7001W        W25855  12.075  11.156   0.562  0.0622 -0.1001 -0.4319
 7002W        W25856   9.034   3.494   3.125 -0.1210 -0.0212  0.1554
 7003W        W25857   9.360   0.943   2.109 -0.1439  0.1324  0.1021
 7004W        W25858   4.427   9.279  14.772  0.1030  0.0030  0.2440
 7005W        W25859   6.781  17.068  12.558 -0.0172 -0.0197 -0.1096
 7006W        W25860  10.557  10.250   2.756  0.1861 -0.1249  0.0801
 7007W        W25861  17.253  14.825   2.405 -0.1654  0.2266 -0.1773
 7008W        W25862   4.753   4.502   2.425  0.1791  0.2859 -0.0436
 7009W        W25863  11.060   1.497  15.730 -0.1810 -0.1189 -0.1655
 7010W        W25864   5.827  11.984  13.440  0.4478 -0.0075 -0.0086
 7011W        W25865  15.524  12.405  15.049 -0.1160  0.3043 -0.1490
 7012W        W25866   7.256   1.507   3.944 -0.2206  0.1499  0.1770
 7013W        W25867  17.093  14.522  12.518 -0.1753 -0.1221 -0.0154
 7014W        W25868   7.358  12.969   2.990 -0.2296 -0.1790 -0.0238
 7015W        W25869   0.701  15.067  14.044 -0.1850 -0.1857  0.0190
 7016W        W25870  15.463  14.981   4.035 -0.1327  0.0464  0.0603
 7017W        W25871   7.308  14.665  13.360 -0.0007  0.0631 -0.0036
 7018W        W25872   7.901  12.045  11.848 -0.0626  0.1339 -0.2492
 7019W        W25873   6.685  13.389  15.094 -0.0927  0.2457 -0.1714
 7020W        W25874   3.125   0.571   0.284  0.0564  0.0178  0.1892
 7021W        W25875   6.065   2.623  17.187 -0.0628 -0.0054 -0.0463
 7022W        W25876   3.838  11.537  13.731 -0.2583 -0.0768  0.1976
 7023W        W25877  11.924   2.886   3.521  0.1025 -0.1064  0.3035
 7024W        W25878   0.446   8.902  14.649  0.2897 -0.1844  0.0466
 7025W        W25879   4.993   8.875   2.075 -0.0385 -0.3071  0.1398
 7026W        W25880  16.690   9.881   3.496  0.1110 -0.1231  0.1205
 7027W        W25881  16.401   7.201   4.417 -0.3225  0.0384 -0.0941
 7028W        W25882   1.507   0.460   0.948 -0.1561 -0.1577 -0.0240
 7029W        W25883   6.697   0.051   4.846 -0.1138 -0.1258  0.1032
 7030W        W25884  17.072  12.063  15.343  0.0228  0.1805 -0.1406
 7031W        W25885  15.079  15.196   2.363 -0.0602  0.0457 -0.4353
 7032W        W25886  12.314   7.533  12.998  0.1421 -0.1192 -0.2054
 7033W        W25887  10.401   2.895  15.733  0.1441  0.3177 -0.0131
 7034W        W25888   3.617   5.378  16.514  0.0081 -0.1379 -0.0617
 7035W        W25889  14.483   0.860  16.184 -0.2473  0.0547 -0.1218
 7036W        W25890   1.582  13.432   1.830 -0.0804 -0.2746  0.1404
 7037W        W25891  11.928   0.345  16.393  0.0382  0.3553 -0.0542
 7038W        W25892   5.231   7.387  15.135  0.0772 -0.0862  0.2554
 7039W        W25893  15.540  10.994   3.477  0.0445 -0.1827  0.0876
 7040W        W25894   4.219   1.863   5.321  0.0247  0.0580 -0.1667
 7041W        W25895  10.105   3.334   0.797  0.2239  0.1788  0.3266
 7042W        W25896  13.932  10.806   3.129  0.2861 -0.1509  0.0929
 7043W        W25897   2.814   8.542   2.970  0.2721 -0.2015  0.2721
 7044W        W25898  10.883   7.409   0.598 -0.0473  0.1620 -0.1364
 7045W        W25899  10.920  15.302   3.427 -0.2798  0.2519 -0.0304
 7046W        W25900   8.528  14.786  16.678 -0.2339 -0.1674 -0.2456
 7047W        W25901  15.340  13.421   4.327 -0.1900  0.0367  0.0190
 7048W        W25902   8.315   5.005   4.586 -0.0184 -0.3494  0.0154
 7049W        W25903  14.242  10.256  13.921 -0.1154  0.0314 -0.0610
 7050W        W25904  17.116  10.874   2.484  0.0487 -0.1863  0.3940
 7051W        W25905  16.192  13.254   3.357 -0.1524 -0.2462  0.2524
 7052W        W25906   1.892   7.196   2.533 -0.2368  0.0958  0.4548
 7053W        W25907  14.198   9.034   2.573 -0.1415  0.0211  0.0774
 7054W        W25908   7.848   3.148   3.073 -0.1218  0.0154 -0.1573
 7055W        W25909   5.756  12.209   5.316  0.1631 -0.0433  0.1853
 7056W        W25910   0.534   8.526   2.335  0.2221 -0.2093  0.3234
 7057W        W25911   8.483   2.084  13.021 -0.1124  0.0380  0.0148
 7058W        W25912   2.415   3.021  15.309 -0.3681  0.0604 -0.0207
 7059W        W25913   6.967  11.771   4.113 -0.2596  0.1608 -0.1935
 7060W        W25914   4.523   2.487  16.431 -0.1290 -0.0845 -0.0403
 7061W        W25915  11.685   2.715   2.641  0.1120 -0.1510 -0.0884
 7062W        W25916   7.870  13.265   4.236 -0.0007 -0.1653  0.1659
 7063W        W25917  14.398   2.708  16.914  0.1898  0.1357  0.0261
 7064W        W25918   6.299  12.321   0.560  0.1971 -0.1787 -0.2263
 7065W        W25919  13.973  10.408   2.769  0.1163 -0.2525  0.1881
 7066W        W25920  16.002  13.421   0.332  0.2259 -0.0446  0.0810
 7067W        W25921  11.874   0.621  15.172 -0.1603 -0.3912  0.1435
 7068W        W25922  13.685  11.295  15.885 -0.0685  0.1890  0.1163
 7069W        W25923   2.134  11.111   1.609  0.0579  0.0392 -0.3234
 7070W        W25924  12.544  10.964  13.644  0.0592 -0.0790  0.2881
 7071W        W25925   7.825  16.510   3.269  0.2064  0.1706  0.0245
 7072W        W25926  15.816   7.597   0.724 -0.1152 -0.2877  0.1052
 7073W        W25927  13.228   5.358  16.274 -0.1226 -0.0447 -0.0364
 7074W        W25928  12.888   2.767  14.445  0.3177  0.0567  0.0378
 7075W        W25929  15.968   9.399  11.996  0.0302  0.2326 -0.2627
 7076W        W25930   7.245  14.615   4.622  0.0902  0.1065 -0.0888
 7077W        W25931   2.797   7.363  13.726  0.1114 -0.1124  0.1380
 7078W        W25932  10.169  15.783   5.939  0.0108 -0.1481  0.1990
 7079W        W25933  10.072  11.165  14.258 -0.2370 -0.1343 -0.2145
 7080W        W25934  17.382  11.312   3.968 -0.1180  0.0227 -0.1047
 7081W        W25935  11.989  11.678   3.274  0.1459 -0.3485  0.0258
 7082W        W25936   5.017   8.751   0.908  0.0518  0.1055  0.1142
 7083W        W25937  13.619  16.702   4.405  0.0835 -0.0960  0.0455
 7084W        W25938   1.861   1.613  13.593  0.0982 -0.3479 -0.0767
 7085W        W25939   2.699   3.703   0.224  0.4311 -0.0628 -0.3577
 7086W        W25940   4.019   9.653  14.726 -0.1816 -0.3797  0.1077
 7087W        W25941   7.074   9.224   4.522 -0.0236 -0.2980  0.1554
 7088W        W25942   1.715  14.881   0.927  0.1377  0.1086  0.1040
 7089W        W25943   9.940   8.131  16.029  0.0648  0.0481  0.0089
 7090W        W25944   8.493   6.888  15.720  0.0143 -0.2743  0.2377
 7091W        W25945  12.933   4.681  15.655  0.4183 -0.0380  0.3672
 7092W        W25946   5.493  11.356   5.323  0.0592 -0.2042 -0.0246
 7093W        W25947   9.303  13.162   4.165  0.0410 -0.2442  0.0804
 7094W        W25948  12.243  15.505   5.419  0.1972 -0.0095 -0.1212
 7095W        W25949   8.306   3.505  16.460 -0.1387  0.2074 -0.1540
 7096W        W25950   9.200   8.325   0.633  0.0394 -0.2243 -0.0110
 7097W        W25951   5.698  12.035  14.071  0.0622  0.4557  0.1087
 7098W        W25952   2.087  15.549   3.004 -0.0107 -0.3561  0.1594
 7099W        W25953  10.949   5.002   2.875  0.0446  0.0524  0.1387
 7100W        W25954  11.303  16.829   1.784 -0.0426  0.1405  0.1507
 7101W        W25955   0.349  10.359   3.738  0.2456 -0.0777 -0.5372
 7102W        W25956   9.859   5.528  13.637 -0.0602  0.0093 -0.0559
 7103W        W25957   4.235  10.425   1.244 -0.0592 -0.4483  0.1120
 7104W        W25958   6.418  10.571  12.716  0.0533  0.0657 -0.0125
 7105W        W25959   6.534   4.636  14.204  0.4089  0.0194  0.1624
 7106W        W25960   4.122   4.639  14.527 -0.4966 -0.1186  0.1342
 7107W        W25961   4.608  16.241  16.509  0.3013 -0.0572  0.0744
 7108W        W25962  17.477  12.476  16.938 -0.1678  0.0160  0.0821
 7109W        W25963   7.346   5.738  12.986  0.2281  0.0712  0.2091
 7110W        W25964   3.946   3.450   5.041 -0.5520  0.0600  0.0312
 7111W        W25965  10.313  16.259   4.102 -0.1509 -0.2734 -0.0636
 7112W        W25966   5.296  15.429  15.931 -0.1338  0.2803 -0.0913
 7113W        W25967   3.100  12.954   1.147 -0.0577 -0.2045 -0.1109
 7114W        W25968   0.356   5.853  11.909 -0.0167 -0.0427  0.0223
 7115W        W25969  11.026   7.931  15.033  0.0125 -0.0028  0.0786
 7116W        W25970  13.686   1.078   1.676 -0.3129 -0.0800 -0.1210
 7117W        W25971   5.082  16.172  11.240 -0.0831 -0.1453  0.1923
 7118W        W25972   4.500  17.470  13.323  0.0283  0.1634 -0.1650
 7119W        W25973   2.152   5.168   3.540  0.0687  0.2382 -0.4025
 7120W        W25974   1.857  12.001   0.060  0.0239  0.0959  0.0457
 7121W        W25975   2.734  15.525  11.964  0.0845 -0.0768 -0.0244
 7122W        W25976   4.643   1.124   2.764 -0.2565 -0.3085  0.0515
 7123W        W25977   3.023  17.508  14.043  0.0300  0.2881 -0.1020
 7124W        W25978   2.304  14.131   5.363  0.0318  0.0079  0.2216
 7125W        W25979  14.892   1.146   2.525 -0.1317 -0.1229  0.1774
 7126W        W25980   8.739  14.352   0.755  0.1147  0.0107  0.1060
 7127W        W25981   7.879  12.848  15.762  0.1248  0.0112  0.1798
 7128W        W25982   3.465   2.137  15.641 -0.0361 -0.0671 -0.2611
 7129W        W25983   9.009   2.521  12.293 -0.0885 -0.1591  0.1015
 7130W        W25984   3.097   9.947   3.586 -0.1137 -0.1029  0.2644
 7131W        W25985   9.578   4.982  14.499 -0.0226  0.1533 -0.0290
 7132W        W25986  10.473   5.539   5.264 -0.4649 -0.1627 -0.0756
 7133W        W25987  11.066   0.656  14.799  0.2954  0.0521  0.1898
 7134W        W25988   4.780   8.911   4.045 -0.0586 -0.1769 -0.2891
 7135W        W25989   1.338  15.313   1.227 -0.1635 -0.0893  0.0540
 7136W        W25990  15.487  14.702  15.581 -0.0568  0.0769 -0.3062
 7137W        W25991  14.456   3.873   3.203  0.0025 -0.1899  0.0824
 7138W        W25992  12.380   9.254   4.750  0.3779  0.0496  0.1782
 7139W        W25993  16.769   8.523  13.254  0.0551  0.0337  0.1039
 7140W        W25994  16.712   3.036   2.387  0.0529  0.0356 -0.0945
 7141W        W25995  14.165  11.370  12.239 -0.0889 -0.1092  0.5030
 7142W        W25996  17.086   1.770  14.898  0.0023  0.0171  0.1329
 7143W        W25997  16.197   6.807   1.219  0.1180  0.1306 -0.3641
 7144W        W25998   9.598  12.815   2.454  0.0230  0.4187 -0.0223
 7145W        W25999   2.547  13.819   1.001 -0.0901 -0.2633  0.1181
 7146W        W26000   7.655   2.630   4.281 -0.2276 -0.0809  0.1012
 7147W        W26001   8.098   3.180   3.949 -0.0855  0.0409  0.0522
 7148W        W26002   4.602   1.897  16.304 -0.0414 -0.0393 -0.2764
 7149W        W26003  10.775  12.229   3.791 -0.0859  0.0795 -0.0548
 7150W        W26004   2.464  13.280   2.269  0.1037  0.0439 -0.2000
 7151W        W26005   4.006  10.488   3.726  0.0094  0.2730 -0.0062
 7152W        W26006   4.340  11.428   0.330  0.1584  0.0435  0.1061
 7153W        W26007  10.246   1.445   3.827 -0.1418  0.1944 -0.3326
 7154W        W26008   9.304  16.518  12.336 -0.1061  0.3342  0.2383
 7155W        W26009  17.239  16.850  12.989  0.1443 -0.2569 -0.3125
 7156W        W26010   2.374  12.322   1.960  0.0684  0.0335  0.4510
 7157W        W26011   7.512   3.677  15.272 -0.2733  0.1541  0.2588
 7158W        W26012  10.166   3.394   4.014 -0.0434  0.0098 -0.5713
 7159W        W26013  14.524   3.432   3.020  0.0355 -0.1917  0.0240
 7160W        W26014   8.212  15.546  17.042  0.2537  0.0386 -0.0202
 7161W        W26015  14.559  15.363   4.094 -0.0388  0.2772  0.0284
 7162W        W26016  16.978  12.432   2.323 -0.1208  0.1075  0.0361
 7163W        W26017  15.110  17.004  15.163 -0.1186  0.0645 -0.0233
 7164W        W26018   5.836   0.317   4.885 -0.0451 -0.1178  0.1913
 7165W        W26019  13.488  12.010   1.034  0.1757  0.2062  0.2184
 7166W        W26020   7.937  16.626   0.479 -0.1033  0.0875 -0.1489
 7167W        W26021   9.994   5.092  16.106  0.0889  0.3611 -0.1031
 7168W        W26022   7.873  10.131  15.557 -0.0260 -0.1062  0.4632
 7169W        W26023  17.198   4.000   1.636  0.3024 -0.3201 -0.0919
 7170W        W26024   0.701   4.613  16.081  0.1620  0.0029 -0.3163
 7171W        W26025  12.881   9.358   3.233  0.0775  0.0317 -0.1801
 7172W        W26026   8.386   0.686   1.904 -0.2905 -0.0655 -0.4870
 7173W        W26027   8.751  11.740   1.652  0.4611  0.3051  0.3356
 7174W        W26028   6.610   0.037   1.133 -0.3061  0.1002  0.2380
 7175W        W26029   7.951  13.873  13.183  0.1038 -0.0342  0.4057
 7176W        W26030   5.764  10.278  13.149 -0.1402  0.0274 -0.0382
 7177W        W26031  13.888  11.715   1.078  0.3474  0.0581  0.1700
 7178W        W26032   3.876  16.672   4.409  0.2758 -0.0495  0.1298
 7179W        W26033  16.587   6.183   3.368 -0.0361  0.0622  0.0423
 7180W        W26034  17.330   1.640  11.969 -0.0672 -0.0770 -0.1210
 7181W        W26035  10.961   3.655  13.538  0.0679 -0.1565 -0.0803
 7182W        W26036  17.583  15.717  15.823  0.1914 -0.2099  0.4608
 7183W        W26037  15.928   5.338  14.781 -0.0691  0.2438 -0.3509
 7184W        W26038  10.633  16.896  14.666 -0.0199 -0.0588 -0.0844
 7185W        W26039   8.855   8.562  17.048 -0.1673 -0.1810 -0.0975
 7186W        W26040   7.747   3.224   0.892 -0.0702 -0.0588 -0.1600
 7187W        W26041   7.748   0.529  16.724 -0.1218 -0.1442 -0.5174
 7188W        W26042  11.328   7.807   2.971 -0.2088  0.0967 -0.1923
 7189W        W26043  11.939  16.159   2.304 -0.0548  0.1860  0.0746
 7190W        W26044   5.649   4.802   4.696  0.1168 -0.2605  0.0275
 7191W        W26045  16.262   2.666  13.941 -0.0916  0.0540  0.1784
 7192W        W26046   1.401   2.892  15.323 -0.2843 -0.3446 -0.1834
 7193W        W26047  12.157   2.409   1.355  0.1311 -0.3012 -0.1201
 7194W        W26048  11.912  13.340  16.247 -0.2677 -0.1917  0.1565
 7195W        W26049  15.241  15.944  12.082  0.1751  0.0089 -0.0617
 7196W        W26050   5.133   1.058   2.973 -0.4146  0.2735  0.2788
 7197W        W26051  12.255  12.204  17.145 -0.2552 -0.0493 -0.1731
 7198W        W26052   2.374  14.032  14.628  0.3158  0.3501  0.0466
 7199W        W26053  14.639   2.062  16.183  0.3364  0.2060  0.0813
 7200W        W26054   2.005   9.126  12.174 -0.4988 -0.1616  0.2671
 7201W        W26055   1.974  13.593   1.545 -0.1217 -0.0694  0.1223
 7202W        W26056  16.738  14.976  13.619  0.1570 -0.0222  0.2522
 7203W        W26057   1.477   3.270  15.602  0.0208 -0.1131 -0.0679
 7204W        W26058  13.313   1.176   3.393 -0.0160 -0.2593 -0.0870
 7205W        W26059  11.399   7.589   1.187 -0.1637  0.1044  0.0492
 7206W        W26060  17.128  16.848   2.948  0.0834  0.0522 -0.0953
 7207W        W26061  11.038  15.536   2.924  0.2558  0.4630 -0.0163
 7208W        W26062   3.436  16.704   2.301  0.0522  0.0854 -0.2380
 7209W        W26063   3.057  11.923  14.529  0.1585  0.0557 -0.0394
 7210W        W26064   7.458   6.090  14.268  0.1860 -0.0251 -0.0709
 7211W        W26065   6.491   7.565  12.445 -0.3574  0.0831  0.2843
 7212W        W26066   8.092   7.736  15.899  0.2921  0.0562 -0.1861
 7213W        W26067   0.044   1.677  15.881  0.3261  0.3997 -0.2771
 7214W        W26068   9.702   0.121  16.633 -0.0298  0.2167  0.1539
 7215W        W26069  11.346   6.133   4.668  0.2622 -0.2075  0.0815
 7216W        W26070   1.730   6.919  12.218 -0.1176 -0.0025 -0.2433
 7217W        W26071  11.454   8.486  13.804  0.0789 -0.2363 -0.2560
 7218W        W26072   4.063   4.311   4.081 -0.0467 -0.0725 -0.0967
 7219W        W26073   6.294  15.166   5.265 -0.0485 -0.0124  0.2260
 7220W        W26074  17.520   7.180  14.646  0.0894 -0.2628 -0.1884
 7221W        W26075  11.542   3.571   0.649 -0.0183  0.4385  0.1794
 7222W        W26076   6.888   0.367   0.779 -0.0237  0.2160  0.3134
 7223W        W26077   8.627   2.725  14.734 -0.0329  0.0787  0.0253
 7224W        W26078  12.661  11.687   1.665 -0.1270 -0.2492 -0.0499
 7225W        W26079   7.443   8.439   1.027 -0.0439 -0.0377  0.0823
 7226W        W26080  17.247   2.873   4.167  0.1833  0.2237 -0.0493
 7227W        W26081  12.618   6.904  12.964  0.0156 -0.0278 -0.0327
 7228W        W26082   5.331   3.825   2.223 -0.1479 -0.1885 -0.2722
 7229W        W26083   6.690   1.279  13.001 -0.2577  0.0772  0.5456
 7230W        W26084   7.687   6.338   1.374  0.1414  0.0285  0.1092
 7231W        W26085   4.596   3.966   3.671  0.1156  0.1558  0.1713
 7232W        W26086  14.552  10.193   2.141 -0.1417 -0.2450 -0.1463
 7233W        W26087   3.407   5.679  13.263 -0.1888 -0.1240 -0.3187
 7234W        W26088  12.545   2.711   4.322 -0.1062  0.1785  0.2059
 7235W        W26089  15.601  10.385  14.319 -0.1860 -0.1080 -0.1661
 7236W        W26090  13.317  16.968   2.357 -0.3334 -0.0970  0.3547
 7237W        W26091  12.025   8.700   3.347  0.1349 -0.1839  0.0975
 7238W        W26092  14.635  16.407  13.800  0.2761 -0.1061 -0.0766
 7239W        W26093   0.172   1.664   1.606 -0.0111 -0.1934  0.0478
 7240W        W26094  13.910   8.169  15.479  0.1788 -0.1938 -0.0919
 7241W        W26095  16.649   6.220  15.433  0.0548  0.1684  0.0074
 7242W        W26096   8.747  14.172   3.108 -0.2390 -0.0926 -0.1969
 7243W        W26097   4.599  12.113   1.836  0.0487 -0.4153 -0.0371
 7244W        W26098  13.475  10.652   1.948  0.0247 -0.2566  0.1633
 7245W        W26099  15.651  17.557  15.564  0.1301 -0.2431 -0.2389
 7246W        W26100   7.151  13.040  16.494  0.0609 -0.0540  0.0012
 7247W        W26101   0.935   6.173  15.444 -0.1143  0.2803  0.2979
 7248W        W26102  10.089   5.625  12.763 -0.2213 -0.2263  0.1621
 7249W        W26103  15.433  16.901  15.947  0.0257  0.0436  0.0602
 7250W        W26104  14.933   8.162  15.105  0.0153 -0.2626  0.3170
 7251W        W26105  15.980   9.697   5.507 -0.0283  0.2931  0.2576
 7252W        W26106   3.860  11.656  16.377  0.1000 -0.2752 -0.3627
 7253W        W26107  13.491   4.794  14.829  0.0900  0.2589 -0.1908
 7254W        W26108   1.783   7.113  14.604  0.1176 -0.0691  0.2411
 7255W        W26109   6.887   5.781   1.537 -0.3664 -0.0081  0.1243
 7256W        W26110  11.518  15.942   3.698  0.0656 -0.0534  0.1586
 7257W        W26111  14.962  12.440   1.371  0.0720  0.1520  0.2407
 7258W        W26112  16.499   6.190  14.181  0.1083 -0.0969  0.1146
 7259W        W26113   2.455   7.071  14.691 -0.3653  0.2036 -0.2382
 7260W        W26114   4.366  13.106   3.460  0.2762  0.2006 -0.0079
 7261W        W26115  14.573   9.302  16.443 -0.2830  0.4827  0.1234
 7262W        W26116   0.122   2.885   0.726  0.0183 -0.1806 -0.1840
 7263W        W26117   6.653  17.524  12.642  0.1106  0.0459  0.2337
 7264W        W26118  11.426  12.529   4.348  0.1116 -0.2705  0.1826
 7265W        W26119  17.063  13.712   2.419  0.2829 -0.0704  0.4795
 7266W        W26120   7.373   8.168  16.256 -0.1344 -0.1830  0.2825
 7267W        W26121  12.166   2.932   0.410 -0.1931 -0.2794  0.1909
 7268W        W26122   7.524   1.557  13.006  0.1157  0.1141  0.0434
 7269W        W26123   2.811   5.966  15.580  0.1715  0.1020 -0.2003
 7270W        W26124  12.100   5.663  13.291  0.2510 -0.4384  0.2586
 7271W        W26125  13.323   5.491  16.808  0.0966 -0.0313  0.0530
 7272W        W26126   4.394  15.315   0.542 -0.0227  0.1939 -0.1765
 7273W        W26127   9.717   3.047   0.793  0.0186 -0.0310 -0.0099
 7274W        W26128  14.474   6.836   1.035  0.3896  0.0929 -0.0750
 7275W        W26129   5.206  10.984  13.796  0.0371  0.1240  0.1141
 7276W        W26130  16.945   5.917  17.157  0.0379 -0.2020  0.1657
 7277W        W26131   5.669  13.488  16.052  0.1874 -0.3854  0.1945
 7278W        W26132  15.877   6.296  10.814 -0.3352 -0.1827  0.0504
 7279W        W26133  16.177  16.517   2.085 -0.2985  0.1501  0.0770
 7280W        W26134  11.762   9.489   2.872  0.2982  0.0475 -0.0206
 7281W        W26135   8.274   8.661  15.536  0.1172  0.1142  0.2410
 7282W        W26136   7.689   5.831   4.945  0.2995 -0.0296 -0.0394
 7283W        W26137   9.132  15.632  15.360  0.1400 -0.0964 -0.0512
 7284W        W26138   9.103  10.410  16.218 -0.1539  0.0154 -0.0884
 7285W        W26139   6.357   4.356  13.679  0.0708 -0.0374  0.0492
 7286W        W26140   2.407  14.343   3.016 -0.2761 -0.0336  0.0778
 7287W        W26141  10.366  10.897   4.517 -0.0105  0.0883  0.3257
 7288W        W26142   7.922  15.352  11.862 -0.0276  0.0017 -0.3610
 7289W        W26143  10.217   2.820   0.926  0.0034 -0.0154  0.1763
 7290W        W26144  17.118  13.027   0.647 -0.0834  0.1353  0.1283
 7291W        W26145   9.376   2.937   3.533 -0.1198 -0.0997 -0.1222
 7292W        W26146  14.703  12.913  13.604  0.0561 -0.3359  0.2813
 7293W        W26147   9.765  14.782   0.641 -0.0284  0.0065  0.1536
 7294W        W26148  11.794  12.054  17.028  0.1113 -0.2326 -0.0509
 7295W        W26149   1.324  14.347  14.871 -0.0842 -0.0595  0.1251
 7296W        W26150   0.065  12.020  16.760 -0.0909  0.1150 -0.2043
 7297W        W26151   7.183  14.146   4.920 -0.0003  0.1253 -0.1290
 7298W        W26152  15.771  14.031  16.283  0.2639 -0.0151  0.0007
 7299W        W26153  11.094  16.940   4.329 -0.0892  0.2541 -0.2053
 7300W        W26154  11.040   7.721   1.695 -0.0727 -0.1687  0.0607
 7301W        W26155   1.765  11.829   2.039 -0.2357 -0.2435 -0.0706
 7302W        W26156   3.946   1.264  16.275  0.3906  0.1988  0.0197
 7303W        W26157   0.892   9.870  14.958  0.2369 -0.1198 -0.4402
 7304W        W26158   1.523   3.274  14.276 -0.0980  0.0031 -0.2896
 7305W        W26159   2.052  16.299  13.801  0.2298 -0.2736 -0.0224
 7306W        W26160   2.709   7.390   3.867  0.3576  0.1127  0.1337
 7307W        W26161  13.038   4.917  12.184  0.1810  0.1229 -0.0380
 7308W        W26162  13.317   6.783   4.209 -0.2860  0.2693  0.0774
 7309W        W26163  16.048   9.219  16.293  0.1034 -0.1395  0.2013
 7310W        W26164  11.122   3.822  12.636 -0.1738 -0.0329 -0.1326
 7311W        W26165  15.881   7.251  12.264 -0.0412  0.3114 -0.0013
 7312W        W26166   3.377   8.567   3.006  0.0490 -0.2611  0.1023
 7313W        W26167  10.236   7.751   3.595 -0.1183 -0.3149 -0.1322
 7314W        W26168   5.093  17.468  12.446  0.0333  0.1103  0.2636
 7315W        W26169   4.395   6.119  16.566  0.0552 -0.2214  0.3052
 7316W        W26170  11.728  13.254  15.095  0.1019  0.0095  0.1157
 7317W        W26171  14.595   3.463  11.986  0.2095 -0.1787  0.0579
 7318W        W26172   8.865  17.048   0.141  0.0203 -0.0230 -0.0949
 7319W        W26173   0.174   6.943   1.203  0.4523 -0.1137 -0.1430
 7320W        W26174   4.614   5.380  16.267 -0.1746 -0.0375 -0.2432
 7321W        W26175   4.797   5.613   2.924  0.0818 -0.1053 -0.2347
 7322W        W26176   4.661   8.929   4.641 -0.0529  0.4246 -0.0322
 7323W        W26177   3.320   6.179   1.187 -0.2950  0.2481 -0.2100
 7324W        W26178  14.764   8.591  16.143  0.0218 -0.0373  0.0626
 7325W        W26179   1.076   8.290   4.879 -0.0299 -0.0569 -0.0340
 7326W        W26180   3.011   7.545   1.264  0.1974  0.1602  0.2290
 7327W        W26181  10.462   9.596   1.557  0.0818  0.2147  0.1581
 7328W        W26182  15.628   1.720   4.430  0.0422  0.0171 -0.2247
 7329W        W26183  10.045   5.513   1.831  0.2433 -0.2292 -0.2197
 7330W        W26184   8.123   2.872  16.997  0.0242  0.2578 -0.1765
 7331W        W26185   0.843  10.810  16.439 -0.0741 -0.0469 -0.0053
 7332W        W26186  11.652   0.022  13.337  0.3432 -0.2451 -0.2651
 7333W        W26187   4.943  11.569   3.401 -0.0371  0.0825  0.1679
 7334W        W26188   1.773   9.983  15.519 -0.0263 -0.0495 -0.3400
 7335W        W26189  15.033   6.939   4.270 -0.3214 -0.1180  0.1565
 7336W        W26190  12.099  12.027  15.715 -0.0266  0.1334  0.0916
 7337W        W26191   1.761   2.731  13.500  0.0039 -0.2199 -0.1267
 7338W        W26192  16.327  11.209   2.595 -0.0434 -0.2882  0.0609
 7339W        W26193   7.160  12.681  16.101  0.0353 -0.2642 -0.3550
 7340W        W26194   9.575   0.685   4.968 -0.1788 -0.2714 -0.0324
 7341W        W26195   5.883  13.310   4.921 -0.1500 -0.4942 -0.0358
 7342W        W26196   7.014  11.874   0.235 -0.2772 -0.2437 -0.1424
 7343W        W26197  15.659   3.368   3.829  0.0501 -0.0390  0.3692
 7344W        W26198   7.776   8.959   2.701  0.0643  0.1920  0.0482
 7345W        W26199  11.516  11.152   0.024 -0.0752  0.1747  0.1029
 7346W        W26200   3.987  14.832  16.399  0.2721 -0.1166  0.2955
 7347W        W26201  12.636  13.097  14.062  0.0009 -0.0367 -0.3390
 7348W        W26202   6.617  10.247  16.408  0.1556 -0.1407  0.0657
 7349W        W26203   2.410  12.311  15.289 -0.0921 -0.0275 -0.0235
 7350W        W26204   7.396   8.609   2.046 -0.1722  0.0377  0.1033
 7351W        W26205   7.454  11.058   3.096  0.0087  0.0347 -0.0330
 7352W        W26206   4.814   8.692   5.165 -0.1490  0.1380 -0.0669
 7353W        W26207  17.255  13.991   2.734 -0.2060  0.0399  0.2821
 7354W        W26208  10.784   1.158   0.459  0.0373 -0.2789 -0.0782
 7355W        W26209  14.242   8.025   3.730  0.0338  0.0119 -0.1200
 7356W        W26210  16.922  17.434   2.345 -0.0119  0.0107 -0.3310
 7357W        W26211   3.515   2.802  12.533  0.1395  0.1065 -0.1041
 7358W        W26212  15.121  13.380  15.919 -0.1052  0.2976  0.0390
 7359W        W26213   4.640   3.921   4.859 -0.3815  0.4403  0.0378
 7360W        W26214  10.701   1.513   2.707 -0.1445  0.0104  0.2850
 7361W        W26215  12.814  13.458   4.872 -0.1398  0.0290  0.2381
 7362W        W26216  17.327   8.076   3.772  0.1455 -0.2643 -0.0547
 7363W        W26217  12.546   2.826  14.862  0.3792  0.2112 -0.1052
 7364W        W26218  14.265  15.380  15.332  0.1498  0.0007 -0.1745
 7365W        W26219   2.132  10.534   0.403  0.1462 -0.2926  0.0423
 7366W        W26220  13.870   3.358   1.826 -0.0584 -0.0802  0.2648
 7367W        W26221   4.746   1.290   4.231 -0.1897  0.2434  0.2582
 7368W        W26222   6.427  12.895   0.446 -0.0470  0.0847  0.2210
 7369W        W26223   1.437  15.625  12.701  0.1856 -0.1510 -0.0449
 7370W        W26224  16.087  16.180  14.817  0.0562  0.0941 -0.1024
 7371W        W26225  15.297  13.754  13.122 -0.2743 -0.0768  0.0531
 7372W        W26226   2.267  11.278  17.098 -0.0561 -0.0259  0.0403
 7373W        W26227   9.380  10.653  14.384  0.1204  0.3032 -0.1588
 7374W        W26228  13.636  11.880   3.643  0.1233 -0.0341  0.0567
 7375W        W26229  13.089   8.322  14.799  0.0142 -0.0377 -0.0572
 7376W        W26230   0.223  15.345  14.076  0.0648  0.0410  0.2301
 7377W        W26231  17.564  10.180   1.189  0.2312  0.0505  0.0006
 7378W        W26232  12.713   4.446  17.218  0.1260  0.2781 -0.1379
 7379W        W26233  14.513  15.032  12.641  0.0754 -0.0026  0.0756
 7380W        W26234  16.178   5.720  14.396 -0.3407  0.0978  0.1401
 7381W        W26235   7.809  10.040  11.382  0.4737 -0.1959  0.4823
 7382W        W26236  17.598   8.801   3.363  0.1556  0.1709  0.1099
 7383W        W26237  16.621   1.018   4.313  0.0486  0.1348 -0.0537
 7384W        W26238   9.281   4.992   4.113  0.0453 -0.7009  0.2066
 7385W        W26239  10.345   5.008  15.628  0.2454  0.2539 -0.1545
 7386W        W26240   2.976   7.649  14.130 -0.0145  0.0210 -0.0294
 7387W        W26241  12.050  12.087  14.336  0.0172  0.0746  0.0615
 7388W        W26242   4.446  12.341   5.181 -0.0464 -0.0326 -0.0973
 7389W        W26243   6.415  15.057   1.337  0.0710  0.2269  0.0805
 7390W        W26244  12.320  14.072   3.644  0.1453 -0.1877 -0.2221
 7391W        W26245   8.425   5.919   1.227  0.1305  0.0903  0.0137
 7392W        W26246   7.903  13.860  16.469 -0.2725  0.0778 -0.3412
 7393W        W26247   1.199   7.790  15.666 -0.4077  0.0504  0.2596
 7394W        W26248  14.488   2.198  11.787  0.1390  0.0243  0.0328
 7395W        W26249   6.188   3.422  14.625 -0.1096 -0.0155 -0.0011
 7396W        W26250  10.748   9.177   1.799 -0.0961  0.2118  0.0722
 7397W        W26251   6.259   9.026   0.120 -0.1775  0.2399 -0.0663
 7398W        W26252  14.244  12.912   0.162  0.0503 -0.0567 -0.0396
 7399W        W26253   3.138   5.023  12.543 -0.1365 -0.0322 -0.4625
 7400W        W26254   3.191  12.257   0.000  0.0974 -0.2244  0.2207
 7401W        W26255   0.269   5.997  13.732  0.1832  0.0048 -0.3359
 7402W        W26256   2.081   2.819   1.525  0.1928  0.0880  0.2956
 7403W        W26257  14.436   8.736   5.963 -0.0612  0.1716 -0.1412
 7404W        W26258   7.053  14.181   4.412  0.1673 -0.0349 -0.2247
 7405W        W26259   2.190   5.785   4.534 -0.3740 -0.0140 -0.2717
 7406W        W26260  12.734  10.112   2.146 -0.1654  0.4271 -0.0831
 7407W        W26261   8.071   2.697   4.072  0.0707  0.0387 -0.1866
 7408W        W26262   4.297  16.884  12.188  0.4753 -0.1205  0.0691
 7409W        W26263   0.897   5.306   1.806 -0.0390  0.1069 -0.1639
 7410W        W26264   0.653   3.489   2.433  0.2068  0.1148  0.3535
 7411W        W26265   4.502   8.576  16.428 -0.1032 -0.0797  0.1323
 7412W        W26266   9.129  10.465   1.359  0.1723  0.1259 -0.0537
 7413W        W26267  15.074   5.358   3.234 -0.0039 -0.0057  0.1809
 7414W        W26268  12.830  11.659  13.234  0.0019  0.1035  0.1351
 7415W        W26269   8.032   4.364  13.605  0.1074 -0.0259  0.3494
 7416W        W26270   6.386   7.485   4.724  0.2504  0.0174 -0.2126
 7417W        W26271   9.263   5.026   2.603 -0.4816 -0.0868 -0.0549
 7418W        W26272  15.592   6.217   2.413  0.1120  0.0084  0.0149
 7419W        W26273   3.987  15.193  12.425  0.2021 -0.2169 -0.0608
 7420W        W26274  14.125   5.100  13.238  0.1541  0.3731 -0.0513
 7421W        W26275   4.838  12.948   3.420  0.0428  0.2663 -0.0814
 7422W        W26276   3.045   6.397   4.300  0.2940 -0.1634  0.1148
 7423W        W26277  14.874  11.135  15.167 -0.3435  0.1468  0.0855
 7424W        W26278  13.426  14.610   3.939 -0.0027 -0.2236 -0.0444
 7425W        W26279  10.870  16.502   1.853 -0.1406 -0.3654  0.0564
 7426W        W26280   2.098  14.232   3.373  0.0932 -0.0955  0.0245
 7427W        W26281   2.330  15.488   1.000 -0.2780  0.0589 -0.0020
 7428W        W26282   6.970   4.115   2.724 -0.1431 -0.3460 -0.2345
 7429W        W26283   4.501   5.058   0.108  0.1240 -0.1779 -0.1754
 7430W        W26284   8.844  16.706   0.530  0.0841 -0.2335 -0.0842
 7431W        W26285   1.954  13.264   0.078 -0.2272 -0.0311  0.0181
 7432W        W26286  10.596  10.006  13.386  0.1756 -0.0851 -0.0408
 7433W        W26287   6.780  16.308   3.311 -0.0145  0.0166 -0.0092
 7434W        W26288  12.718   8.069  12.383  0.1747 -0.0355 -0.3472
 7435W        W26289   5.566   2.817  16.723 -0.0596 -0.1123 -0.2209
 7436W        W26290  13.026  10.540  16.831  0.1224  0.0714  0.0341
 7437W        W26291   2.922   9.070  15.104  0.1045 -0.0496  0.0956
 7438W        W26292   7.109   5.356   5.520  0.0938 -0.2236  0.0119
 7439W        W26293  13.518  15.416  12.530 -0.0106 -0.1529  0.2133
 7440W        W26294  12.373  13.785  15.102  0.0334  0.2201 -0.3192
 7441W        W26295  15.930   0.589   4.980  0.3748 -0.2290 -0.1088
 7442W        W26296   4.059  17.356  12.248  0.0900 -0.0222 -0.1289
 7443W        W26297  13.581   6.932  16.590 -0.0859 -0.1346 -0.0223
 7444W        W26298   6.905   9.257  16.101 -0.2222 -0.4789  0.1912
 7445W        W26299  10.087  11.659   1.321 -0.1050 -0.1558  0.1460
 7446W        W26300   4.137  14.135  11.905 -0.3466 -0.1928 -0.0630
 7447W        W26301   3.361   1.933   4.601  0.2143  0.1076  0.0341
 7448W        W26302   3.530   2.672   4.619 -0.0055  0.0280 -0.0479
 7449W        W26303   3.078  10.384   5.198  0.1460 -0.0937  0.2712
 7450W        W26304   0.574  14.590   4.802  0.2072 -0.2866  0.3522
 7451W        W26305   6.018  12.924  15.497  0.3323 -0.2081  0.0283
 7452W        W26306   3.657   9.375   2.385  0.0388 -0.0806 -0.0554
 7453W        W26307   2.467  10.438   4.641  0.4800 -0.0782 -0.2361
 7454W        W26308  11.875   9.819   0.007  0.1287 -0.0738 -0.2710
 7455W        W26309  11.877   0.029   2.847 -0.4226  0.0038 -0.1397
 7456W        W26310   3.318   2.084   1.233  0.0836  0.0848 -0.1970
 7457W        W26311  15.730   1.694  14.580  0.0915  0.1351 -0.0896
 7458W        W26312   9.354   0.495   0.216 -0.2397 -0.1049  0.1352
 7459W        W26313  14.009   0.536  14.238 -0.0772 -0.0394 -0.2873
 7460W        W26314   9.015  12.877  16.249 -0.1241 -0.2171 -0.0895
 7461W        W26315   9.919  10.263   3.317  0.3464  0.1662 -0.0638
 7462W        W26316  15.642   0.713  15.594  0.0655  0.0758 -0.0824
 7463W        W26317   7.302  14.371   2.470 -0.0046 -0.0506 -0.1287
 7464W        W26318   3.659  10.686   2.640  0.1796 -0.1507 -0.0597
 7465W        W26319  15.725  13.585  13.886 -0.3911  0.1024  0.0932
 7466W        W26320  10.696   3.964   4.507  0.0835  0.4607 -0.1065
 7467W        W26321   5.376  13.614   1.557 -0.0270 -0.2046 -0.2437
 7468W        W26322  16.153  15.617   0.855 -0.1603  0.2790 -0.1337
 7469W        W26323  16.434   4.403   3.282 -0.1726  0.1572 -0.3603
 7470W        W26324  14.097   4.592  15.601 -0.1149 -0.0288  0.1792
 7471W        W26325   4.559   6.725   1.275  0.2046  0.0405 -0.0343
 7472W        W26326   4.741   2.540  12.991  0.0467  0.2125 -0.0134
 7473W        W26327  15.790   3.772   2.702  0.1360  0.0123  0.1357
 7474W        W26328  14.510  16.198  14.827 -0.2551  0.0966  0.1771
 7475W        W26329  11.318  15.745   4.603  0.3285 -0.0564  0.2113
 7476W        W26330  13.755   5.526   3.041 -0.2146  0.0906 -0.4953
 7477W        W26331   3.585   6.222   2.985  0.1292 -0.2305 -0.2005
 7478W        W26332   1.943   1.640   1.334 -0.1214 -0.0801 -0.1554
 7479W        W26333  12.695  13.521  14.797  0.0155  0.1205  0.1587
 7480W        W26334   2.016  14.689   3.012  0.0595 -0.1959 -0.0095
 7481W        W26335  11.766  15.409  12.536 -0.1870 -0.4232  0.1185
 7482W        W26336   1.658   9.719   0.725  0.1006 -0.1880  0.5545
 7483W        W26337  13.471   6.985   1.221  0.3103  0.0594 -0.1187
 7484W        W26338  13.998   5.761  16.078 -0.0300 -0.3592  0.2851
 7485W        W26339  10.890   0.511   1.179  0.0510 -0.2690  0.1123
 7486W        W26340   2.550  11.771  16.278 -0.2525 -0.1040 -0.3124
 7487W        W26341  17.123  15.965   3.990 -0.0762  0.0186 -0.3608
 7488W        W26342   9.026   2.016  13.871  0.1451  0.2371 -0.2829
 7489W        W26343   8.369   3.025   2.634 -0.1985  0.1668  0.1647
 7490W        W26344   1.514  13.826   1.342  0.1122  0.3198 -0.0282
 7491W        W26345  14.683   7.156  14.976  0.2421 -0.0540  0.0864
 7492W        W26346   9.526   6.882   3.834 -0.2398 -0.1430  0.1948
 7493W        W26347   5.579   3.730   0.771  0.1202  0.0774  0.1070
 7494W        W26348   3.001  15.170   1.598 -0.1247 -0.0500 -0.0211
 7495W        W26349   9.810   7.706   2.236  0.0233 -0.2484  0.0904
 7496W        W26350  14.421   3.519  14.946 -0.1852 -0.1539  0.1938
 7497W        W26351   4.218  11.619  14.444 -0.0856 -0.1047 -0.0628
 7498W        W26352  16.337  11.895  16.769  0.1998 -0.1637 -0.0066
 7499W        W26353  15.635   0.523  14.344 -0.0138 -0.0593 -0.0632
 7500W        W26354   7.681  12.778  14.069  0.0459  0.2634 -0.0462
 7501W        W26355   5.675   6.471   5.410  0.2496  0.0984  0.0577
 7502W        W26356   9.185   1.745   0.768 -0.3306 -0.3276  0.0887
 7503W        W26357   3.440   4.571   4.782  0.1716 -0.6040 -0.0878
 7504W        W26358  11.530  11.299   3.559 -0.3696  0.1476  0.1284
 7505W        W26359  17.512  16.654  16.803  0.0806  0.2417 -0.2920
 7506W        W26360  12.236  11.295   2.300  0.1839  0.0274  0.0729
 7507W        W26361  14.530   0.378  12.616  0.1299  0.3081 -0.0116
 7508W        W26362   7.822   1.209  15.510  0.1186  0.0356 -0.0544
 7509W        W26363   8.071  13.966  14.385  0.1485  0.1641 -0.1350
 7510W        W26364   4.143   3.063   4.605  0.0204  0.2808 -0.3573
 7511W        W26365   1.466   9.955  14.230  0.1741 -0.2198  0.2069
 7512W        W26366   6.526  13.148  12.386  0.1002 -0.2042  0.3792
 7513W        W26367  11.540   6.316   0.903  0.0689 -0.2947  0.0678
 7514W        W26368   3.204  15.553   2.493 -0.1258 -0.0852  0.2414
 7515W        W26369   3.790   7.173  16.517  0.0676 -0.0560  0.1429
 7516W        W26370  14.654   3.279   0.773  0.2337 -0.1023 -0.0733
 7517W        W26371   3.887  13.040  13.740  0.4337  0.1508 -0.0398
 7518W        W26372   3.996  10.732   2.314 -0.0874 -0.0093 -0.2409
 7519W        W26373   5.057   7.756  15.423  0.0086 -0.2000 -0.2061
 7520W        W26374  13.077   8.478   4.851 -0.0011  0.1090  0.1989
 7521W        W26375   3.672  10.300   2.150  0.0033  0.0504  0.4751
 7522W        W26376   2.067   2.288  13.395 -0.0553  0.3512 -0.3039
 7523W        W26377   8.201   8.672   2.827 -0.3118 -0.1066  0.0142
 7524W        W26378   6.115  14.212  15.368  0.2613 -0.1398 -0.0541
 7525W        W26379  10.059   7.439  13.067 -0.0051  0.0794 -0.0209
 7526W        W26380  12.818   6.989  17.052  0.0845  0.1969 -0.0116
 7527W        W26381   1.679   9.578  14.710  0.0899 -0.1015  0.0628
 7528W        W26382   1.261   5.348  15.859  0.0439  0.2362 -0.0982
 7529W        W26383  15.241  10.827   4.525  0.0266 -0.1161  0.0792
 7530W        W26384  16.505   3.501   3.307  0.2554  0.1449 -0.1769
 7531W        W26385   0.634   7.392   0.054 -0.0689 -0.0049  0.1895
 7532W        W26386   1.564   4.162  13.844  0.4000 -0.0607 -0.2590
 7533W        W26387   1.203   7.968   5.225  0.2327 -0.2825 -0.1122
 7534W        W26388   9.247  17.249   3.838 -0.0321 -0.0917 -0.0374
 7535W        W26389  11.289   2.249   1.265 -0.0307  0.2362  0.1331
 7536W        W26390  12.586   8.642  16.663 -0.0963 -0.0742 -0.0372
 7537W        W26391  15.162  11.854   3.518 -0.1445  0.3019  0.0115
 7538W        W26392   4.237   1.273   0.089  0.0578 -0.0514  0.1685
 7539W        W26393  12.004   7.851  13.337 -0.0237  0.1360 -0.3094
 7540W        W26394   0.825   2.541  13.597  0.0374 -0.1874  0.0613
 7541W        W26395   8.169  16.275   0.762  0.2076 -0.1163 -0.1328
 7542W        W26396   3.754   7.981   3.536 -0.0185  0.2226  0.1551
 7543W        W26397   2.392   0.374   1.364  0.0502 -0.0881 -0.0930
 7544W        W26398   8.472   6.861   3.191  0.0362 -0.1666  0.1612
 7545W        W26399  16.261  12.472  14.024 -0.4119  0.0942 -0.1828
 7546W        W26400  14.711   5.847   4.671  0.0889  0.1546 -0.0263
 7547W        W26401   6.220  15.287  13.206  0.0379  0.1750  0.1460
 7548W        W26402   5.620   4.902   6.111 -0.1130 -0.1841 -0.1943
 7549W        W26403   0.925   4.526  16.980 -0.3324  0.1428  0.0945
 7550W        W26404   6.087   7.745   3.059  0.0712  0.3248 -0.2193
 7551W        W26405   6.071  12.328  14.676 -0.0547 -0.3197  0.2549
 7552W        W26406   7.692   9.100   5.493  0.1571  0.2341 -0.4057
 7553W        W26407   2.382   5.990  12.755  0.1519 -0.2118  0.2722
 7554W        W26408   7.885   4.010  14.524 -0.2869 -0.1240  0.1492
 7555W        W26409   5.645  15.060  17.157  0.0293  0.0148  0.2439
 7556W        W26410   9.012   3.020   1.929 -0.0395  0.0839  0.2852
 7557W        W26411  10.986   3.904  16.609 -0.0626 -0.2474 -0.2493
 7558W        W26412   8.908   5.454  13.392 -0.2500  0.0727 -0.0802
 7559W        W26413   9.494  15.878   1.938 -0.0297 -0.1214 -0.0217
 7560W        W26414  15.794   4.816  13.515  0.0044  0.1708  0.2468
 7561W        W26415  13.015  15.144   5.037 -0.1750 -0.0886  0.3116
 7562W        W26416  12.935  15.395  15.072 -0.1640  0.2204 -0.2055
 7563W        W26417   3.437  13.460   1.163 -0.0706 -0.0452  0.1283
 7564W        W26418  15.796  10.748   3.148  0.2750 -0.2850 -0.0641
 7565W        W26419  15.604  13.687  15.017  0.1787 -0.0624 -0.2440
 7566W        W26420   1.825   4.518  13.181  0.0961  0.2911 -0.2671
 7567W        W26421   0.187   0.583   2.630 -0.1490 -0.0665  0.0248
 7568W        W26422  13.363   5.010   3.291 -0.0170  0.3904 -0.0303
 7569W        W26423  11.276   2.061  14.502  0.1801  0.0649 -0.1253
 7570W        W26424  11.374  11.191   3.074  0.0103 -0.0138 -0.0542
 7571W        W26425  16.840   4.784   1.066  0.1769 -0.2832 -0.0612
 7572W        W26426   0.802  15.381   3.359 -0.1475 -0.1505 -0.2013
 7573W        W26427   4.896   6.921  14.717  0.0836 -0.0973  0.0460
 7574W        W26428   8.529   1.814  13.703 -0.2662  0.2849 -0.3606
 7575W        W26429  10.009   6.834  14.122  0.2131  0.2081 -0.2343
 7576W        W26430  17.538   0.266  15.010 -0.2323  0.1304 -0.0358
 7577W        W26431   5.961   1.959  16.463 -0.0107  0.2465 -0.0904
 7578W        W26432  15.762  17.296  12.868  0.1571 -0.1205 -0.0473
 7579W        W26433  13.515  14.649  17.174 -0.0818  0.2134  0.2730
 7580W        W26434  13.276   8.433   5.374  0.0968 -0.1071  0.2887
 7581W        W26435  13.823   9.081   2.187 -0.0351 -0.2422  0.1161
 7582W        W26436  15.758   6.090   4.763  0.1080 -0.0852 -0.3867
 7583W        W26437  16.181   8.679  14.468 -0.2057  0.0624 -0.0002
 7584W        W26438  12.056  10.782  12.716  0.2962  0.0785  0.2732
 7585W        W26439  10.507   5.685   2.138  0.4897  0.1961  0.2164
 7586W        W26440   0.776  17.062   1.355 -0.5120  0.6858  0.3007
 7587W        W26441   2.875   1.652  16.311 -0.2038 -0.5987 -0.0071
 7588W        W26442   8.127  15.789  14.959  0.0820 -0.0156 -0.2638
 7589W        W26443  11.095   1.158  14.810 -0.1615  0.2599 -0.0011
 7590W        W26444  15.675  11.280   0.973  0.1417 -0.0988  0.2168
 7591W        W26445   8.007  17.586  15.208 -0.0537  0.4005 -0.1519
 7592W        W26446   3.252  12.694   3.274 -0.0161  0.0627 -0.0228
 7593W        W26447  14.557  16.928   4.371  0.3628  0.3241 -0.2015
 7594W        W26448   0.344   4.468  14.380 -0.1784  0.0956  0.1541
 7595W        W26449   3.432  16.667  14.871 -0.0320 -0.1160  0.0664
 7596W        W26450  15.455   0.237  14.714  0.0152  0.1055  0.0942
 7597W        W26451   4.629  16.009  13.809  0.2714  0.0271 -0.2028
 7598W        W26452  13.019   9.817   0.208 -0.2708 -0.0575  0.0769
 7599W        W26453   4.808  11.397  15.556  0.1188 -0.0585  0.1661
 7600W        W26454   9.716  14.055   5.112  0.0181 -0.0042  0.2402
 7601W        W26455  10.114   9.570   3.941 -0.0640 -0.0947  0.0896
 7602W        W26456  15.748  17.261   1.084  0.0947  0.0305  0.0080
 7603W        W26457   7.847   1.023   1.430  0.1132  0.0187  0.1488
 7604W        W26458  14.373  10.159  16.522 -0.0547  0.1971  0.0571
 7605W        W26459   9.350   2.809  16.982  0.1534 -0.0105  0.0523
 7606W        W26460   5.361   5.076   4.385  0.0151  0.2273 -0.0432
 7607W        W26461  14.913   9.596  16.017 -0.2339 -0.3206  0.0827
 7608W        W26462  12.901   7.970  13.175 -0.0636  0.2600  0.0571
 7609W        W26463   7.086   6.858  16.354 -0.3750  0.0502 -0.0750
 7610W        W26464   2.515   5.059  17.230 -0.0685 -0.1477  0.0162
 7611W        W26465   1.460  11.056   0.917  0.2175 -0.0261  0.2028
 7612W        W26466  15.561   7.538  17.107 -0.4576  0.2282  0.2399
 7613W        W26467   7.036   2.959   3.695 -0.0978  0.1329 -0.1386
 7614W        W26468   8.684  12.985  12.444  0.2137 -0.0313 -0.1824
 7615W        W26469  16.953   8.494   5.506 -0.0303  0.0062  0.0184
 7616W        W26470   8.892   5.885   4.476 -0.0896  0.1635  0.1819
 7617W        W26471   0.444  15.578   1.479  0.2964  0.0883  0.4056
 7618W        W26472   1.098   2.959  14.543  0.3323  0.0164  0.1429
 7619W        W26473  11.688  15.525   0.093 -0.2309 -0.1309  0.2125
 7620W        W26474  13.504   4.248   0.385 -0.2816  0.0630  0.2186
 7621W        W26475   1.857   1.981  12.236  0.2486 -0.3129  0.3646
 7622W        W26476  16.774   4.873   4.126 -0.0427 -0.2197  0.0906
 7623W        W26477   1.386   6.115  14.029  0.4402  0.0789  0.2440
 7624W        W26478  11.538   2.664  13.560  0.0202  0.0243 -0.0623
 7625W        W26479  15.596   7.880   2.446  0.2704 -0.0299  0.0789
 7626W        W26480   1.980   9.210   4.895  0.2878 -0.1843 -0.0335
 7627W        W26481   3.099   6.727   3.286  0.1667  0.1045  0.0519
 7628W        W26482  13.807  14.373  16.818  0.1733 -0.1324 -0.1884
 7629W        W26483   6.570  17.255  13.515  0.0240  0.0438  0.2063
 7630W        W26484   6.679   4.079  14.465 -0.2190  0.3028 -0.2444
 7631W        W26485   9.076   6.717   2.025 -0.0252 -0.0425 -0.1024
 7632W        W26486   7.118  12.421   2.213  0.1168 -0.0554 -0.1984
 7633W        W26487   3.543   0.199  16.942  0.1923 -0.2573  0.0203
 7634W        W26488  17.392  10.798  12.236 -0.1635 -0.0366 -0.5425
 7635W        W26489   2.460  14.577  15.264 -0.0264 -0.1326 -0.0577
 7636W        W26490  13.523  14.274  11.841 -0.0185 -0.0256 -0.1385
 7637W        W26491   1.758   9.696  16.196 -0.0763 -0.1004 -0.1327
 7638W        W26492   6.956  17.245   0.205 -0.5057 -0.0207 -0.0983
 7639W        W26493   5.921   2.036  13.988  0.2893  0.3000 -0.1243
 7640W        W26494  17.566   2.781  16.193 -0.1511 -0.1734 -0.1903
 7641W        W26495   2.368   2.919  13.945 -0.3476  0.0684  0.1980
 7642W        W26496   0.866   9.347   5.492 -0.1788  0.0373  0.0400
 7643W        W26497  12.239  15.083  15.379  0.2160 -0.2073 -0.2438
 7644W        W26498  11.309   5.935   5.582 -0.1043 -0.0905  0.0700
 7645W        W26499   4.112  13.060  13.138 -0.0501 -0.1166 -0.0578
 7646W        W26500   1.965  16.005  16.878 -0.0513  0.1122  0.0636
 7647W        W26501  12.213   7.932  16.265  0.1752 -0.0080 -0.1693
 7648W        W26502  15.956  16.366  12.514 -0.1435  0.1130  0.1694
 7649W        W26503   3.871   5.628  17.012  0.2868  0.0474  0.1857
 7650W        W26504   4.745   4.262   5.226 -0.0185 -0.1735 -0.2232
 7651W        W26505  14.128   9.190   3.119 -0.0157 -0.0992  0.1115
 7652W        W26506  11.425   9.543  16.810  0.0414  0.3497 -0.1935
 7653W        W26507   8.332   9.369   4.611 -0.4165 -0.0341  0.2076
 7654W        W26508  13.994   5.952   2.934  0.1633 -0.2022  0.1040
 7655W        W26509  11.096  17.168   1.373 -0.2216  0.0834 -0.1744
 7656W        W26510  12.886   7.620   2.766 -0.0562  0.3878  0.0289
 7657W        W26511  16.753   8.580   0.399 -0.4098 -0.2492  0.0610
 7658W        W26512  15.754   3.124  14.629 -0.0908  0.0312  0.1752
 7659W        W26513  12.278   1.908  12.419 -0.0998 -0.3257 -0.2913
 7660W        W26514  15.900  13.577   1.260  0.0951  0.2928  0.2888
 7661W        W26515   0.054  17.060   3.108  0.1190 -0.2367  0.2233
 7662W        W26516  16.815   6.232  13.546  0.3090 -0.2875 -0.0822
 7663W        W26517  13.222   3.221   1.201  0.2336 -0.3226  0.1509
 7664W        W26518  15.840  17.150   3.478 -0.2486  0.0435  0.3010
 7665W        W26519  11.790   3.848  12.220  0.2277  0.0460  0.0437
 7666W        W26520   1.731   1.961   3.535 -0.0120 -0.3450 -0.1648
 7667W        W26521   8.617   5.752   2.672  0.3201 -0.0320  0.0523
 7668W        W26522   4.511  14.218   1.356 -0.1121 -0.3056  0.0671
 7669W        W26523  13.486   4.652   0.693  0.2350 -0.0096  0.1149
 7670W        W26524  12.938   9.527  15.524 -0.2199  0.2326 -0.0366
 7671W        W26525   9.312  12.145   4.592 -0.3212 -0.2420 -0.1039
 7672W        W26526   1.361  16.212  13.304 -0.0563  0.0428  0.0656
 7673W        W26527  13.810   8.980  15.592  0.3023 -0.0634  0.1362
 7674W        W26528  10.299  14.782  13.908 -0.0624  0.0436 -0.2969
 7675W        W26529   8.382   7.046   0.456 -0.3075 -0.1104  0.1498
 7676W        W26530  15.735  14.957  13.609 -0.0540  0.2990 -0.4504
 7677W        W26531   5.572   0.774  16.124 -0.2725 -0.3086 -0.1715
 7678W        W26532   4.313   1.455  14.676  0.0918  0.0101  0.1266
 7679W        W26533  12.723  12.925  16.471  0.2548 -0.0554 -0.0225
 7680W        W26534  11.608   1.934   1.524  0.0423  0.0626 -0.0836
 7681W        W26535  11.282   5.446   5.374 -0.4112  0.3283 -0.0138
 7682W        W26536   4.363   7.725   5.535  0.3419 -0.0768 -0.2534
 7683W        W26537  13.750   9.643   4.755  0.1588  0.2545 -0.1433
 7684W        W26538   6.811   8.528  16.631  0.2776  0.0785  0.0013
 7685W        W26539   4.182   3.523  15.077  0.0127 -0.0173 -0.2466
 7686W        W26540   5.362  15.965  14.130  0.1514 -0.1071  0.0713
 7687W        W26541  10.083   8.569  15.470  0.0392 -0.1777  0.2495
 7688W        W26542   7.633   6.933  16.318 -0.0817  0.2283 -0.3145
 7689W        W26543  10.892   4.130   4.959 -0.2947  0.2500 -0.0526
 7690W        W26544   6.615   9.983   0.062 -0.0294  0.2468  0.0218
 7691W        W26545   6.697   0.186  14.215  0.1803 -0.3068 -0.0130
 7692W        W26546  11.729   0.188   0.274 -0.1911 -0.0597  0.1450
 7693W        W26547   4.379   7.889  16.120  0.1743 -0.1749 -0.0338
 7694W        W26548   8.118  13.114  13.778  0.1329 -0.0948  0.1712
 7695W        W26549  13.154   9.089  15.598  0.3200 -0.0766  0.3186
 7696W        W26550   1.568   7.689   3.225 -0.0151 -0.3133 -0.1203
 7697W        W26551  10.938   8.493  12.992 -0.1558  0.2123 -0.1323
 7698W        W26552  15.369   9.668  12.919  0.2187 -0.0845 -0.1199
 7699W        W26553   6.200  12.022   1.843  0.1189 -0.0008  0.2490
 7700W        W26554   9.746   4.396   4.306  0.1637  0.2017  0.0277
 7701W        W26555  15.519  11.828  13.113  0.0165 -0.1212 -0.0309
 7702W        W26556   3.395  10.779   1.124 -0.1700 -0.0297 -0.2819
 7703W        W26557  10.417  12.873   0.853 -0.5239  0.2009 -0.0166
 7704W        W26558   4.861  13.159  13.329 -0.0425  0.0533  0.2854
 7705W        W26559   3.548  16.113   2.909 -0.2351  0.0627  0.0569
 7706W        W26560  12.567   9.273  15.234 -0.0591  0.1061 -0.0230
 7707W        W26561   9.192   2.789  15.961  0.1964 -0.0237  0.2156
 7708W        W26562   3.743   1.419  13.478 -0.1230  0.0576 -0.0781
 7709W        W26563   2.002   8.103   4.848 -0.0070  0.0680 -0.0547
 7710W        W26564  16.109  16.102   0.607 -0.3871 -0.0935  0.1361
 7711W        W26565  11.300   9.614   2.698 -0.0612  0.2601 -0.0529
 7712W        W26566  11.840  13.067  17.225  0.0826 -0.1548  0.1026
 7713W        W26567  15.816   7.555   3.068 -0.2270  0.3547  0.0592
 7714W        W26568  16.501  12.758  16.790 -0.0160 -0.0478 -0.2626
 7715W        W26569   8.801  15.664  16.952  0.1432 -0.3015 -0.0335
 7716W        W26570   5.327  11.164   4.834 -0.0024 -0.1418  0.0406
 7717W        W26571   6.269  10.759   1.874  0.1003 -0.1692  0.1254
 7718W        W26572  10.729   3.222  14.839  0.0190 -0.2651 -0.0069
 7719W        W26573  10.422   2.307  14.953  0.2005  0.0581 -0.3757
 7720W        W26574   1.386   9.489   3.772 -0.2434  0.0550  0.0111
 7721W        W26575   7.198   2.631  13.281  0.2271  0.0785 -0.0428
 7722W        W26576   7.046   5.669  15.990 -0.2108 -0.0110 -0.0395
 7723W        W26577   3.309   4.277   3.233 -0.0553 -0.0177  0.1314
 7724W        W26578   4.704   3.921  12.975  0.1532 -0.2133 -0.2990
 7725W        W26579  15.773   2.147   4.209 -0.2712 -0.0935  0.3536
 7726W        W26580   7.320  13.069  13.178 -0.0776  0.2325  0.0346
 7727W        W26581  16.849  15.078   3.692 -0.0356 -0.1962  0.2391
 7728W        W26582   7.565  16.741  16.353  0.1843 -0.1958  0.1139
 7729W        W26583   1.327   6.542   0.759 -0.0921 -0.1772  0.1365
 7730W        W26584  13.322  15.135  14.618  0.3174 -0.0924 -0.0986
 7731W        W26585   7.048   6.384  13.705 -0.0448 -0.3795 -0.1300
 7732W        W26586  15.690   3.204   4.658  0.2210  0.1680  0.2240
 7733W        W26587   5.021   3.294  16.005 -0.1150  0.0913 -0.1595
 7734W        W26588   3.033   5.730  14.846 -0.2244  0.0191  0.2693
 7735W        W26589  10.525  10.275  14.354  0.2760  0.0125  0.0423
 7736W        W26590  12.227  15.204   3.450 -0.3739  0.1008 -0.0961
 7737W        W26591   6.145  12.316   5.618  0.3339 -0.0153  0.0595
 7738W        W26592   8.830   2.882  16.956  0.2909 -0.2866  0.1111
 7739W        W26593  14.745  15.694  13.274 -0.0452 -0.0120 -0.2517
 7740W        W26594  12.489  15.607  14.918  0.3738 -0.2829 -0.0942
 7741W        W26595   1.553   3.331   0.243 -0.3853 -0.1026 -0.3024
 7742W        W26596   8.625  15.824  15.174  0.0755 -0.1187 -0.3683
 7743W        W26597  10.602  17.561   3.141  0.1141  0.0778 -0.1826
 7744W        W26598  12.437   5.968   5.565 -0.3040  0.0190 -0.1090
 7745W        W26599  15.377   2.282   4.889 -0.0239 -0.0390 -0.1566
 7746W        W26600   6.027   1.202   0.170  0.0161  0.1915 -0.0151
 7747W        W26601   1.627   2.299  16.110 -0.2560  0.0432 -0.2979
 7748W        W26602  16.839   2.497   4.198 -0.0728 -0.1433  0.0460
 7749W        W26603  17.590  10.361  12.221  0.0972  0.0465  0.1250
 7750W        W26604   5.213  14.227  15.275 -0.2898  0.1075  0.1013
 7751W        W26605  10.397   1.117  14.107  0.0287 -0.0838  0.0094
 7752W        W26606   1.371  12.381   1.499  0.0516 -0.2191  0.2358
 7753W        W26607   6.295  15.924  14.867 -0.1189 -0.0010 -0.1168
 7754W        W26608   1.195  10.883  15.053 -0.0014  0.0355  0.1247
 7755W        W26609   9.556  17.472  12.674 -0.2526 -0.0285 -0.0248
 7756W        W26610   0.570   0.602   3.777 -0.0018  0.0832 -0.1315
 7757W        W26611  14.950  14.528  15.601 -0.1349  0.3391 -0.1409
 7758W        W26612  12.912   2.521  15.112 -0.0883 -0.1002 -0.0983
 7759W        W26613  15.669   0.756   1.729 -0.1364  0.1976  0.0014
 7760W        W26614  17.548  11.459  13.395 -0.0195  0.2157  0.0336
 7761W        W26615  11.435   2.257   2.705 -0.2580 -0.0704  0.1825
 7762W        W26616  15.589   1.806  12.057  0.0360  0.0404 -0.0201
 7763W        W26617  14.540   3.256  15.953  0.1341 -0.0280  0.2316
 7764W        W26618   0.223   1.000  13.041 -0.0994  0.3672 -0.0139
 7765W        W26619   2.648  14.347  14.880 -0.1604 -0.0435 -0.0763
 7766W        W26620   2.651  15.312  12.505 -0.1339  0.1581 -0.0182
 7767W        W26621  11.461   5.497  14.215 -0.2921 -0.3624  0.2747
 7768W        W26622  10.533  13.089  16.391  0.4318  0.0144 -0.1394
 7769W        W26623   7.563   8.229  13.755  0.1658 -0.1695 -0.2478
 7770W        W26624   8.296  13.044   0.060  0.0482  0.3204 -0.0624
 7771W        W26625   6.954  13.934  15.961  0.0701  0.1404  0.0875
 7772W        W26626   3.802   7.150   1.798  0.0065  0.1455 -0.1190
 7773W        W26627   2.749  10.623  13.860  0.0980  0.0252 -0.0729
 7774W        W26628   8.449   7.286   4.713  0.3333 -0.3256  0.0751
 7775W        W26629   7.700  10.694  16.259 -0.3530  0.0579  0.2274
 7776W        W26630  11.457  12.022  12.249  0.1497 -0.1734 -0.2001
 7777W        W26631   3.007   6.270  16.812  0.1208  0.1424 -0.1494
 7778W        W26632  11.101   8.110   5.774 -0.1281 -0.0849 -0.1715
 7779W        W26633   5.252  15.014  13.236 -0.0835 -0.2675 -0.5331
 7780W        W26634  17.208   9.431   2.013 -0.2371  0.2817 -0.3556
 7781W        W26635  15.181   6.850  14.700  0.0029 -0.3491 -0.0549
 7782W        W26636  10.078   9.361  16.076  0.1591 -0.0177  0.2630
 7783W        W26637  12.095   6.012   0.457  0.0743 -0.2988  0.1259
 7784W        W26638  12.650  13.885  13.964 -0.5079  0.3295  0.1371
 7785W        W26639   0.458   1.375  13.312 -0.0063  0.0151  0.1799
 7786W        W26640   9.246  12.381  16.142  0.1076 -0.1021 -0.2391
 7787W        W26641   3.244  13.456   4.235 -0.0174 -0.0725  0.0295
 7788W        W26642  13.077  10.710  15.502  0.0940  0.1524  0.2640
 7789W        W26643  10.946   9.980  12.737 -0.2400 -0.1139  0.1644
 7790W        W26644   7.298   8.582  15.219 -0.2280 -0.0870 -0.0624
 7791W        W26645  12.793   9.799  17.032 -0.4141  0.2454  0.0884
 7792W        W26646  16.867   9.189  16.044  0.0298  0.1362 -0.4531
 7793W        W26647  12.412   6.431   3.940  0.3163 -0.2561  0.1084
 7794W        W26648  16.163  16.074  16.980 -0.2464  0.2130  0.2414
 7795W        W26649  12.908   2.353   2.700 -0.3777  0.2947  0.1437
 7796W        W26650  12.739  13.394  16.206  0.3003  0.0947  0.1088
 7797W        W26651  13.928  11.314   2.334  0.2500  0.2510  0.2732
 7798W        W26652   0.785   9.008  16.012  0.0736  0.1496  0.0849
 7799W        W26653   0.712  13.371  14.158 -0.1539  0.1206 -0.0645
 7800W        W26654   4.995   0.488  17.074  0.3096 -0.0899  0.2053
 7801W        W26655  16.201   6.306   1.155 -0.3046 -0.0751 -0.1359
 7802W        W26656   5.346   0.842  16.572 -0.0417 -0.0061 -0.0120
 7803W        W26657   8.146  17.191  14.268  0.1897 -0.1002  0.0360
 7804W        W26658  14.871  12.363  15.515  0.0762 -0.4595 -0.2483
 7805W        W26659   2.019   2.515  13.854  0.2033 -0.0679  0.1568
 7806W        W26660   5.270   2.949   1.030 -0.5412 -0.0709  0.1162
 7807W        W26661   1.402   7.050   1.379 -0.0212  0.3092 -0.2957
 7808W        W26662  15.522   2.640   1.434  0.0140 -0.1076  0.0550
 7809W        W26663   1.510   2.908   3.808 -0.0251  0.2757  0.0611
 7810W        W26664   2.860   2.836  14.372 -0.0900 -0.1215  0.2331
 7811W        W26665   1.073   2.734   1.932 -0.2612  0.1097 -0.2890
 7812W        W26666  16.182  16.920  12.620  0.1244  0.0918  0.0017
 7813W        W26667   5.137  15.398  16.412 -0.1453  0.0459 -0.0182
 7814W        W26668   9.000   0.596  17.103  0.0645  0.0423 -0.4254
 7815W        W26669   7.517   2.384  12.483 -0.1565  0.0130 -0.0822
 7816W        W26670   8.467  14.750  17.203  0.1438  0.1590 -0.1745
 7817W        W26671  16.753   6.663   3.162  0.0773 -0.3115 -0.0292
 7818W        W26672   7.442  11.664  16.595  0.1169  0.2297 -0.2161
 7819W        W26673   9.014   7.540  12.925  0.1069  0.3493 -0.1502
 7820W        W26674   5.221   6.447   4.620 -0.1596 -0.1207  0.3122
 7821W        W26675  14.411  10.724  15.883 -0.2617  0.0850  0.2050
 7822W        W26676  16.707   6.565  12.377  0.1351  0.0578  0.0117
 7823W        W26677  16.384   3.939  16.661 -0.2111  0.3843  0.0610
 7824W        W26678  13.390   9.146  14.327  0.0285 -0.1664 -0.1293
 7825W        W26679   1.102   2.067  13.789 -0.3741  0.0190 -0.0114
 7826W        W26680   0.110   3.777   1.618  0.4492  0.1044  0.0552
 7827W        W26681   4.401  14.929   0.066  0.4192  0.1451  0.2055
 7828W        W26682  17.126   9.954   3.344 -0.0614  0.0090  0.2171
 7829W        W26683  17.534  10.013  15.948  0.1216 -0.0771  0.4550
 7830W        W26684   3.555  14.827   4.839 -0.2457  0.0337 -0.0248
 7831W        W26685   5.346  16.143   4.817  0.2344  0.0248  0.2434
 7832W        W26686  10.511   0.530   2.621  0.2162 -0.2112 -0.3440
 7833W        W26687   3.195  14.394  11.850  0.0325 -0.2982  0.3222
 7834W        W26688  11.571  12.957   6.133 -0.2307 -0.1119 -0.1009
 7835W        W26689   1.462  11.518   3.574  0.3245 -0.1401 -0.2591
 7836W        W26690  14.744  11.746   5.287  0.1178  0.1922 -0.0003
 7837W        W26691  14.102   5.261   1.474 -0.0559  0.0729  0.1433
 7838W        W26692   6.162  13.374  15.928  0.1004  0.0645  0.2547
 7839W        W26693   5.894   2.890  16.254 -0.0765  0.0854  0.0165
 7840W        W26694  17.366   1.888   1.765  0.0616 -0.1653 -0.2463
 7841W        W26695  15.055   9.333  16.656  0.2067  0.1514  0.0738
 7842W        W26696   9.971   0.761   3.358  0.0600  0.0464  0.0494
 7843W        W26697   1.728  11.920  12.246  0.0007  0.0066  0.1348
 7844W        W26698   8.670   6.499   1.801 -0.0161 -0.0390  0.0042
 7845W        W26699   8.559  11.409  17.016  0.0251  0.0369  0.0937
 7846W        W26700  12.679   5.751  12.575  0.2827 -0.1518  0.0483
 7847W        W26701  11.860  11.287   3.988 -0.0129 -0.0668 -0.0895
 7848W        W26702  16.274   9.493   2.909  0.2409  0.1973 -0.2007
 7849W        W26703   3.033   6.368  13.603 -0.2566  0.3523 -0.4057
 7850W        W26704   7.193   6.231   5.951 -0.0179  0.0269  0.2298
 7851W        W26705   2.602  15.766   3.786  0.0601 -0.0700 -0.0033
 7852W        W26706  16.128   4.313  14.506 -0.2973  0.1789 -0.0415
 7853W        W26707  10.380   3.011   4.931 -0.0382 -0.2389 -0.1427
 7854W        W26708   1.606  17.234  16.568  0.1357 -0.2095  0.2863
 7855W        W26709   6.950  12.324  17.182 -0.0814 -0.2103 -0.0130
 7856W        W26710   5.665  15.899   1.481  0.0454 -0.3052  0.2293
 7857W        W26711   0.035   6.353  15.402  0.2302  0.2996  0.0878
 7858W        W26712  14.375  14.156  14.327  0.1003 -0.3750  0.1892
 7859W        W26713   9.232   4.315   0.779  0.4209  0.0407  0.0720
 7860W        W26714  16.759   0.690  14.538 -0.1158  0.0970 -0.3269
 7861W        W26715   4.834   0.246   5.046  0.2595  0.2488  0.0057
 7862W        W26716   3.077   4.889   0.678  0.1190  0.0952  0.0818
 7863W        W26717   0.310   3.244  12.996  0.0485  0.0433  0.2939
 7864W        W26718  13.382   7.534   5.067 -0.0274  0.0411  0.0397
 7865W        W26719   4.884   9.424   3.819  0.2727  0.2623 -0.2274
 7866W        W26720   9.131   7.012   2.477  0.3550  0.0212  0.0289
 7867W        W26721   8.596   2.503   3.230  0.1393 -0.3570  0.0807
 7868W        W26722  17.051   5.372   1.678  0.2289  0.0568 -0.1710
 7869W        W26723  10.563   5.872  16.988 -0.1200 -0.1105 -0.2772
 7870W        W26724  16.210  10.108   3.202  0.1597 -0.0354  0.1491
 7871W        W26725  10.784  13.632  14.278  0.1613  0.0750  0.1234
 7872W        W26726   6.520   0.695   0.977 -0.1334  0.0006 -0.0624
 7873W        W26727  13.157  13.593  15.757 -0.0131  0.0111  0.0142
 7874W        W26728  10.568   3.371   4.511  0.4139  0.0965  0.2081
 7875W        W26729  10.688  13.777   0.388  0.2533  0.3443 -0.1534
 7876W        W26730   3.287  15.787   4.366 -0.0809 -0.2461  0.3005
 7877W        W26731  15.837   7.123  14.209 -0.0613  0.1199 -0.1044
 7878W        W26732   8.577   0.297   4.877 -0.1110  0.1400 -0.2900
 7879W        W26733   9.524   0.330   6.300  0.0101  0.1178  0.0449
 7880W        W26734  17.224  10.669   4.769  0.0466  0.3147 -0.1526
 7881W        W26735   1.927   2.742   4.054 -0.1208  0.0735  0.0441
 7882W        W26736  14.772  14.337   3.573  0.2157 -0.3385 -0.0593
 7883W        W26737   0.764  17.470  16.093 -0.0108 -0.2413  0.1947
 7884W        W26738  12.363   3.745  13.842  0.1653 -0.0272  0.0528
 7885W        W26739  11.600  16.442  13.682  0.1466  0.1341 -0.2639
 7886W        W26740  11.187  16.119  16.437  0.0867  0.0504 -0.1641
 7887W        W26741  12.637   0.519   1.742 -0.1679  0.2468  0.0442
 7888W        W26742   3.385  10.725   3.548  0.0206 -0.3317  0.1016
 7889W        W26743   4.103   1.768   2.149  0.2057  0.1992  0.0976
 7890W        W26744   9.365  15.893  15.734  0.0930 -0.2813  0.0973
 7891W        W26745   2.732   0.953  12.757  0.1178 -0.0326  0.0110
 7892W        W26746   5.883   5.983  12.713 -0.0885  0.1243  0.1886
 7893W        W26747  15.793  13.602  12.926 -0.1262 -0.2226  0.0515
 7894W        W26748  17.198   2.097  11.983  0.0241 -0.1895 -0.0161
 7895W        W26749   8.674   9.364  15.754  0.0768  0.0356  0.3344
 7896W        W26750   3.246   1.145   3.075  0.1488 -0.1638  0.1293
 7897W        W26751   7.283  15.886  16.886  0.0179  0.1428 -0.1384
 7898W        W26752   6.580  12.150   1.452  0.0436  0.0492 -0.1348
 7899W        W26753  14.501  13.760   4.571 -0.0898 -0.2441  0.0293
 7900W        W26754  14.693   6.718  13.823  0.0371 -0.2211  0.0143
 7901W        W26755   8.376   4.386   1.057 -0.1397  0.2690 -0.1666
 7902W        W26756  10.568   3.896  15.538  0.0104  0.4233 -0.0037
 7903W        W26757  10.497   4.018  13.028 -0.2728  0.2493  0.1499
 7904W        W26758  17.466   6.083   0.193 -0.1452  0.0424  0.0185
 7905W        W26759  14.765   9.063  12.122 -0.0561  0.0133  0.2894
 7906W        W26760  10.837   6.834   1.266 -0.3744 -0.2011 -0.0981
 7907W        W26761  12.221  12.047   4.989 -0.2292  0.1196  0.2805
 7908W        W26762   6.269   8.411   3.441 -0.2189 -0.2335  0.2050
 7909W        W26763  12.432   0.807   2.085 -0.0614  0.0394  0.1427
 7910W        W26764  16.609   2.027   2.263  0.1925 -0.1565  0.0864
 7911W        W26765   7.513  13.552   4.560  0.0474  0.1429  0.1238
 7912W        W26766  16.342   2.256  15.535  0.1000  0.1574 -0.0016
 7913W        W26767   0.103   7.931  16.793  0.0812 -0.2826  0.2159
 7914W        W26768   3.750  12.375  16.896  0.1403 -0.1137  0.0997
 7915W        W26769   0.937   1.010  16.957  0.0668 -0.1981  0.1406
 7916W        W26770  12.524  15.645  13.012  0.0655  0.0160 -0.2032
 7917W        W26771   9.173   3.299  15.837 -0.0364  0.1380  0.0512
 7918W        W26772   8.565   2.684   4.471  0.1390 -0.2083  0.2995
 7919W        W26773  11.410  12.995   4.157 -0.0869  0.2651  0.0354
 7920W        W26774   9.378  13.749   2.581 -0.2514 -0.1306  0.1032
 7921W        W26775  14.309  16.030  16.584  0.2820 -0.0154 -0.0840
 7922W        W26776   5.417  11.787  12.389 -0.0465  0.3345  0.2622
 7923W        W26777   5.423  11.253   3.072  0.1744  0.1768 -0.0163
 7924W        W26778   4.799   2.391   2.962 -0.0268  0.2941  0.2118
 7925W        W26779  10.867   0.659  13.401 -0.1051  0.2951  0.1388
 7926W        W26780   8.630   2.590   3.964  0.0028  0.0661  0.0145
 7927W        W26781   7.651  12.397   0.657 -0.3506 -0.1426 -0.0577
 7928W        W26782   2.876  11.650   1.064 -0.1052 -0.0673 -0.1038
 7929W        W26783   7.194  16.866   4.533  0.1828 -0.4981  0.2154
 7930W        W26784  10.279   2.370   2.443 -0.2693 -0.0688  0.2178
 7931W        W26785   0.224  12.062   4.016 -0.1767 -0.4476  0.0573
 7932W        W26786   2.411  14.035   2.524  0.1671  0.2090  0.0501
 7933W        W26787   9.834   8.602   2.788 -0.1722  0.0415  0.0301
 7934W        W26788  15.686  10.091   1.119 -0.1805  0.2673  0.0052
 7935W        W26789   6.788   4.401  16.362  0.0682  0.1335 -0.1786
 7936W        W26790  12.349  13.548   1.160  0.0194  0.1431  0.0771
 7937W        W26791  11.191   8.340  14.216 -0.2753  0.1897 -0.1393
 7938W        W26792   4.842  15.268   3.278  0.0726  0.0678 -0.0427
 7939W        W26793   0.014  16.883   1.825 -0.0211  0.0390 -0.1624
 7940W        W26794  10.171  12.033  12.266 -0.0891  0.2033  0.0346
 7941W        W26795   1.364   5.397  13.365  0.1346 -0.2206  0.1154
 7942W        W26796   9.507   7.224   0.093 -0.2000  0.0615  0.1569
 7943W        W26797   2.280   0.659  14.405 -0.3524 -0.0344 -0.0001
 7944W        W26798  12.236   9.802  12.604 -0.1841  0.0175  0.0463
 7945W        W26799   1.373   3.778  17.091 -0.0551  0.1786 -0.0674
 7946W        W26800   4.359   1.450   5.626  0.0334 -0.0238  0.0664
 7947W        W26801   3.134   9.358  14.238 -0.0532  0.2688 -0.2079
 7948W        W26802  10.861   8.885   0.912 -0.3949  0.1680  0.1414
 7949W        W26803   1.193   9.596   4.673  0.1166 -0.0896 -0.1081
 7950W        W26804   1.922  13.452   2.930  0.2306  0.3496  0.2405
 7951W        W26805   3.429  16.632   0.996 -0.1756 -0.1671 -0.1861
 7952W        W26806   0.997   4.004   1.659  0.1181  0.2654 -0.2319
 7953W        W26807  17.184   4.657   2.668 -0.2821  0.0061  0.2218
 7954W        W26808   2.294   3.525   0.747  0.0902  0.3282  0.1356
 7955W        W26809  16.958  16.965   0.441  0.2537  0.0566 -0.0310
 7956W        W26810  15.259  17.550  13.753 -0.1030 -0.0548  0.0401
 7957W        W26811  15.255   8.467   4.584  0.3183  0.0195 -0.0641
 7958W        W26812   7.978   9.663   3.495 -0.0479  0.0239  0.0005
 7959W        W26813   1.965  16.251  13.323  0.0498  0.1202 -0.0781
 7960W        W26814  15.094  11.474   1.610 -0.1437 -0.0163  0.1076
 7961W        W26815   0.848   1.668  13.324 -0.2463  0.0970  0.0890
 7962W        W26816   2.413   6.350   1.298 -0.1136  0.1408 -0.0222
 7963W        W26817   3.402   4.904   0.301  0.1753 -0.3662 -0.1287
 7964W        W26818   2.035   1.559  14.312 -0.0101  0.1336 -0.0251
 7965W        W26819   5.006  15.625  14.904 -0.0877  0.0583 -0.0243
 7966W        W26820   1.677  15.304  16.329  0.1038 -0.1662  0.1456
 7967W        W26821   7.085   1.854  14.587  0.0264  0.0603  0.0859
 7968W        W26822  15.694   5.779   3.740  0.0876 -0.0340  0.2427
 7969W        W26823   3.978   4.225  11.688 -0.0286  0.2462  0.0558
 7970W        W26824   3.400   3.599  12.081  0.1326  0.0056 -0.2036
 7971W        W26825   4.555  15.591   6.307  0.0214 -0.2164  0.1010
 7972W        W26826   6.421  11.995   2.327 -0.2148 -0.1575  0.3049
 7973W        W26827   6.939  14.724   0.369  0.0003 -0.0774  0.2192
 7974W        W26828  13.736  15.912  12.570  0.0321  0.2083  0.0089
 7975W        W26829   1.147  14.402  11.833  0.1032 -0.1106  0.1373
 7976W        W26830  13.954  14.531   3.961 -0.0564 -0.2884 -0.0736
 7977W        W26831  14.335  16.032   1.774  0.2331 -0.2783  0.3377
 7978W        W26832   9.031   8.032   4.295 -0.2759  0.3452  0.2055
 7979W        W26833   0.405   0.762   1.594  0.1065  0.1391 -0.1190
 7980W        W26834   4.030  14.004  16.786  0.2252  0.0647 -0.1251
 7981W        W26835   2.894  15.198   2.760  0.1440  0.1865 -0.0372
 7982W        W26836   5.304   2.040   1.431 -0.0383 -0.0132  0.1322
 7983W        W26837  13.108  10.602   2.353  0.3108  0.0427  0.1703
 7984W        W26838   0.032  16.119   2.129 -0.2470  0.0433  0.0975
 7985W        W26839   2.667   7.240  13.173 -0.2874  0.0254 -0.1867
 7986W        W26840  16.332   2.122   1.436  0.0585  0.1858 -0.1870
 7987W        W26841  14.872   6.352  14.875 -0.1706  0.0452 -0.0021
 7988W        W26842   1.959   7.099   3.803  0.2396 -0.1020  0.0110
 7989W        W26843  13.935  17.376  15.543  0.0841 -0.4173 -0.1120
 7990W        W26844   6.596   8.434   1.308  0.2101  0.1358 -0.1459
 7991W        W26845   8.169  11.485  15.256  0.1206 -0.1010  0.0628
 7992W        W26846   4.856   4.332   4.746 -0.1368  0.0703  0.0256
 7993W        W26847   5.460   3.969   1.196 -0.2727  0.0107 -0.0471
 7994W        W26848   0.132   7.060  12.913  0.0721 -0.2493 -0.0940
 7995W        W26849   4.394  13.591   3.471  0.1460 -0.1726 -0.0463
 7996W        W26850  13.423  13.100   2.847 -0.3506 -0.0287 -0.3804
 7997W        W26851  17.113   5.797  11.870  0.2393  0.0334  0.1291
 7998W        W26852   6.567  12.853   4.506  0.0617  0.0594  0.2024
 7999W        W26853  10.797  13.475   1.432 -0.0657 -0.0304  0.4588
 8000W        W26854  10.860   1.434   0.944 -0.2829  0.0596 -0.1648
 8001W        W26855  13.096   9.205   0.104 -0.0658 -0.2557 -0.0520
 8002W        W26856  13.033  17.198  16.794 -0.1215  0.1686 -0.0476
 8003W        W26857  14.646   2.512   1.165 -0.1134  0.0576 -0.2823
 8004W        W26858   4.226   4.313   2.425  0.2949 -0.0706 -0.1220
 8005W        W26859  10.965  13.700  12.866  0.1939 -0.2975  0.0425
 8006W        W26860  13.110   1.305  11.847  0.1896 -0.0173  0.5037
 8007W        W26861  14.533   2.471  15.914 -0.2240  0.0810  0.3127
 8008W        W26862  14.906   2.332   0.389  0.0111 -0.2493 -0.1247
 8009W        W26863   3.616  13.384   2.793  0.1623  0.0785 -0.0796
 8010W        W26864   2.043   9.701   5.100  0.2284  0.2281  0.0500
 8011W        W26865   2.497   2.159   2.732 -0.3890  0.2896 -0.1168
 8012W        W26866  14.690   1.371  12.507 -0.1786  0.3112  0.0682
 8013W        W26867  15.557  12.625  15.927  0.2532  0.1397 -0.1834
 8014W        W26868   7.432   7.091  12.262  0.0304 -0.0480  0.0337
 8015W        W26869   5.169   7.598   1.741 -0.2368 -0.1747 -0.1304
 8016W        W26870  10.839  13.126  12.345 -0.1084  0.2252  0.1120
 8017W        W26871  11.684  12.876   0.856 -0.0136 -0.1832 -0.1795
 8018W        W26872   0.373   9.506   1.305  0.0504 -0.2161  0.2092
 8019W        W26873  16.810   3.676   3.742 -0.1983  0.2360  0.0232
 8020W        W26874   4.393   7.050  12.659  0.3259 -0.0420  0.1444
 8021W        W26875   4.596   8.101   2.205  0.0197 -0.3874 -0.0451
 8022W        W26876  14.448   8.851  12.496 -0.0202  0.1205 -0.0696
 8023W        W26877   9.904   7.717   5.472  0.0596  0.0763  0.0185
 8024W        W26878   1.203   9.887   0.533 -0.0783 -0.2346  0.0683
 8025W        W26879   4.259  11.026  15.524 -0.2125 -0.1456 -0.1144
 8026W        W26880   3.679  15.020  14.819  0.2776 -0.1901  0.1403
 8027W        W26881  12.937  12.190   4.258 -0.1300 -0.3178  0.3030
 8028W        W26882   5.895   2.117   2.173 -0.1129 -0.0556 -0.1840
 8029W        W26883   1.905  14.486   3.741  0.0001  0.0715  0.0594
 8030W        W26884   2.488   1.459  15.627  0.0554 -0.3093  0.0164
 8031W        W26885  15.673  11.815  13.711 -0.0450  0.0750 -0.0762
 8032W        W26886   1.230  10.523   2.448 -0.2248  0.1459  0.0989
 8033W        W26887   7.354  15.073   2.973  0.3185  0.2681 -0.0674
 8034W        W26888   9.054   1.232   4.361 -0.2564  0.2760 -0.0148
 8035W        W26889  12.331   0.876  14.178 -0.0830 -0.0056  0.0851
 8036W        W26890  10.323  10.780   5.427  0.1513  0.1665  0.0134
 8037W        W26891   6.419  13.401   1.986  0.0508  0.2503 -0.0050
 8038W        W26892  10.978   7.423  15.720 -0.4063  0.0669 -0.2449
 8039W        W26893   3.857   2.624   0.335  0.3573 -0.1175  0.0036
 8040W        W26894   7.089   0.210  12.796  0.1906 -0.0086  0.4508
 8041W        W26895   6.797   4.364   4.147 -0.2007  0.1103 -0.1003
 8042W        W26896   1.277   5.845  13.548 -0.0417 -0.3058 -0.0234
 8043W        W26897   2.477  10.315   2.154 -0.0894  0.0246 -0.1217
 8044W        W26898   9.040   8.382  15.783 -0.0517 -0.2679  0.0795
 8045W        W26899   4.305  15.275  12.884  0.1923 -0.0828 -0.1905
 8046W        W26900   2.488   5.605  13.078 -0.0810 -0.1151 -0.1594
 8047W        W26901   5.845   3.717  11.973 -0.1262 -0.2836  0.1617
 8048W        W26902   7.774   9.752  14.312 -0.2761 -0.2963  0.3072
 8049W        W26903  14.926   4.230   0.741  0.2165  0.0774 -0.2053
 8050W        W26904  16.961   0.720   3.454  0.1516  0.0105  0.0555
 8051W        W26905   7.466   1.615  12.447  0.2389 -0.0090  0.0855
 8052W        W26906   0.586   3.516  17.005  0.3369  0.0926 -0.2300
 8053W        W26907  12.481  13.810   2.357 -0.0769 -0.1481 -0.0472
 8054W        W26908   9.913   7.041   2.734 -0.1218 -0.0541 -0.2827
 8055W        W26909   2.916   4.763  11.908  0.2078  0.1748  0.1979
 8056W        W26910  15.654   2.411   0.990  0.2194 -0.0586 -0.3533
 8057W        W26911   6.490   2.060   0.286  0.0320  0.2609  0.3211
 8058W        W26912  10.602  14.998  13.198 -0.1510 -0.1390 -0.1215
 8059W        W26913   5.959  14.692   3.017  0.0412  0.2760 -0.1427
 8060W        W26914  13.902   1.947  12.717 -0.0129  0.0149 -0.2144
 8061W        W26915  14.407  16.565  16.862 -0.0490 -0.1729 -0.0303
 8062W        W26916  14.714  11.195   5.204  0.0094  0.1078 -0.0084
 8063W        W26917   0.510   9.105  13.153 -0.3770 -0.0279 -0.1981
 8064W        W26918   8.644   0.724  16.741 -0.0296  0.2572 -0.4790
 8065W        W26919   5.487   7.648   2.647  0.1223  0.1512  0.3017
 8066W        W26920  15.025   7.054   2.195 -0.1221  0.1851  0.0745
 8067W        W26921   6.599  10.668   1.542 -0.0790 -0.0711 -0.1954
 8068W        W26922   4.865   5.362   3.351 -0.1309  0.0718 -0.1491
 8069W        W26923   3.234   4.909  14.678  0.0567 -0.0282  0.2185
 8070W        W26924  17.541   2.627  14.392  0.2163 -0.3164  0.0928
 8071W        W26925  10.563   2.431  16.008 -0.0104  0.2062 -0.1950
 8072W        W26926  17.583  13.562  13.943  0.1141 -0.0582 -0.2854
 8073W        W26927   5.138   4.058  16.739  0.0259 -0.0096 -0.2614
 8074W        W26928   6.669  15.429  16.282 -0.0320 -0.0065  0.1912
 8075W        W26929  14.090  10.818   1.199  0.2887  0.3262 -0.1261
 8076W        W26930   6.829  11.219   4.984 -0.0867  0.0321  0.0116
 8077W        W26931  11.365  15.617   0.527 -0.1022 -0.1018  0.3301
 8078W        W26932  12.275   9.377   4.262  0.0785  0.1813 -0.3725
 8079W        W26933  16.318   7.283   1.424 -0.2076 -0.1107 -0.0561
 8080W        W26934   9.138  12.854   2.250  0.0434 -0.1237 -0.1578
 8081W        W26935  11.737  14.452  17.131  0.2766  0.1529  0.1348
 8082W        W26936   3.994   1.748   2.925  0.1330  0.0804  0.0531
 8083W        W26937  13.204   3.408   1.701  0.0804  0.0739 -0.0290
 8084W        W26938  15.205   7.242  16.928 -0.0945  0.2096  0.0472
 8085W        W26939   1.673  16.066   4.280  0.2888  0.1591 -0.0076
 8086W        W26940   4.896   0.609  15.759  0.2581 -0.2265  0.2234
 8087W        W26941   9.936   5.616  14.996  0.3047  0.0036 -0.0555
 8088W        W26942  10.633  10.372  13.057 -0.1033 -0.0157 -0.1071
 8089W        W26943  14.520  11.085  11.961  0.0479 -0.0557  0.1034
 8090W        W26944  13.059   6.729   3.336  0.1890 -0.1872  0.2860
 8091W        W26945   3.190   1.859   2.500 -0.1290 -0.0736 -0.1255
 8092W        W26946  15.375   9.308   0.592  0.0340 -0.1658  0.2155
 8093W        W26947  10.235  11.157  13.218  0.1618 -0.1089  0.3393
 8094W        W26948  10.807   7.654   2.830 -0.0937  0.3227 -0.1168
 8095W        W26949  10.796  11.974  12.839  0.2306  0.2487  0.1090
 8096W        W26950   4.357   4.280   0.760  0.1764 -0.3998 -0.0636
 8097W        W26951  15.966   3.208  16.464  0.2473  0.0574 -0.1734
 8098W        W26952  14.039  11.557  14.824  0.2657  0.0158 -0.1047
 8099W        W26953  17.121   7.389  16.850  0.0602  0.2433  0.1420
 8100W        W26954  16.890   1.649   3.459  0.4785  0.1899 -0.3037
 8101W        W26955   9.676   9.610   2.546 -0.1743 -0.1511 -0.0430
 8102W        W26956  11.094  16.935   0.932  0.0368 -0.0927  0.0930
 8103W        W26957   5.198  11.056   3.493  0.1106 -0.0728  0.1701
 8104W        W26958  12.014   9.170  14.385  0.1336 -0.1049 -0.0633
 8105W        W26959  16.245   9.587   3.450 -0.0371 -0.0217 -0.3347
 8106W        W26960  11.490   8.818   0.298 -0.0151 -0.0722 -0.0682
 8107W        W26961   1.064   3.644  15.739 -0.0585  0.1142 -0.1972
 8108W        W26962  15.315  13.195   3.807 -0.1547  0.0315 -0.0655
 8109W        W26963   4.977  10.957   1.079  0.2713  0.2157 -0.1399
 8110W        W26964   6.918  17.271   4.689  0.1943 -0.1784  0.1226
 8111W        W26965   5.864  11.738  16.646  0.1411 -0.1933  0.0640
 8112W        W26966  13.102  16.264  16.733 -0.3066  0.4333 -0.4141
 8113W        W26967   1.970   8.617  16.088  0.1860  0.0587 -0.0828
 8114W        W26968   3.254   3.607  16.839  0.1231 -0.1143 -0.0656
 8115W        W26969   0.201  16.943  13.635  0.0613 -0.2627  0.0010
 8116W        W26970   9.698   5.212  13.953 -0.1285  0.3557 -0.1079
 8117W        W26971   5.391  14.426  12.513  0.1894 -0.2645 -0.1759
 8118W        W26972   4.252  12.197   0.940  0.0141  0.1439  0.1862
 8119W        W26973  17.451   0.031   4.925 -0.1369  0.2133  0.0015
 8120W        W26974   8.929   1.551   1.277  0.0643 -0.1436  0.1378
 8121W        W26975   6.516  17.385  16.100  0.0121 -0.3324 -0.1851
 8122W        W26976   4.538  17.144   6.072 -0.0393  0.0939  0.1148
 8123W        W26977   6.262   2.426   2.092 -0.1671 -0.0314  0.2724
 8124W        W26978  11.858  15.952   0.339 -0.1162  0.3375  0.0601
 8125W        W26979  14.844   2.097  15.703  0.1302  0.1522 -0.4957
 8126W        W26980   0.557  14.641  12.722 -0.0593  0.2270  0.2793
 8127W        W26981  10.189   6.449   0.957  0.0670 -0.1631 -0.1878
 8128W        W26982   6.558   6.713  17.171 -0.3047  0.1301 -0.1858
 8129W        W26983   1.698   2.607  15.015  0.1536  0.0645  0.1598
 8130W        W26984  13.176   0.249  16.300  0.2751  0.2265 -0.1493
 8131W        W26985   2.077  16.528   3.635 -0.0472 -0.0493 -0.1057
 8132W        W26986   2.330  13.214   0.480  0.2584  0.2048 -0.0525
 8133W        W26987   5.633   9.558   1.844 -0.3249 -0.0653 -0.0105
 8134W        W26988   3.552   2.943   0.754 -0.0785  0.1954  0.3372
 8135W        W26989   1.768  16.305   0.890 -0.1684  0.0326  0.2474
 8136W        W26990   8.128  13.864   2.501  0.1202 -0.2225  0.1435
 8137W        W26991   9.986   1.533   1.946  0.3423 -0.0630 -0.2609
 8138W        W26992   0.828  10.892   3.209 -0.0512  0.2632 -0.1024
 8139W        W26993  15.041   3.236  15.701 -0.1287 -0.0936 -0.1506
 8140W        W26994  17.173   2.309  13.423 -0.1631  0.0300  0.0934
 8141W        W26995   1.730  17.081  14.325 -0.1168  0.4621  0.2626
 8142W        W26996  16.769  10.961  13.887  0.3677 -0.1778  0.0672
 8143W        W26997   7.874   2.681  14.073 -0.0014  0.1303 -0.2494
 8144W        W26998   3.000   9.443  13.206  0.4701  0.2235 -0.0176
 8145W        W26999   5.443   4.613   3.592 -0.3762 -0.0766 -0.0078
 8146W        W27000   5.228   6.184  14.844 -0.2225 -0.1364  0.0843
 8147W        W27001   4.291   6.315  16.113 -0.2048  0.1001  0.0835
 8148W        W27002   1.657   7.886   5.194 -0.0053  0.1938 -0.1298
 8149W        W27003  16.153  17.321  13.790 -0.1753  0.1383  0.3751
 8150W        W27004   3.818   9.722  12.574 -0.1409 -0.1071  0.3425
 8151W        W27005  12.523  12.631   2.644  0.3604  0.0611  0.2004
 8152W        W27006  10.557  10.343  14.854  0.4856  0.1372 -0.0036
 8153W        W27007   8.283   5.568  14.718 -0.0008 -0.1368 -0.1156
 8154W        W27008  15.685  12.485  16.370  0.1477  0.4391 -0.1777
 8155W        W27009   3.844   4.469   0.579 -0.3658 -0.2070  0.2015
 8156W        W27010  11.599   1.507  15.973  0.1827 -0.2349 -0.0256
 8157W        W27011  10.104   9.242  11.924 -0.2052  0.2682  0.2004
 8158W        W27012  17.092   5.700   5.546  0.1704  0.1601  0.5315
 8159W        W27013  15.660   1.403  14.083  0.2008  0.2240 -0.1574
 8160W        W27014  15.978   3.626  16.738  0.0152 -0.1649 -0.0929
 8161W        W27015  15.983  14.858   1.280 -0.0133  0.2147 -0.2436
 8162W        W27016   2.848   1.331   0.039  0.1700  0.1482 -0.2697
 8163W        W27017  16.937  16.470   3.278 -0.0934  0.2851  0.0952
 8164W        W27018   4.039  12.041  15.918  0.2366 -0.1111 -0.2557
 8165W        W27019  15.399   4.765  12.915  0.1229 -0.0953  0.0009
 8166W        W27020   0.363  12.336  17.092  0.0430  0.1461 -0.0134
 8167W        W27021   3.248   2.349   4.886 -0.0731 -0.1000 -0.1048
 8168W        W27022  11.517  17.559   3.951  0.2895  0.2422  0.2290
 8169W        W27023  13.997   1.507   4.562  0.2495  0.0892 -0.0282
 8170W        W27024   6.073   7.678   5.119 -0.1608 -0.2060 -0.0350
 8171W        W27025   2.304   8.701   3.215 -0.2691 -0.2159  0.3631
 8172W        W27026   0.331   8.235  13.414  0.0909 -0.0051 -0.2324
 8173W        W27027  12.753  16.680  15.669 -0.0502 -0.1265 -0.0885
 8174W        W27028   6.780   0.436  13.317 -0.0601 -0.0978  0.1617
 8175W        W27029   2.315  15.674  12.368 -0.0809  0.0512 -0.1342
 8176W        W27030   2.227  15.877   2.155  0.0148  0.0570 -0.1027
 8177W        W27031   2.007  11.440  12.339 -0.1791 -0.2109 -0.2323
 8178W        W27032   6.653   7.826  13.209 -0.0373 -0.2979 -0.0280
 8179W        W27033  15.299  15.677   2.429 -0.0826 -0.1126 -0.0042
 8180W        W27034  11.495  13.076  16.304 -0.0456 -0.3196  0.0457
 8181W        W27035  12.975  11.795   2.922  0.1456 -0.1588 -0.3090
 8182W        W27036  10.466   0.482  15.041  0.0449  0.0828  0.0643
 8183W        W27037  15.493   5.840  16.886  0.2217  0.0629  0.0601
 8184W        W27038  13.933   1.713  11.273 -0.0899  0.1671  0.3698
 8185W        W27039   6.259   0.050  13.314  0.0695 -0.0309 -0.0419
 8186W        W27040   4.178  12.996  14.211 -0.2323  0.4056  0.0507
 8187W        W27041  12.789   3.455   3.811 -0.0607 -0.0965 -0.1015
 8188W        W27042   6.427  15.128  15.939 -0.3060  0.2247 -0.2055
 8189W        W27043   1.473  14.777   3.827  0.1550 -0.0669 -0.3610
 8190W        W27044  12.800   5.433   0.936 -0.2960  0.1138  0.0880
 8191W        W27045  14.712  10.304   1.657  0.0143  0.2058 -0.1033
 8192W        W27046  14.349  15.877  15.157  0.0125  0.0166  0.2729
 8193W        W27047  14.401   0.203   4.468 -0.0318 -0.0021 -0.3265
 8194W        W27048  10.586  10.760  15.820 -0.3662  0.1873  0.0264
 8195W        W27049   0.118   6.286  14.529 -0.0644  0.1419  0.0088
 8196W        W27050  10.539   7.958  16.600  0.2886  0.0832 -0.0090
 8197W        W27051   5.211  14.068   2.728  0.0842  0.1023  0.3166
 8198W        W27052  11.389  10.370   3.966 -0.0480  0.0454 -0.0028
 8199W        W27053  16.520   0.925  12.749 -0.3367  0.0185  0.1702
 8200W        W27054  12.810   3.230  12.170 -0.2539  0.3202 -0.0288
 8201W        W27055  11.888   2.787   0.069  0.0447 -0.2185  0.2855
 8202W        W27056  15.397   2.047   3.584 -0.2182  0.0164 -0.1090
 8203W        W27057   9.476   0.368   4.576 -0.0310  0.0647 -0.3185
 8204W        W27058   0.437  12.979   0.796  0.2357  0.1035 -0.1319
 8205W        W27059   4.811   9.176   5.194 -0.0265  0.1272  0.1430
 8206W        W27060  16.759   5.830  11.328  0.0227  0.1927  0.1058
 8207W        W27061   1.558  14.910   1.428  0.0288 -0.0864  0.0425
 8208W        W27062   9.297  10.371  13.384  0.2414 -0.3765 -0.0450
 8209W        W27063   4.912  14.101   4.943  0.2036 -0.0775 -0.4259
 8210W        W27064   4.338   2.119   4.793 -0.0242 -0.1067  0.1968
 8211W        W27065  11.635  17.250   3.061 -0.0542  0.3046 -0.0434
 8212W        W27066  10.091  10.240   4.069 -0.0074  0.1781  0.0363
 8213W        W27067   6.666  10.897  14.419 -0.0731 -0.2270  0.3756
 8214W        W27068  11.194   0.258  13.476  0.0362 -0.0279  0.0246
 8215W        W27069  12.639  16.837   4.987  0.1069  0.3351  0.0022
 8216W        W27070   8.019  13.590   2.893 -0.0355 -0.2057  0.1472
 8217W        W27071   0.373   3.264   2.046  0.0084 -0.2432  0.0785
 8218W        W27072   9.589  16.831  16.622 -0.0270  0.2866  0.2618
 8219W        W27073   8.572  17.578   2.407 -0.0766  0.0269  0.0523
 8220W        W27074  14.436   9.656   1.338 -0.2135 -0.0834  0.0508
 8221W        W27075  11.901   8.516   2.047  0.0408  0.1934  0.2873
 8222W        W27076   8.779  16.491  13.029 -0.3648  0.4835  0.0495
 8223W        W27077   7.067   2.661  14.202 -0.0278  0.0491  0.0022
 8224W        W27078  17.345   5.480   0.761  0.2626 -0.2637  0.1588
 8225W        W27079  15.540  14.796   0.161 -0.1630 -0.1735 -0.2075
 8226W        W27080  11.143   9.895   4.099  0.5328 -0.2921 -0.1352
 8227W        W27081  16.331   0.211  12.046 -0.0331 -0.1959  0.0304
 8228W        W27082  14.188  14.125   3.762  0.0990 -0.1498 -0.5248
 8229W        W27083  11.304  16.402   2.662  0.2271  0.1455 -0.1316
 8230W        W27084   4.862   4.898  13.972  0.3741 -0.1519  0.1264
 8231W        W27085   4.066   1.740  16.387 -0.1639  0.0781  0.0375
 8232W        W27086  14.669  11.684   3.903 -0.0827  0.0409  0.0163
 8233W        W27087  16.283  12.064   5.044 -0.3792 -0.0091 -0.0867
 8234W        W27088   8.214   5.781   2.927  0.3893  0.0004  0.1613
 8235W        W27089   7.187  16.351  16.400 -0.3532  0.1265  0.1869
 8236W        W27090  12.930   1.964  16.653 -0.3049 -0.0125 -0.1373
 8237W        W27091   0.491   6.770  16.121  0.0149 -0.1460 -0.3392
 8238W        W27092   4.926   4.436   3.548  0.3572  0.1742 -0.0401
 8239W        W27093  10.188   9.417  15.382 -0.1321 -0.0004 -0.1757
 8240W        W27094  12.673  16.627   4.576  0.2711  0.3659 -0.3362
 8241W        W27095   1.587  17.425   4.186  0.0478 -0.1500  0.1881
 8242W        W27096   6.522  11.417  12.693  0.1776  0.2978  0.3677
 8243W        W27097  13.764   6.010   4.491  0.1864 -0.1563 -0.1798
 8244W        W27098   5.148   0.899  13.727  0.0200 -0.1808  0.0614
 8245W        W27099  11.258  11.646   2.278  0.2550  0.1517 -0.1791
 8246W        W27100   9.602   5.368  12.369 -0.2047 -0.1866 -0.3527
 8247W        W27101   4.365  16.158  12.673  0.1379 -0.0153  0.2368
 8248W        W27102  14.320   9.114   0.207 -0.0160  0.0607 -0.1697
 8249W        W27103  12.688  14.002   1.382  0.0017  0.0746  0.1714
 8250W        W27104   4.134   7.787  14.264  0.0261 -0.0287 -0.0425
 8251W        W27105  12.407   1.247  17.199  0.0108  0.0025  0.2590
 8252W        W27106  16.829  10.315   3.696  0.0729  0.1693  0.0325
 8253W        W27107  16.949  12.974   4.547 -0.4003 -0.0479  0.2595
 8254W        W27108  14.157   0.827   0.366 -0.1397  0.2977  0.1217
 8255W        W27109   2.977   4.529  12.687 -0.2966  0.0834  0.1016
 8256W        W27110   3.488  15.441   4.818  0.0435  0.0161  0.1820
 8257W        W27111  10.954   0.804   0.760  0.0736 -0.3273  0.3078
 8258W        W27112   4.537   5.014  16.879  0.0728 -0.0386  0.1662
 8259W        W27113  17.535   8.199  12.188 -0.1149  0.1375  0.0734
 8260W        W27114  17.284   4.770   3.172  0.2036 -0.1438 -0.0274
 8261W        W27115  11.124   7.488  13.743 -0.4377 -0.0551  0.1663
 8262W        W27116  15.075  13.140   6.080  0.4476  0.1402 -0.1952
 8263W        W27117  11.683   8.715  14.529  0.2876  0.0793  0.2061
 8264W        W27118   6.407   6.513   2.172  0.1380 -0.0148  0.1740
 8265W        W27119  14.047  12.236   3.527 -0.2572  0.0062  0.2358
 8266W        W27120  14.362   2.486  13.438 -0.1095  0.2444  0.0605
 8267W        W27121  10.599  15.276   1.210  0.1983  0.1190  0.0800
 8268W        W27122  11.015   1.200   2.504  0.2012  0.1115 -0.3033
 8269W        W27123  11.161   6.408   0.431  0.0248 -0.1341 -0.3104
 8270W        W27124   0.085   9.091   2.882  0.2787 -0.3435  0.2263
 8271W        W27125  11.110  13.937  16.060 -0.1363 -0.0799 -0.0904
 8272W        W27126  15.421   1.888  15.468 -0.2537 -0.0114 -0.1300
 8273W        W27127  14.295  16.175   2.347 -0.0228  0.3298  0.2100
 8274W        W27128   2.189   4.754   0.356 -0.1153  0.1959  0.0351
 8275W        W27129  13.761   0.923   2.645  0.1901 -0.0346  0.1935
 8276W        W27130   5.882   2.372  16.136 -0.0026  0.1138  0.1290
 8277W        W27131  16.488  14.822   2.021 -0.2226  0.2567 -0.2368
 8278W        W27132   4.032   9.384  13.875 -0.1130  0.0087 -0.0672
 8279W        W27133   1.280   8.163   3.350  0.1814 -0.1279  0.1104
 8280W        W27134  13.833   8.016   4.259  0.1973  0.1135  0.0134
 8281W        W27135  11.420  10.372   2.589  0.1214 -0.1378  0.2030
 8282W        W27136   8.693   7.714  12.552 -0.0216 -0.1195 -0.0477
 8283W        W27137  16.922   4.673   0.167 -0.2736  0.2140  0.0902
 8284W        W27138  10.739  16.332  12.598 -0.2687 -0.0920 -0.3169
 8285W        W27139  14.589   0.280  16.078  0.3098  0.0540 -0.2757
 8286W        W27140   0.488  11.307  16.911 -0.0963  0.4325  0.1620
 8287W        W27141   5.360   8.864  14.076 -0.3193 -0.2003 -0.4282
 8288W        W27142   1.782   8.855   4.539 -0.3038  0.0921 -0.0374
 8289W        W27143   0.810  13.926  14.795  0.0749  0.0518  0.1158
 8290W        W27144   4.699  12.870  14.306  0.1104 -0.0414 -0.1836
 8291W        W27145   4.735  16.549  15.225 -0.3748  0.0596  0.0548
 8292W        W27146   8.729   0.629   1.526  0.3249  0.0864 -0.0460
 8293W        W27147   7.029  14.844  14.415 -0.2596  0.0645  0.0591
 8294W        W27148   0.478  11.367   1.810 -0.0092 -0.0524 -0.0169
 8295W        W27149   2.817  14.398  12.251  0.2797 -0.0076  0.4862
 8296W        W27150  17.154  10.174   5.058 -0.2528 -0.2923 -0.2399
 8297W        W27151  15.683  15.814   1.094 -0.1061  0.1403  0.2488
 8298W        W27152   9.316  15.235  12.800 -0.0762  0.1693  0.1652
 8299W        W27153  16.108   6.268  11.777 -0.0893 -0.2668  0.0795
 8300W        W27154  10.575   7.419  12.974 -0.0343  0.1800  0.1918
 8301W        W27155  15.752   4.596   3.986  0.1241 -0.1941 -0.0262
 8302W        W27156  17.464   6.007  15.832 -0.2718  0.1901 -0.2173
 8303W        W27157  15.862   5.884   1.213 -0.1337 -0.1054  0.0953
 8304W        W27158   9.093  11.213  13.892 -0.0717 -0.2167 -0.1762
 8305W        W27159  16.084   9.428  12.485 -0.1757 -0.3399  0.1737
 8306W        W27160  16.560   2.619   1.379  0.1818  0.2439  0.0327
 8307W        W27161  17.345   3.422  16.344 -0.2426  0.3051  0.2432
 8308W        W27162   1.396   8.986   2.893  0.3011  0.0129 -0.1178
 8309W        W27163   2.652   3.123  13.554 -0.3562  0.2665  0.2137
 8310W        W27164  15.294   8.277   0.409  0.2623 -0.1130  0.2902
 8311W        W27165   9.271   6.238  16.881  0.0302  0.3742  0.1763
 8312W        W27166  14.552  11.079   0.005 -0.0292 -0.3028 -0.1326
 8313W        W27167   1.694   7.476   4.040 -0.1781  0.3303 -0.1056
 8314W        W27168   2.547   7.533  14.736 -0.0634  0.1404 -0.1329
 8315W        W27169   3.653   7.723  16.959 -0.0835 -0.0588 -0.0163
 8316W        W27170   7.195   2.458  16.176  0.2343  0.2366  0.1480
 8317W        W27171   7.977  13.417   2.371  0.0694 -0.0786 -0.3241
 8318W        W27172  14.499   8.168   1.305 -0.1945 -0.0623 -0.0123
 8319W        W27173   9.128  13.846   3.007 -0.4617 -0.2843  0.0604
 8320W        W27174  14.469   1.406   4.382  0.1261  0.0038 -0.0569
 8321W        W27175  12.641  10.008  14.459 -0.1445 -0.0326  0.1592
 8322W        W27176  17.294   6.773   2.270  0.4469  0.1047  0.0609
 8323W        W27177  12.542  10.089  13.968  0.3771  0.1442  0.1729
 8324W        W27178  10.158  17.367   3.997 -0.0519  0.0308  0.0461
 8325W        W27179  14.201  14.859  13.632 -0.0573 -0.0110  0.3562
 8326W        W27180   5.655   1.579   5.442 -0.3371 -0.0468 -0.1581
 8327W        W27181  11.366   0.672   2.800 -0.1917  0.2592  0.0126
 8328W        W27182   6.984  13.966  16.856  0.0968  0.2917  0.2084
 8329W        W27183  17.300  15.553   0.327 -0.0723  0.1007  0.2586
 8330W        W27184  13.866   3.786  13.938  0.2092 -0.0773  0.0367
 8331W        W27185   8.927   1.441   0.427  0.0834  0.1716  0.1642
 8332W        W27186   4.234  15.271   2.857  0.3662 -0.1543  0.1582
 8333W        W27187  16.037  17.298  12.374 -0.2511  0.1141  0.2046
 8334W        W27188   1.139   1.597  12.929  0.0424 -0.3653 -0.1286
 8335W        W27189  17.288  10.963  14.181  0.0814 -0.3026 -0.3763
 8336W        W27190   5.517   6.397   1.381  0.2901  0.3182 -0.0302
 8337W        W27191  10.266  17.198   3.408 -0.4721 -0.1746  0.3124
 8338W        W27192   0.312   7.090   1.863 -0.2352  0.1523  0.3223
 8339W        W27193   1.184   7.610  15.183  0.1988 -0.0122 -0.0347
 8340W        W27194  11.824   4.205  12.963  0.0229 -0.0870 -0.0382
 8341W        W27195  11.221   6.398   3.274  0.1823 -0.3628  0.1680
 8342W        W27196  13.379   7.734   4.201 -0.1224 -0.0919  0.5552
 8343W        W27197  14.664   3.852   0.889  0.1432 -0.2582 -0.1012
 8344W        W27198   8.148  10.574  15.277  0.2240 -0.1793 -0.0365
 8345W        W27199   3.343  16.120   3.805 -0.1631  0.0660  0.1219
 8346W        W27200   6.861  10.081   2.598  0.2179 -0.1364  0.1197
 8347W        W27201  14.909  13.307  15.318 -0.0970  0.3077 -0.1330
 8348W        W27202   2.973   9.912   5.314  0.3700  0.1127 -0.0746
 8349W        W27203  15.286  15.053   1.429  0.1107  0.0091 -0.2171
 8350W        W27204  11.588  12.583   2.209 -0.2502 -0.0517  0.1515
 8351W        W27205  15.024  12.966  13.980 -0.4280 -0.0663 -0.1823
 8352W        W27206   6.956   8.119  15.295  0.3893  0.1743 -0.3155
 8353W        W27207   5.201   6.431   0.057  0.1547  0.1368 -0.2103
 8354W        W27208  11.880   3.732  13.726  0.3612 -0.2071 -0.3075
 8355W        W27209  13.799   6.509  16.632  0.0671  0.0337 -0.1090
 8356W        W27210   1.616   4.111   1.566  0.0332 -0.1032  0.3174
 8357W        W27211   4.303   5.227   3.524 -0.0927 -0.1431  0.1766
 8358W        W27212  11.373  16.384   3.571  0.2623  0.0010  0.1195
 8359W        W27213  16.239   4.555   0.760  0.0203  0.1473  0.1224
 8360W        W27214   0.892  16.512   1.855  0.3103 -0.1273 -0.0031
 8361W        W27215  14.374   0.965  14.190 -0.1614 -0.2744  0.2095
 8362W        W27216  12.467   5.348   4.131  0.1554  0.0637  0.1471
 8363W        W27217   7.685   3.946  16.053 -0.0957  0.2720  0.0660
 8364W        W27218  14.344   4.814   0.330 -0.0369 -0.0158  0.0325
 8365W        W27219  11.810   2.219   0.945 -0.0229 -0.1248 -0.2548
 8366W        W27220  12.540   6.515   4.563 -0.0657 -0.0784  0.0616
 8367W        W27221   7.770  11.800  12.877 -0.1112 -0.1241  0.0246
 8368W        W27222   8.429  12.810   3.360 -0.0335 -0.0856 -0.0323
 8369W        W27223   5.894   9.204   4.140 -0.0878 -0.1545  0.0914
 8370W        W27224   7.576   7.979  13.169 -0.1007  0.2986  0.0191
 8371W        W27225  15.867   8.490  13.086  0.1433  0.3356 -0.0233
 8372W        W27226   3.510   9.337   1.333 -0.0706  0.0751 -0.0435
 8373W        W27227   8.601   6.952   0.015 -0.2348 -0.0690  0.0883
 8374W        W27228   6.740   1.922   3.071 -0.0672  0.0049 -0.2570
 8375W        W27229  10.280   2.091   4.742  0.0457 -0.3608 -0.0669
 8376W        W27230   9.328   6.656  16.593 -0.1588 -0.2114 -0.2461
 8377W        W27231  15.489  16.427  14.364 -0.2772 -0.1094 -0.1509
 8378W        W27232   8.413   8.774   0.224 -0.2082 -0.2525 -0.1604
 8379W        W27233   6.837  13.860   0.473  0.2283 -0.1956 -0.1776
 8380W        W27234  10.998   9.461   4.364 -0.0755  0.1339 -0.0716
 8381W        W27235  11.773  12.465  14.624  0.0581  0.1603  0.2153
 8382W        W27236   6.474  10.984  16.828  0.1444 -0.2926  0.0673
 8383W        W27237  16.736   6.526  14.440 -0.1893 -0.4116 -0.0333
 8384W        W27238   3.656  15.475   2.185  0.0116 -0.1376 -0.0551
 8385W        W27239   8.410   7.550  16.322  0.0454  0.2308 -0.0198
 8386W        W27240  16.582  13.869   4.948 -0.0171  0.2402  0.0164
 8387W        W27241  14.593   9.223  12.847 -0.0038 -0.0495  0.1976
 8388W        W27242  12.081  17.270   3.510  0.0248 -0.2845  0.1758
 8389W        W27243  13.606  16.114  14.662  0.0862  0.3715 -0.3848
 8390W        W27244  13.411  16.151   2.292 -0.2562  0.3595  0.2516
 8391W        W27245   6.311   6.090  13.496  0.1390  0.0716  0.1599
 8392W        W27246   7.736   0.944   4.864  0.0412  0.0622 -0.1180
 8393W        W27247  15.893  16.199  14.179 -0.2444  0.1952  0.0452
 8394W        W27248   3.734  14.805   1.388 -0.2395  0.1019  0.0929
 8395W        W27249  14.395   7.357   1.868  0.1216  0.1196 -0.0541
 8396W        W27250   9.427  13.199   0.034 -0.2530 -0.1116  0.0163
 8397W        W27251  15.331   5.389   1.593 -0.1480  0.0338 -0.1642
 8398W        W27252  16.648   3.357  14.146 -0.0883  0.1909 -0.2666
 8399W        W27253   0.998  15.488  14.574 -0.0782 -0.1463  0.0378
 8400W        W27254  13.443  11.922   4.246 -0.0488 -0.1263  0.1405
 8401W        W27255  11.336  11.920  17.205  0.1564  0.0095 -0.2892
 8402W        W27256   3.130  13.832   1.170  0.1791 -0.1037  0.0156
 8403W        W27257   9.430  14.538  12.107  0.1503 -0.1036 -0.0647
 8404W        W27258  14.393   1.546  13.395  0.2590  0.0322  0.0319
 8405W        W27259   6.142   7.065  12.925 -0.0716  0.1641  0.0241
 8406W        W27260   3.873  13.303  17.239 -0.0255 -0.1241 -0.0743
 8407W        W27261   2.923   3.767  16.352 -0.0505 -0.1007  0.3127
 8408W        W27262   7.236   7.465  16.076  0.1480 -0.0675  0.1818
 8409W        W27263   7.305  10.187   0.426 -0.1561 -0.0134  0.2483
 8410W        W27264   2.594  15.058   4.153 -0.5442  0.0268 -0.1524
 8411W        W27265   3.781   5.474  12.907 -0.1869  0.0537 -0.0259
 8412W        W27266  10.734   9.944  17.241  0.2516 -0.1855  0.1348
 8413W        W27267   3.743   3.495   0.731 -0.0102  0.0445  0.3375
 8414W        W27268  11.117   0.163  11.981  0.0064  0.1245  0.1081
 8415W        W27269  17.053  13.814  13.158  0.0835 -0.1954  0.2459
 8416W        W27270   8.024   6.694  15.302  0.0435  0.0375  0.0136
 8417W        W27271  13.887   2.572  16.945 -0.0440 -0.4011  0.3313
 8418W        W27272   4.705   0.215   3.382 -0.1277 -0.0970  0.0920
 8419W        W27273  15.120   5.461  14.182 -0.1465  0.2538 -0.0105
 8420W        W27274  11.006  17.433  16.648  0.0955  0.1546 -0.0272
 8421W        W27275   6.631  11.635  17.183 -0.0363  0.0550  0.2643
 8422W        W27276   3.567  12.633  15.909 -0.1224 -0.0516  0.6333
 8423W        W27277   5.834   2.732   4.246 -0.0824 -0.0419  0.0390
 8424W        W27278  16.029  10.470  13.980  0.3430  0.1211 -0.1218
 8425W        W27279  15.256   7.825   1.354  0.0968 -0.0196  0.0734
 8426W        W27280  16.418   7.576   2.971 -0.4167 -0.0255 -0.0181
 8427W        W27281   5.434  16.314   0.144  0.1076  0.1225  0.0721
 8428W        W27282   0.129   1.041  14.936  0.0349  0.0804 -0.0104
 8429W        W27283  14.141   7.300   2.578 -0.4268  0.0513 -0.2575
 8430W        W27284  15.938  16.542   2.532  0.0928 -0.2538 -0.0668
 8431W        W27285   3.048  13.831  12.732 -0.1268 -0.2184 -0.0753
 8432W        W27286   3.686   1.987  13.994 -0.0403 -0.1747  0.0806
 8433W        W27287  13.495   2.779  15.778  0.3426  0.0836 -0.2633
 8434W        W27288   5.330  10.530   1.081 -0.2057 -0.1543  0.2307
 8435W        W27289   9.719   9.114   2.677 -0.0281  0.1241 -0.1727
 8436W        W27290  13.742   6.009   3.408  0.0041  0.1739 -0.3464
 8437W        W27291  13.338  12.235   0.339  0.1544 -0.2649  0.2136
 8438W        W27292   8.007   8.127  13.374  0.1563 -0.2786 -0.1581
 8439W        W27293   6.837  11.648  12.974  0.1656 -0.1815 -0.0080
 8440W        W27294   8.203   7.089  12.407 -0.1824  0.1183 -0.2068
 8441W        W27295  17.501   4.231  15.118  0.1608  0.1076  0.0458
 8442W        W27296  12.368   5.474  12.886 -0.3438 -0.2125 -0.0937
 8443W        W27297   3.027   7.114   2.968  0.0651 -0.1800  0.1872
 8444W        W27298  14.473   4.500   4.720  0.2058 -0.1512  0.0153
 8445W        W27299   9.983  13.887  11.713 -0.1081 -0.1380  0.1535
 8446W        W27300   1.328   5.276   5.850 -0.0435 -0.1922 -0.3623
 8447W        W27301   3.753  10.090   0.755 -0.1217 -0.1961 -0.0951
 8448W        W27302  16.674   5.847   0.552  0.3841  0.2492  0.1017
 8449W        W27303   3.228   1.895  14.099 -0.0259 -0.3643 -0.1560
 8450W        W27304  10.976  14.022   3.658  0.2185 -0.3086 -0.0834
 8451W        W27305   1.855   4.700  14.393 -0.0840 -0.0622 -0.2334
 8452W        W27306  12.596  10.141   4.314  0.0398 -0.2732 -0.0664
 8453W        W27307   2.371  15.945  13.227 -0.0523 -0.5475 -0.0441
 8454W        W27308   2.965   1.730   0.944  0.0707  0.2593 -0.2540
 8455W        W27309   7.202   6.241   3.592  0.3566 -0.2872  0.0303
 8456W        W27310   7.291  10.154  14.095  0.0225  0.0446  0.1630
 8457W        W27311  17.316   2.914   3.206 -0.3361  0.0355 -0.0461
 8458W        W27312   9.432   2.371   4.556 -0.0357 -0.1631  0.1893
 8459W        W27313   3.717  14.738   2.662  0.1733 -0.2426 -0.0813
 8460W        W27314   1.592   9.113   2.348  0.1421  0.0591 -0.0865
 8461W        W27315   9.295   2.035   1.194 -0.1064 -0.0480 -0.0805
 8462W        W27316   0.665   8.910  16.760 -0.0079 -0.1643 -0.0460
 8463W        W27317  10.685  11.781   3.533  0.3197 -0.0121 -0.0141
 8464W        W27318  16.452   4.686  12.310  0.1248  0.0947  0.4315
 8465W        W27319  13.904   6.017  14.611 -0.1581 -0.1114  0.0788
 8466W        W27320  11.627  16.847  16.940  0.0796  0.0536  0.0010
 8467W        W27321   4.100  14.495  16.849  0.2138 -0.1597 -0.5088
 8468W        W27322   4.002   4.782   2.621 -0.0177  0.4098 -0.0752
 8469W        W27323   8.409   6.928  16.255  0.1924 -0.0558 -0.2084
 8470W        W27324   4.029   5.112   5.338 -0.2899 -0.2065  0.3681
 8471W        W27325   3.332   5.232  15.977 -0.3584 -0.1418 -0.0893
 8472W        W27326   1.816  15.871  13.651  0.1753 -0.1482 -0.2229
 8473W        W27327   2.638  10.047   3.536 -0.1758  0.0164  0.0716
 8474W        W27328  14.697  17.486  14.412 -0.0170 -0.1131 -0.0327
 8475W        W27329   5.202   2.794  14.590 -0.2757  0.1171 -0.2565
 8476W        W27330   6.376  16.118  14.320 -0.2268  0.1083 -0.0506
 8477W        W27331   4.226   2.920  11.997 -0.0805  0.0869 -0.0385
 8478W        W27332  12.479   4.692   0.650 -0.0657 -0.0678  0.1569
 8479W        W27333   0.050   3.131  15.121 -0.2007 -0.1396 -0.0378
 8480W        W27334   3.270   3.809  14.974 -0.0166 -0.0333  0.0117
 8481W        W27335   1.639  16.549   4.140 -0.1136 -0.1390  0.2923
 8482W        W27336  11.611   2.478   4.793 -0.0457 -0.3789 -0.4394
 8483W        W27337   2.534  13.126  16.451 -0.3778 -0.0778  0.0213
 8484W        W27338   9.402  10.031   3.473 -0.1224 -0.1007 -0.1513
 8485W        W27339  17.217   8.034   5.551 -0.2120 -0.0950  0.1986
 8486W        W27340   1.078   9.379  16.051  0.0639 -0.2352  0.1531
 8487W        W27341   3.547   4.611  14.304  0.2044 -0.0627 -0.0416
 8488W        W27342  15.681   3.866   0.963 -0.5057  0.1254 -0.2609
 8489W        W27343   2.830   9.761  12.823  0.3479  0.0102  0.0272
 8490W        W27344  16.949  14.236  13.493 -0.1092 -0.0794  0.0996
 8491W        W27345   2.455  10.803  16.781  0.2729  0.1806 -0.3039
 8492W        W27346  10.071  11.424   0.659 -0.0994  0.1784  0.0602
 8493W        W27347   1.285  15.075  13.546  0.1602 -0.0074  0.1210
 8494W        W27348   9.710  14.548   1.938  0.0293 -0.2616  0.0845
 8495W        W27349   5.125   1.873  15.862 -0.1930  0.1074 -0.0317
 8496W        W27350  14.992   7.550   0.518 -0.3834  0.0088  0.2400
 8497W        W27351   5.061  11.442   1.050 -0.0073  0.0842 -0.0770
 8498W        W27352  11.886   7.526  16.291  0.0696 -0.3523  0.1053
 8499W        W27353   4.626   6.693   2.198 -0.1221  0.0772  0.0417
 8500W        W27354   6.542   6.666   0.417 -0.0003 -0.0499 -0.1459
 8501W        W27355  12.860   1.608  15.434  0.2103  0.2802  0.1473
 8502W        W27356   1.397   5.463  12.521 -0.3680  0.1133  0.0838
 8503W        W27357  17.146   8.436  13.605 -0.0136  0.0559  0.0378
 8504W        W27358  11.840   7.928   5.163  0.0418  0.1055 -0.2423
 8505W        W27359   1.775   9.028  14.581  0.1271  0.2562  0.0391
 8506W        W27360  11.296   6.538  15.804  0.1435  0.0626 -0.1835
 8507W        W27361  10.127  15.081   5.263 -0.1190  0.2318  0.0751
 8508W        W27362  16.874  12.020  14.851 -0.0380 -0.0341  0.0647
 8509W        W27363  14.350   0.019  13.973  0.0170 -0.0338 -0.1804
 8510W        W27364  12.866   5.961  16.087 -0.1149 -0.0903  0.2480
 8511W        W27365   8.739  17.148   1.418  0.3789  0.2606 -0.0746
 8512W        W27366   1.716   4.671   0.468  0.0028  0.1322  0.2960
 8513W        W27367  13.151  13.027  13.223 -0.1788  0.1685  0.1523
 8514W        W27368  15.472   7.124  12.005 -0.2670  0.1505 -0.0182
 8515W        W27369   2.029   8.043  12.854 -0.0627  0.0508 -0.1976
 8516W        W27370  12.456   7.612   3.341  0.0642  0.0811 -0.0435
 8517W        W27371  17.262  10.795   5.311 -0.1628 -0.2560  0.1037
 8518W        W27372  15.980   2.965   3.770  0.3754 -0.0252 -0.0855
 8519W        W27373   8.009   3.644  12.621  0.1537 -0.0360  0.1776
 8520W        W27374  17.414  10.808  14.808 -0.0271 -0.2291 -0.3344
 8521W        W27375  12.564   9.836   2.528 -0.0511  0.0235 -0.0815
 8522W        W27376  17.040   4.834   1.902  0.0856 -0.1231  0.2762
 8523W        W27377  15.766   5.910  11.701 -0.2969 -0.3564  0.0242
 8524W        W27378   5.015  13.174   1.614  0.0644 -0.0316 -0.1059
 8525W        W27379   6.014   4.266  12.469 -0.0827 -0.0237 -0.1597
 8526W        W27380  17.175   8.272  16.491  0.1911  0.2260 -0.0423
 8527W        W27381  17.355  10.877  15.394  0.2954  0.1785 -0.1580
 8528W        W27382   1.761  14.394  14.517 -0.1272 -0.0736  0.0884
 8529W        W27383  15.033   6.082   1.531 -0.0467  0.0316 -0.1311
 8530W        W27384  11.817  14.154   5.304  0.0073  0.4276  0.1457
 8531W        W27385   9.351   3.825   3.644 -0.3657  0.0411  0.2515
 8532W        W27386   7.563   0.224  12.384  0.0193  0.0377 -0.0315
 8533W        W27387   1.775   0.674  13.754  0.0961 -0.1032 -0.0330
 8534W        W27388   8.941  11.087   2.027 -0.0900 -0.0493  0.0369
 8535W        W27389   5.617   0.169  11.924 -0.0436 -0.1471 -0.1891
 8536W        W27390   8.335   3.435   1.067 -0.0578  0.3733  0.2070
 8537W        W27391   5.660   3.407  16.113 -0.2743 -0.1724 -0.4643
 8538W        W27392   4.766  15.970  15.247 -0.0805 -0.1258 -0.0044
 8539W        W27393  10.335   3.832   0.653  0.2352 -0.0263  0.2599
 8540W        W27394   6.588   9.369  14.244 -0.0689  0.1456 -0.1266
 8541W        W27395  13.047   3.888   3.862  0.2930 -0.1862 -0.0935
 8542W        W27396  13.803  16.337   3.682  0.0957 -0.4443  0.0055
 8543W        W27397   6.918   6.658   6.147 -0.1487  0.1077 -0.0753
 8544W        W27398   6.858  13.414  14.461  0.2726  0.2879 -0.2926
 8545W        W27399  13.752  13.845   4.917  0.0314 -0.0651  0.0361
 8546W        W27400  11.664   2.835   1.941 -0.2542  0.0039  0.3244
 8547W        W27401   8.292   6.737  12.898 -0.2836 -0.3211  0.0053
 8548W        W27402  14.853   3.662  15.134 -0.1419 -0.2079 -0.0143
 8549W        W27403   8.873  14.637   2.874  0.4221  0.4012  0.0091
 8550W        W27404   9.776  16.601  15.883 -0.0110 -0.0272  0.3402
 8551W        W27405  15.740  11.261  16.214  0.0018  0.0179 -0.2265
 8552W        W27406  17.021  13.369  15.650 -0.1630  0.0581 -0.1939
 8553W        W27407   8.521   5.199  12.466 -0.0798  0.0278  0.0125
 8554W        W27408   0.618  14.666  14.360 -0.2075 -0.4396  0.1672
 8555W        W27409   1.948   6.872  13.597  0.1771  0.0025 -0.0357
 8556W        W27410   4.802   1.366  14.404 -0.0002 -0.2733 -0.0424
 8557W        W27411   6.574   8.779  12.959 -0.0832 -0.2694  0.2284
 8558W        W27412  14.318   1.639   3.200 -0.1547  0.2027  0.0039
 8559W        W27413   0.668   2.638   2.804 -0.0515  0.0466 -0.2215
 8560W        W27414   2.813  13.785   4.907 -0.0199  0.0513  0.1371
 8561W        W27415  17.497  11.359  15.585 -0.1066  0.0617  0.3235
 8562W        W27416   3.985  11.224   2.537  0.1149 -0.0756 -0.1075
 8563W        W27417  12.421   1.100  15.678  0.2365  0.0591 -0.0667
 8564W        W27418   0.423  16.130   0.692 -0.0211  0.2558  0.0056
 8565W        W27419  14.563   7.941   4.821  0.0353  0.0766  0.1934
 8566W        W27420   5.663   0.673  12.136  0.3456  0.3083 -0.1045
 8567W        W27421   3.017   3.604  12.536  0.3868 -0.2571 -0.2107
 8568W        W27422  16.463   4.695  12.865 -0.1709 -0.0298  0.1769
 8569W        W27423   1.864   1.693   2.595  0.2444  0.2296 -0.1307
 8570W        W27424   2.534  12.669   4.294 -0.1738  0.0971 -0.0841
 8571W        W27425  16.683   7.080  15.758 -0.4179 -0.2239  0.0612
 8572W        W27426  11.460  11.636   1.826  0.0660  0.1110  0.1033
 8573W        W27427   8.941   7.031   4.681  0.1187 -0.2530  0.1472
 8574W        W27428  15.641   8.409  16.682  0.3538  0.0330  0.0485
 8575W        W27429   3.235  11.299  16.853 -0.0057  0.1194 -0.0635
 8576W        W27430   4.268   5.504   2.985 -0.0167  0.1402  0.0713
 8577W        W27431   0.158  11.657   1.456  0.1318 -0.1328  0.2460
 8578W        W27432  11.972   5.904   3.470 -0.1997  0.0687 -0.2429
 8579W        W27433   2.577  13.886  15.038  0.2617 -0.4088  0.1604
 8580W        W27434  11.974   1.433  13.276  0.0355  0.0928  0.0020
 8581W        W27435  10.194   5.216  12.316  0.1190  0.2132  0.2817
 8582W        W27436  15.136   7.324  13.570  0.0813  0.0946  0.0615
 8583W        W27437   4.768  10.391   1.130  0.1101 -0.0410 -0.1325
 8584W        W27438   6.911   9.472  16.583 -0.1129 -0.0090 -0.0173
 8585W        W27439   3.632   4.930   0.733  0.0321  0.0583 -0.0127
 8586W        W27440  11.704  12.835  14.298  0.0854  0.0308 -0.4551
 8587W        W27441  12.964  15.598   3.934 -0.0835  0.2819  0.0069
 8588W        W27442   7.462   0.021   3.765  0.1346 -0.0931 -0.0430
 8589W        W27443  10.950   8.926  12.757 -0.1166  0.2249  0.4592
 8590W        W27444   9.334   3.294   1.600  0.0253 -0.0812  0.1472
 8591W        W27445  14.257  15.267  16.263  0.2771 -0.0364 -0.1864
 8592W        W27446   7.747  11.983   4.186  0.0115  0.1706  0.0873
 8593W        W27447   1.645  12.104   3.348  0.0107  0.2841  0.0871
 8594W        W27448   6.277  16.366   1.385  0.3853  0.1465  0.0827
 8595W        W27449  17.181  13.393   0.162 -0.0153  0.2237 -0.2624
 8596W        W27450  12.483   7.243  12.599  0.1015  0.0428 -0.1883
 8597W        W27451   6.382   6.946  14.057 -0.2615  0.1360  0.0421
 8598W        W27452   1.766  10.119   3.942 -0.2439 -0.2441 -0.1913
 8599W        W27453  13.028   4.629  13.945 -0.0839 -0.1919  0.0242
 8600W        W27454   4.649   1.242  17.039  0.0055  0.0172 -0.2918
 8601W        W27455   9.833  11.859  14.904  0.1074  0.1039  0.0983
 8602W        W27456   4.345   9.477  16.848  0.2788  0.2949  0.0934
 8603W        W27457   3.941  16.245   3.714  0.2306  0.2702 -0.0225
 8604W        W27458   5.670   0.365   4.429 -0.3488 -0.4483  0.1101
 8605W        W27459   1.423   5.460   3.467 -0.2478  0.0793  0.0835
 8606W        W27460   2.768   2.073  14.928  0.0456  0.0289  0.0127
 8607W        W27461  11.358  17.350   4.395 -0.0988 -0.3255  0.1405
 8608W        W27462  12.502   3.799   2.649 -0.0106 -0.1817 -0.2189
 8609W        W27463   7.442   7.441   3.728  0.3248  0.0755 -0.0426
 8610W        W27464  11.164  14.077  12.494 -0.0672 -0.0466  0.1874
 8611W        W27465   6.206   8.796   3.966  0.3636 -0.2343 -0.1480
 8612W        W27466  17.495   4.682  17.189  0.1307 -0.0611 -0.0787
 8613W        W27467   8.621  17.586   0.266  0.0665  0.1926  0.1794
 8614W        W27468   9.631   1.968   3.537 -0.2720 -0.0235 -0.0430
 8615W        W27469   2.853  12.695  14.513  0.1557 -0.0023 -0.2025
 8616W        W27470  17.235  13.155   4.969 -0.0627 -0.0460 -0.0090
 8617W        W27471   4.597  11.201   3.702 -0.1233 -0.0610 -0.1515
 8618W        W27472  12.696   8.633   1.665 -0.0395 -0.0052 -0.0870
 8619W        W27473  10.428  14.607   4.728  0.2710 -0.2048 -0.1594
 8620W        W27474  14.939   2.852   3.513 -0.0996 -0.0167 -0.1341
 8621W        W27475   5.539   7.932   5.233  0.0735 -0.2651  0.2414
 8622W        W27476   6.092   9.024   5.058  0.0212 -0.0574  0.1172
 8623W        W27477  12.997   4.962  16.110  0.2018  0.1809  0.2662
 8624W        W27478   2.704   6.917   0.180 -0.0404 -0.2638 -0.0520
 8625W        W27479  14.846  10.791  12.189 -0.0655 -0.1955 -0.0645
 8626W        W27480  13.845  15.080   4.266  0.1418 -0.0222  0.1038
 8627W        W27481   0.867   5.170  16.220  0.1376  0.1546 -0.1244
 8628W        W27482   4.773   7.087   1.021  0.1779 -0.1057  0.0537
 8629W        W27483  12.945   1.993  13.361 -0.1380  0.1516 -0.0971
 8630W        W27484   4.787  15.072   3.761 -0.1103  0.1712 -0.2686
 8631W        W27485   4.341  10.900   3.323 -0.3462  0.0225  0.0323
 8632W        W27486  12.830   9.834   3.529  0.0769 -0.0705 -0.1051
 8633W        W27487   8.819  15.156   0.328  0.2881  0.1648  0.1228
 8634W        W27488   8.600   0.496  13.427  0.0084 -0.1663 -0.1974
 8635W        W27489   7.354  13.210   4.227 -0.0171 -0.0224  0.0842
 8636W        W27490  16.016   6.480   0.733 -0.0796 -0.3887 -0.2060
 8637W        W27491   1.595  17.537   1.026 -0.1257 -0.1093  0.2200
 8638W        W27492   6.501   5.216   0.032 -0.0097 -0.1363 -0.2454
 8639W        W27493   2.055   9.649  12.194 -0.0396  0.3848  0.0355
 8640W        W27494   1.887  12.919   3.028 -0.1371 -0.0786  0.1965
 8641W        W27495  17.028  12.678  16.898 -0.4763 -0.2204  0.1078
 8642W        W27496  14.794  14.859  13.845 -0.0395 -0.1589  0.0299
 8643W        W27497  11.937  10.948  16.379 -0.1404  0.1644 -0.2119
 8644W        W27498  16.526  13.639   2.536  0.1142 -0.1489 -0.1862
 8645W        W27499   7.885   8.465  16.713  0.0711  0.3140  0.1230
 8646W        W27500  11.722   7.020   4.852 -0.0945 -0.0992 -0.0128
 8647W        W27501   6.161   5.106   5.401 -0.0506 -0.1253  0.1185
 8648W        W27502   9.591   9.574  16.283 -0.2303 -0.3010  0.3253
 8649W        W27503  11.505  11.293  12.641 -0.5338 -0.0540  0.1127
 8650W        W27504   8.574   8.791  13.829 -0.0644  0.0799  0.3160
 8651W        W27505   5.741  14.205   3.473 -0.2916  0.2843  0.0152
 8652W        W27506  15.164   9.741   3.831  0.1829 -0.2597  0.0304
 8653W        W27507   9.264   7.257   0.529 -0.1667  0.0436 -0.0832
 8654W        W27508  13.943   0.958  12.974 -0.0094  0.1286 -0.0795
 8655W        W27509  16.283   5.006  15.138  0.1772  0.3247 -0.1432
 8656W        W27510   5.418   8.468  15.646  0.3320  0.1037 -0.0777
 8657W        W27511   2.833  14.773  12.603  0.1474 -0.1663  0.0874
 8658W        W27512   9.244   4.143   4.180  0.1628  0.1727 -0.1247
 8659W        W27513   2.487  13.163  13.678 -0.2610  0.0980  0.2494
 8660W        W27514   9.265   8.272  17.134 -0.0524 -0.1151 -0.0438
 8661W        W27515   8.691  12.160  13.007 -0.1975  0.2132 -0.2052
 8662W        W27516   7.767   4.133   1.198  0.3644  0.1252  0.0385
 8663W        W27517  13.102   8.325   0.099 -0.1990 -0.2223 -0.0558
 8664W        W27518  14.867   5.805   2.431 -0.1418 -0.1799  0.1795
 8665W        W27519  15.232  13.815   4.874 -0.0047 -0.0555 -0.0604
 8666W        W27520  13.173  11.573  16.522 -0.4200 -0.0548  0.0334
 8667W        W27521   7.793   7.952  12.281 -0.4302  0.3325 -0.0447
 8668W        W27522   9.250  13.274   4.921  0.1215  0.2095  0.1453
 8669W        W27523   9.220  17.107  16.783  0.0649  0.2199 -0.3372
 8670W        W27524  12.824  16.843  15.084 -0.3167 -0.0039  0.2594
 8671W        W27525   6.386  16.087   2.318  0.1921 -0.3737  0.1064
 8672W        W27526   4.745   1.505  13.893  0.1363 -0.0577  0.1722
 8673W        W27527  13.000   6.084  13.379 -0.1289  0.1000 -0.1591
 8674W        W27528   1.568   8.019  14.135  0.1958 -0.4099  0.0059
 8675W        W27529  10.307  14.189   5.251  0.2407 -0.3374  0.0290
 8676W        W27530   3.811   7.678   0.540 -0.0200  0.2530  0.0850
 8677W        W27531   8.121   0.922   4.461  0.0968  0.0659 -0.1610
 8678W        W27532  17.241  13.073   3.499  0.0189  0.1732 -0.0073
 8679W        W27533   8.707   4.907  15.274  0.2635  0.1647  0.1806
 8680W        W27534  11.966   5.597  15.847 -0.0136  0.3064  0.0947
 8681W        W27535   8.054   7.140   2.796 -0.3191 -0.1661 -0.0972
 8682W        W27536   6.425  16.203   4.847 -0.2988 -0.2694  0.1128
 8683W        W27537   7.606  12.404  16.019 -0.0341 -0.1427  0.0212
 8684W        W27538   5.142  14.508   0.098  0.0663  0.1706  0.0706
 8685W        W27539   1.663  17.214  16.009 -0.1748  0.0625 -0.1843
 8686W        W27540   0.922   4.612  13.740 -0.2654  0.2681 -0.4641
 8687W        W27541  12.571   0.355  13.479 -0.1187 -0.0922  0.1647
 8688W        W27542  10.284   5.618   4.029  0.1703  0.1687  0.1830
 8689W        W27543  14.574   8.253   2.447 -0.1445  0.0940  0.0890
 8690W        W27544   7.961  10.924   3.186 -0.0494  0.4865  0.1633
 8691W        W27545   2.054   5.928  15.389 -0.3514  0.1582  0.4973
 8692W        W27546   9.568   8.189   2.436 -0.1820  0.1406  0.1004
 8693W        W27547  17.023  11.179   5.072  0.1011  0.0947  0.2163
 8694W        W27548   2.596   1.723   4.407 -0.0155 -0.1165  0.1207
 8695W        W27549   6.993   2.659   0.568  0.0580 -0.0472  0.0087
 8696W        W27550   8.784  13.243   0.064  0.3318 -0.0002  0.2155
 8697W        W27551   3.773   7.911  14.567  0.2434 -0.0636 -0.1658
 8698W        W27552  11.472  10.600  12.942  0.2406 -0.1826 -0.1965
 8699W        W27553   0.863   1.719  16.399 -0.2610  0.0655  0.0478
 8700W        W27554   3.003  10.999  12.842 -0.2224  0.0169 -0.0566
 8701W        W27555   5.990   0.527  14.790 -0.2362 -0.5143 -0.1119
 8702W        W27556   9.123   1.147   3.804  0.0916 -0.0143 -0.2923
 8703W        W27557   8.407  14.806   3.767 -0.1779 -0.0597 -0.1376
 8704W        W27558   4.413  13.301  13.507  0.2400 -0.0501 -0.0858
 8705W        W27559   4.566   3.510  16.046  0.1663 -0.2062  0.1309
 8706W        W27560   6.818  11.672   3.590 -0.3012  0.0424 -0.0737
 8707W        W27561  13.080  10.320   4.793 -0.0657 -0.0044 -0.0515
 8708W        W27562  11.937   7.248   1.222  0.3525  0.1120 -0.1151
 8709W        W27563   6.023   9.057  12.907  0.1181  0.3960  0.1619
 8710W        W27564  11.138  17.137   4.865  0.1626  0.2660 -0.1888
 8711W        W27565  16.201  11.092  16.372  0.0449  0.0727  0.1884
 8712W        W27566   9.385  12.574   0.179  0.0002  0.1412 -0.0622
 8713W        W27567  11.218   9.056   3.576 -0.0070  0.0076  0.2910
 8714W        W27568  11.900   4.531   3.645 -0.0103 -0.0807 -0.0609
 8715W        W27569  13.701   1.837   2.598  0.1612  0.0110 -0.0248
 8716W        W27570   1.447  15.634  12.219 -0.2529  0.0387 -0.0636
 8717W        W27571   3.383   0.654   2.928  0.1659  0.0610 -0.1399
 8718W        W27572   3.887   5.778   2.901 -0.0329 -0.3924 -0.0591
 8719W        W27573  12.314  10.964  13.076 -0.0188  0.1395 -0.1700
 8720W        W27574   0.720  14.932   1.606  0.1303 -0.1309 -0.2726
 8721W        W27575  11.161   1.820   2.837  0.1671  0.1299 -0.0563
 8722W        W27576   7.669  12.451   4.478  0.1476  0.1073 -0.2647
 8723W        W27577  16.444   9.580  10.830  0.0134  0.1406 -0.0217
 8724W        W27578  15.422  16.885   1.136  0.2560 -0.2730  0.0454
 8725W        W27579   2.825   0.080   3.254  0.0599 -0.0366 -0.2121
 8726W        W27580   5.992   5.531  12.660 -0.1822  0.3860 -0.4305
 8727W        W27581   4.448  12.049  14.462  0.0066  0.7142 -0.0901
 8728W        W27582   0.643  12.265  15.528 -0.0972 -0.2269 -0.1742
 8729W        W27583   6.511   3.275   2.606  0.2784 -0.0294  0.0194
 8730W        W27584  13.469  16.873   3.398  0.1596  0.0040 -0.1264
 8731W        W27585   3.579   4.426  13.715  0.0770  0.2047  0.0647
 8732W        W27586  13.480   1.521   3.784  0.0065  0.3289  0.1933
 8733W        W27587  10.678   3.594   2.495  0.2824 -0.2789  0.1130
 8734W        W27588   5.064  16.402  14.055 -0.0921 -0.3040 -0.1259
 8735W        W27589   5.286   7.251   4.732 -0.2082  0.0880 -0.0308
 8736W        W27590  12.446   0.769  17.207 -0.2050  0.0561 -0.2930
 8737W        W27591   2.773  16.855   2.980  0.1658  0.2746 -0.2262
 8738W        W27592  10.356   2.538  13.425 -0.1004  0.1292  0.2396
 8739W        W27593  13.925  15.979   4.048 -0.0969 -0.1345 -0.3008
 8740W        W27594   7.459   0.467   0.032 -0.1974  0.2750  0.2787
 8741W        W27595   0.877  15.067   2.944 -0.0204  0.0933  0.0656
 8742W        W27596  13.691   3.861   0.048 -0.2078  0.2161  0.2180
 8743W        W27597  15.477   1.942  16.395 -0.0521  0.1054 -0.2826
 8744W        W27598   1.712   6.567  15.617 -0.0157 -0.2119  0.2628
 8745W        W27599   4.273   6.415   1.023  0.1244 -0.0511  0.3516
 8746W        W27600  15.212  14.021   1.629  0.1043 -0.1105 -0.2590
 8747W        W27601  10.702  10.365  16.860 -0.3815  0.1187  0.1425
 8748W        W27602   1.374  15.398  17.216 -0.2024  0.1155 -0.1042
 8749W        W27603   6.204  12.528  16.145  0.1542  0.1796 -0.4531
 8750W        W27604   9.731   2.005   6.022  0.0379  0.2023 -0.0166
 8751W        W27605  12.614  17.221   2.152  0.4098 -0.1387  0.3300
 8752W        W27606   2.154  12.054  16.582  0.1176  0.3792  0.0674
 8753W        W27607   8.013   2.227   4.674 -0.0361 -0.2804 -0.0868
 8754W        W27608   3.834  17.455   3.444 -0.0204 -0.1203 -0.0247
 8755W        W27609   0.181  14.441  15.835  0.0504  0.0679 -0.2175
 8756W        W27610  10.504   3.971  16.492  0.2761  0.0365  0.0130
 8757W        W27611   2.140   0.634   3.501 -0.0784  0.0372  0.0684
 8758W        W27612   1.952   5.524  16.950 -0.0631 -0.0007 -0.1486
 8759W        W27613   9.978   8.041  13.063  0.0368 -0.1523  0.0401
 8760W        W27614   7.746  16.754  16.883 -0.0538  0.1399 -0.2653
 8761W        W27615   5.564   2.510   1.354  0.0029 -0.0018 -0.1452
 8762W        W27616  16.361  10.177  13.687  0.0611 -0.2033 -0.0124
 8763W        W27617  16.902  16.131   0.887  0.1203 -0.2941 -0.0410
 8764W        W27618   5.144   1.506   1.301  0.3928 -0.2807  0.1624
 8765W        W27619  12.684   3.917   3.514 -0.1129  0.0324  0.0316
 8766W        W27620   0.620   4.863   1.202 -0.0896 -0.0295  0.0723
 8767W        W27621  16.807   9.424   5.522  0.1965  0.1632  0.0469
 8768W        W27622   4.887   0.221  11.303 -0.1079 -0.1792 -0.0922
 8769W        W27623  11.894   9.450  13.185  0.1675 -0.1069  0.0556
 8770W        W27624  10.258   5.914   0.975 -0.2860 -0.0164  0.1867
 8771W        W27625  15.706  16.502   2.120  0.1238  0.1797  0.0752
 8772W        W27626   2.757  13.946   5.374 -0.1512  0.1313 -0.2003
 8773W        W27627  10.560   7.959   2.099  0.1302 -0.2239  0.1685
 8774W        W27628   9.611  10.195  14.376 -0.0837 -0.0773  0.2074
 8775W        W27629  17.212   1.177  15.070  0.3444 -0.0195  0.0591
 8776W        W27630   4.555  16.323  17.023  0.3990  0.2310  0.2449
 8777W        W27631   4.819   0.798   4.203 -0.2731 -0.1470 -0.5024
 8778W        W27632  15.368  11.653  14.002  0.1501  0.1527  0.2159
 8779W        W27633  10.570   5.009   5.147  0.1384  0.2767 -0.0155
 8780W        W27634  17.214  17.542  14.791 -0.1428 -0.1290  0.3753
 8781W        W27635   3.868   1.244  15.370  0.0591  0.0714 -0.4341
 8782W        W27636  13.500   6.463  15.011  0.1770  0.1978 -0.1780
 8783W        W27637   6.934   4.937  15.043 -0.2600 -0.0309 -0.1246
 8784W        W27638  14.182   6.284   3.923 -0.0516  0.1152 -0.0194
 8785W        W27639   7.911   0.131   4.228  0.0591 -0.0809  0.1274
 8786W        W27640  12.030  17.326  13.392 -0.4147  0.0565 -0.0546
 8787W        W27641  10.553  12.428   1.637 -0.2789  0.2076 -0.0278
 8788W        W27642   9.441  17.445   2.692  0.1577 -0.2409  0.1596
 8789W        W27643   5.630   8.986  11.946  0.2846 -0.0926  0.0238
 8790W        W27644  15.641   8.243   2.097  0.1171  0.2036  0.0694
 8791W        W27645  14.116  13.328   2.184  0.1068  0.2116 -0.1699
 8792W        W27646   8.142   2.755   0.931  0.0556 -0.0888  0.1955
 8793W        W27647   8.133  17.446  13.013  0.0653  0.0510  0.1203
 8794W        W27648  11.732  13.741  15.292 -0.1566  0.0569 -0.0828
 8795W        W27649   1.908   8.334   3.157  0.1099  0.1388 -0.1007
 8796W        W27650   5.788  14.394  15.765 -0.3469 -0.0802  0.1513
 8797W        W27651   4.227   9.536   5.194  0.0194 -0.2174  0.1018
 8798W        W27652   1.747   9.210   1.441  0.0243 -0.0801  0.0278
 8799W        W27653  15.127   2.685   0.080  0.1058  0.3435 -0.0697
 8800W        W27654  11.849   6.721  15.125  0.1621 -0.2133 -0.2298
 8801W        W27655  10.041  15.389   4.007  0.0709 -0.2721 -0.1301
 8802W        W27656   3.257   8.523  17.037  0.0447  0.2048  0.0888
 8803W        W27657   2.165   0.722  12.392 -0.2746 -0.1838  0.0112
 8804W        W27658  14.077   5.183  17.024 -0.0134 -0.2908 -0.1043
 8805W        W27659  13.003  10.399  12.918 -0.0764 -0.1381 -0.0211
 8806W        W27660   4.272  14.281  16.452  0.4830 -0.1046  0.2620
 8807W        W27661  13.978  12.036  16.562  0.1934  0.1306  0.0971
 8808W        W27662  13.068   3.112  13.620  0.1009 -0.0028 -0.0720
 8809W        W27663   4.545  13.235   1.821  0.0831  0.0337 -0.0463
 8810W        W27664  10.351   8.829   4.468 -0.1432  0.0098 -0.1793
 8811W        W27665  15.895   9.733   3.139 -0.1105 -0.0542  0.1730
 8812W        W27666  16.392   8.204   2.541 -0.1225  0.0861  0.0551
 8813W        W27667   2.866  17.383   1.432  0.1412  0.1901  0.3134
 8814W        W27668  13.892   8.603  16.482  0.1778  0.2498  0.0228
 8815W        W27669  10.589   7.733  15.660 -0.3181 -0.1188 -0.1163
 8816W        W27670   9.313  13.818   4.950  0.0393  0.0610 -0.0485
 8817W        W27671  14.529  16.450   2.873 -0.1041 -0.1624  0.3534
 8818W        W27672   0.293   2.420   0.080 -0.1300 -0.0564  0.1170
 8819W        W27673   2.739   7.844  15.866 -0.2277  0.0355  0.0980
 8820W        W27674   2.388   2.676  13.460 -0.3798  0.0796  0.3247
 8821W        W27675   8.506   3.797  14.029  0.2623 -0.1602 -0.2029
 8822W        W27676  15.272  14.469   4.501 -0.0265 -0.0680  0.4505
 8823W        W27677   3.849   4.604   2.134  0.2124 -0.2219 -0.1405
 8824W        W27678   6.958  16.594  14.949  0.1641  0.1710  0.0896
 8825W        W27679  15.716  15.944  15.663 -0.0228  0.1652 -0.2224
 8826W        W27680   4.613   4.154   4.282  0.2126 -0.2929 -0.2440
 8827W        W27681   9.109  12.683   1.597  0.0482 -0.2279 -0.0696
 8828W        W27682   5.557   5.198  10.941  0.2019 -0.0751 -0.0778
 8829W        W27683  10.821   1.545  13.976  0.1855 -0.0266  0.2921
 8830W        W27684  11.803  13.944  16.895 -0.0488 -0.0336  0.0207
 8831W        W27685   4.950   4.057   2.457  0.0042  0.2924 -0.1925
 8832W        W27686  11.006   5.912   3.228 -0.0620  0.1156  0.0711
 8833W        W27687   5.914   2.681   0.888  0.1323 -0.0436  0.0083
 8834W        W27688  12.372   9.126   3.252 -0.4389  0.2048  0.1114
 8835W        W27689  14.439  15.344  13.674  0.1549  0.0638  0.3200
 8836W        W27690  15.035  16.602  14.141  0.0540  0.0095  0.0798
 8837W        W27691  13.413  17.549  15.509  0.3109 -0.0508  0.0525
 8838W        W27692   7.306   2.201   1.991  0.1393 -0.0430 -0.0229
 8839W        W27693  10.617  14.032   4.012  0.3465 -0.0488 -0.0832
 8840W        W27694   4.097  11.043  11.635  0.1818 -0.4270 -0.0114
 8841W        W27695   7.809  11.078  16.583 -0.1535 -0.1625  0.0191
 8842W        W27696  12.861  16.756   2.250  0.0400  0.0440 -0.1164
 8843W        W27697   4.864   6.333   1.495 -0.1003  0.1651  0.0361
 8844W        W27698   7.733   8.174  14.769 -0.1900 -0.0670 -0.2065
 8845W        W27699  10.369   6.474  14.202  0.1024 -0.1870 -0.1563
 8846W        W27700   6.922  11.253  14.130  0.0517  0.2392  0.2020
 8847W        W27701  15.260   2.440   3.349  0.0816  0.0858  0.2508
 8848W        W27702   5.167  14.938   3.021 -0.1851  0.0410  0.3370
 8849W        W27703   3.514   1.903  16.640 -0.1233  0.3407  0.0564
 8850W        W27704   1.307   3.422   0.674  0.0164  0.1451  0.1096
 8851W        W27705  17.049  11.174  14.669 -0.0145 -0.1554 -0.0488
 8852W        W27706   7.917  13.776   4.268  0.2340 -0.0711  0.3347
 8853W        W27707  14.757  12.874   0.113  0.5013  0.2789  0.2069
 8854W        W27708   8.575  10.310  16.820  0.0193  0.0285 -0.0376
 8855W        W27709   1.707  15.149   4.172  0.1447  0.0626 -0.0331
 8856W        W27710  10.511   7.117   0.990  0.3054  0.1176  0.1184
 8857W        W27711   2.254  14.813  16.868 -0.1850  0.0688  0.0640
 8858W        W27712  15.617  15.179  16.932  0.1867 -0.5989 -0.1859
 8859W        W27713   1.037   9.121   3.894  0.2299  0.1218  0.1673
 8860W        W27714  16.760  10.845  15.468  0.4804 -0.1217 -0.0641
 8861W        W27715  16.068   0.354   0.660 -0.1462  0.0952 -0.2260
 8862W        W27716  16.990   6.856  16.107  0.0486  0.1359 -0.1640
 8863W        W27717   9.665  13.207   3.813  0.0840 -0.0456  0.1406
 8864W        W27718   2.851   6.782  16.891  0.1819 -0.1130  0.0130
 8865W        W27719  11.364   1.106   1.655 -0.1390 -0.2053  0.0650
 8866W        W27720  13.950  12.104   4.130  0.1987 -0.1260 -0.2683
 8867W        W27721  16.997   1.927   3.961  0.2094 -0.1370 -0.1480
 8868W        W27722   6.357  15.840   1.645  0.2990 -0.0095 -0.2135
 8869W        W27723   0.269   3.736  14.842 -0.0120  0.0502  0.0095
 8870W        W27724   1.861   6.938  15.982  0.1312 -0.3034 -0.0824
 8871W        W27725  17.452   8.646  12.458 -0.2338  0.0397  0.1685
 8872W        W27726   6.183   9.236  16.597  0.2520 -0.2763  0.0445
 8873W        W27727  14.557  14.252   4.393 -0.0148 -0.2150  0.2633
 8874W        W27728   8.216   2.337  17.054  0.0373 -0.0957  0.1220
 8875W        W27729   7.097   9.382   2.797  0.2333 -0.0426  0.1303
 8876W        W27730  16.864   5.398  13.368 -0.0063  0.1966  0.0805
 8877W        W27731  13.431  15.210   2.206 -0.1242 -0.1281 -0.3861
 8878W        W27732   2.235  15.636  13.599  0.0450  0.1697  0.1484
 8879W        W27733   7.443  13.797  16.669  0.0696 -0.1204  0.0520
 8880W        W27734   4.770   0.930  12.297  0.0652  0.2267  0.2067
 8881W        W27735  15.476  14.505  16.180 -0.0153 -0.2606 -0.3061
 8882W        W27736   7.803  17.263  16.963 -0.1339 -0.3622  0.0581
 8883W        W27737  11.861   2.507  16.763  0.2955 -0.1941 -0.4228
 8884W        W27738   9.691   9.156  14.183  0.0723 -0.1820 -0.1454
 8885W        W27739   2.265  11.429  15.194 -0.0127 -0.1305  0.0611
 8886W        W27740   0.028   7.539  17.090 -0.0227  0.0950 -0.3024
 8887W        W27741  13.602   0.374  15.923  0.1884  0.0007 -0.1714
 8888W        W27742  15.621   8.952  12.332 -0.0382 -0.0417  0.2828
 8889W        W27743   8.934   5.714  14.902  0.0822 -0.1316  0.1195
 8890W        W27744  12.442  16.814   3.533 -0.1105 -0.0024 -0.1392
 8891W        W27745   6.268  10.997   3.416 -0.0825 -0.0081 -0.0466
 8892W        W27746  16.229  14.211  12.090  0.0258  0.0621 -0.2306
 8893W        W27747  15.295   4.253  13.735  0.4231 -0.0693  0.1950
 8894W        W27748   4.512   2.821  13.866  0.1087  0.3623 -0.1695
 8895W        W27749   0.269   7.382   0.896  0.1451 -0.0034 -0.1511
 8896W        W27750   2.670   5.027   0.462 -0.0429 -0.0515  0.2431
 8897W        W27751  11.549  17.465  15.087  0.0021  0.1882 -0.3251
 8898W        W27752  15.774   2.108   1.385  0.1912  0.2197  0.1288
 8899W        W27753   8.575  10.929   4.555  0.0471  0.2659 -0.1128
 8900W        W27754  17.537  17.460  15.964  0.1071 -0.1594 -0.1162
 8901W        W27755   5.819  11.350   4.948  0.2102 -0.0881 -0.2618
 8902W        W27756  15.380  16.420   1.785  0.2604  0.0838 -0.2429
 8903W        W27757   8.242   8.126   4.469 -0.2005  0.0791  0.0606
 8904W        W27758  10.228   1.593  13.173 -0.2893 -0.0972  0.0282
 8905W        W27759   0.383   0.287  14.738  0.1776  0.3160  0.1770
 8906W        W27760  15.269  13.849   0.283  0.1837 -0.0575  0.2719
 8907W        W27761   5.782  15.171   3.735 -0.2838 -0.1101 -0.1101
 8908W        W27762  11.039   1.324   5.024  0.1458 -0.1877  0.0349
 8909W        W27763   3.136   6.472   2.817  0.1997  0.3237 -0.1378
 8910W        W27764   2.660   6.155  12.294 -0.0754  0.2156  0.0343
 8911W        W27765   6.940   2.779  14.636  0.1536  0.1823 -0.0249
 8912W        W27766  14.634   7.142   5.000 -0.5776 -0.3161 -0.0125
 8913W        W27767  16.231  17.466   2.746  0.1399  0.0310  0.0725
 8914W        W27768   3.643  12.372  15.462  0.0086  0.4200  0.1643
 8915W        W27769  11.377   1.157   2.189  0.0509  0.1341  0.1668
 8916W        W27770   8.873   9.962   4.991 -0.1060 -0.1102 -0.3625
 8917W        W27771  15.113   7.432  15.155  0.1089 -0.2252  0.0562
 8918W        W27772  10.510   1.723   5.076 -0.0634 -0.1317 -0.0183
 8919W        W27773   1.194   4.422  12.719  0.1710  0.0595  0.0928
 8920W        W27774  15.108   1.213  13.699  0.1077  0.0171 -0.0172
 8921W        W27775   9.311   8.757  12.864 -0.0076 -0.1980  0.5533
 8922W        W27776   2.942  13.020  13.544 -0.1981 -0.0770  0.4560
 8923W        W27777   6.574   6.236   0.128  0.4996 -0.1328 -0.1782
 8924W        W27778  12.800   3.609  16.703  0.1195  0.2326 -0.2413
 8925W        W27779   4.188  12.732   4.959  0.2968  0.1205 -0.0540
 8926W        W27780   2.522   8.705  14.262 -0.2435  0.0178  0.0311
 8927W        W27781  12.031  11.606  13.902  0.4521 -0.1089  0.1228
 8928W        W27782   7.062  10.291  13.140 -0.0512  0.0760 -0.0199
 8929W        W27783  13.904   3.215   0.802 -0.0257  0.2924 -0.0895
 8930W        W27784   1.009   7.310  13.917 -0.1664 -0.4012 -0.2225
 8931W        W27785  10.678  12.153  13.309  0.1522 -0.0453 -0.2040
 8932W        W27786   6.280   5.862  16.657  0.1039 -0.0198  0.1653
 8933W        W27787   6.557   3.837   4.488  0.1926 -0.1497 -0.0109
 8934W        W27788   3.853   4.363   0.043  0.1111 -0.1494 -0.0652
 8935W        W27789   7.338   5.208  13.170  0.2633  0.3756  0.2750
 8936W        W27790  14.801   6.791   3.581 -0.1679  0.1088  0.2419
 8937W        W27791   8.331   4.927   0.327 -0.0798 -0.2619 -0.0609
 8938W        W27792   1.485   0.942  12.062  0.0961  0.0787  0.1158
 8939W        W27793  13.841   5.527   1.039  0.1377 -0.2261  0.1578
 8940W        W27794  17.366  10.972   1.603  0.1141 -0.1467  0.2284
 8941W        W27795   0.677   7.954  16.751  0.0370  0.1063 -0.1892
 8942W        W27796   1.093  11.522  16.532  0.1074  0.2493 -0.1438
 8943W        W27797   6.751   8.975   0.506  0.1414 -0.4277  0.0176
 8944W        W27798  12.447  10.092   1.262 -0.0391  0.2477 -0.2981
 8945W        W27799   3.978   3.917  11.223  0.0853  0.0232 -0.2856
 8946W        W27800   9.775   4.756   2.335  0.3309  0.0766  0.0551
 8947W        W27801  12.109  14.232  12.152  0.2132  0.0456  0.1197
 8948W        W27802   0.963   7.328   1.388  0.2028  0.1363 -0.1072
 8949W        W27803   5.072   3.542  12.895  0.1721 -0.2149 -0.0054
 8950W        W27804   5.851   2.808  15.737 -0.2420 -0.0283 -0.0559
 8951W        W27805  12.286   3.948   1.500 -0.1517 -0.2471  0.2411
 8952W        W27806  12.754  17.167   4.427 -0.1054  0.1346 -0.1450
 8953W        W27807  14.943   6.837  14.220  0.1255  0.1397  0.0745
 8954W        W27808  11.400   8.311  14.705 -0.1353  0.2135  0.1479
 8955W        W27809  11.195   2.991  13.872  0.2337 -0.1004  0.0758
 8956W        W27810   4.629  17.442   0.941 -0.0191  0.0283  0.2683
 8957W        W27811   0.808  11.745   1.072 -0.1575 -0.1057  0.0086
 8958W        W27812  13.500   8.092   5.057  0.1650  0.0204  0.1593
 8959W        W27813  14.594   2.416   2.413 -0.1605  0.0191  0.0020
 8960W        W27814   2.000   6.173   3.418  0.1259 -0.0094 -0.1127
 8961W        W27815   8.087  15.857  12.582  0.1587  0.1176 -0.1023
 8962W        W27816   3.797   6.848  16.064 -0.0035  0.1305 -0.3331
 8963W        W27817  16.498   3.367   2.790 -0.0007 -0.0949  0.1357
 8964W        W27818  16.250  13.187  13.368  0.0459 -0.1219  0.3315
 8965W        W27819  16.186  17.518   0.911 -0.0024 -0.2489 -0.0968
 8966W        W27820   3.949   7.437  13.849  0.0509 -0.2270 -0.0417
 8967W        W27821   5.739   5.121   2.429  0.0145 -0.2534  0.0690
 8968W        W27822   3.354  15.407  16.327 -0.3026  0.1896  0.1570
 8969W        W27823  17.466  13.351   0.601  0.0001 -0.1843 -0.0211
 8970W        W27824   2.064   7.824   3.313  0.3313 -0.2163 -0.2422
 8971W        W27825  13.227  12.011  12.879 -0.1096 -0.1373  0.1759
 8972W        W27826  10.016  14.916  14.439 -0.2984 -0.1082  0.2935
 8973W        W27827   7.743   4.777  13.879 -0.0544  0.0795 -0.1098
 8974W        W27828   8.942   2.744   0.480 -0.2538  0.0653  0.0285
 8975W        W27829  13.105  14.784   3.076 -0.2168 -0.1150 -0.0373
 8976W        W27830   4.614  13.355   4.699 -0.0486 -0.1024 -0.2050
 8977W        W27831   6.183  17.397   4.041  0.1195 -0.1382  0.0565
 8978W        W27832   6.422   3.357  15.055 -0.1482 -0.0231 -0.2005
 8979W        W27833   5.996   1.644  16.868  0.1721  0.1774  0.0185
 8980W        W27834   1.777  16.958  15.368  0.1069 -0.0065  0.2564
 8981W        W27835   7.941   6.806  15.914  0.1521 -0.0653 -0.1117
 8982W        W27836   7.223   4.298  12.432 -0.1048 -0.3699 -0.0320
 8983W        W27837   8.262  17.582   3.423 -0.2556 -0.1880 -0.1616
 8984W        W27838  10.368   7.381   4.099 -0.0891 -0.1726 -0.1262
 8985W        W27839   5.079  12.016   0.113  0.0756  0.1403 -0.4096
 8986W        W27840  10.442   9.120   3.133  0.0031 -0.3663 -0.3898
 8987W        W27841   1.826  15.379   1.257  0.2889  0.0139  0.0073
 8988W        W27842  10.002   6.463   5.185 -0.1462 -0.2473 -0.4064
 8989W        W27843   0.892   0.941  13.588 -0.1099  0.2902 -0.3168
 8990W        W27844  14.374   5.383   3.737  0.0618  0.1951  0.2680
 8991W        W27845   9.920   6.839  13.573  0.1570 -0.3973  0.0774
 8992W        W27846   9.573  15.795  15.171 -0.0953 -0.0321  0.0342
 8993W        W27847   5.498  13.059   2.854 -0.1543  0.0065 -0.1444
 8994W        W27848   8.966   0.320  12.017  0.0642  0.5088  0.4759
 8995W        W27849   4.133  16.329  13.861  0.1271 -0.0731  0.0226
 8996W        W27850   8.570  10.563  14.100 -0.1462 -0.3111  0.3069
 8997W        W27851  13.732  17.018  13.742 -0.0999 -0.0827  0.0038
 8998W        W27852   7.688   3.595  12.976  0.0304  0.1518 -0.0266
 8999W        W27853   4.615   3.865   0.878  0.0372  0.2142 -0.2313
 9000W        W27854   5.548   6.950   1.410 -0.1338  0.1676 -0.0661
 9001W        W27855  11.925  16.394   0.005 -0.0037 -0.0936 -0.1670
 9002W        W27856  13.021  15.220   0.225 -0.1127  0.0534  0.2430
 9003W        W27857   3.108  13.872   3.347 -0.0236  0.0054  0.2622
 9004W        W27858   2.302   6.465   3.807 -0.1686 -0.0954 -0.3784
 9005W        W27859   2.448   7.914  12.507 -0.2745  0.1832  0.0960
 9006W        W27860   2.599  11.024  15.108 -0.1552  0.1754  0.0055
 9007W        W27861   5.878  17.533   1.592  0.2719  0.2962  0.1113
 9008W        W27862   9.738  12.854  13.978 -0.0802 -0.1614 -0.0359
 9009W        W27863  10.134   4.265  16.679  0.1237  0.3153 -0.0341
 9010W        W27864   5.110   0.604   1.117  0.0667  0.1376 -0.0045
 9011W        W27865   3.700  11.129  16.417 -0.2680 -0.4168 -0.1725
 9012W        W27866   9.081  13.964   3.496 -0.0697 -0.1236 -0.2982
 9013W        W27867   8.715  13.933   1.106  0.0669  0.0263 -0.1476
 9014W        W27868   0.970   3.571  12.673  0.0821 -0.1147  0.0273
 9015W        W27869   0.435   1.840  14.917 -0.0943  0.1226  0.3300
 9016W        W27870   1.819   9.177  12.919  0.0431  0.1812  0.2868
 9017W        W27871   2.047  10.082  16.387 -0.0313  0.1932 -0.0512
 9018W        W27872  13.711   3.705  16.361 -0.1414  0.2224 -0.1861
 9019W        W27873   4.857  15.995   4.704  0.2713  0.0759 -0.2594
 9020W        W27874   7.963  14.535   1.875 -0.3247 -0.2029  0.0947
 9021W        W27875  13.088  10.051  12.568  0.0546 -0.1699  0.3567
 9022W        W27876   6.630   9.954  16.798 -0.1320  0.2154 -0.0597
 9023W        W27877   5.152   0.412   4.503 -0.2418 -0.0374 -0.0589
 9024W        W27878   9.942   8.508  16.548 -0.0495  0.0449 -0.0380
 9025W        W27879  15.815   7.105  14.698  0.0790 -0.0030 -0.0541
 9026W        W27880   5.138  15.581   3.626 -0.2105 -0.2749  0.5120
 9027W        W27881  12.984   0.623  13.405  0.0853 -0.0078 -0.0351
 9028W        W27882   0.041   0.030  12.774 -0.1542 -0.0235 -0.3154
 9029W        W27883  16.325  11.343   4.125 -0.0486 -0.1836 -0.1975
 9030W        W27884  13.354   3.549  13.541 -0.1332  0.1162 -0.1771
 9031W        W27885  11.330   9.770  15.373 -0.3275 -0.0220 -0.0854
 9032W        W27886   8.721  12.885   2.677 -0.1664 -0.1020 -0.0486
 9033W        W27887   3.326  12.997  13.810 -0.0764 -0.1062  0.1002
 9034W        W27888  10.133  15.789   3.672  0.0213 -0.0519  0.2023
 9035W        W27889  16.721   9.511  12.908  0.0789 -0.2730  0.0172
 9036W        W27890   6.069  11.598  12.619 -0.1134  0.0436  0.1807
 9037W        W27891   8.469  16.779  16.104 -0.0765  0.1551  0.0752
 9038W        W27892  14.017  12.395  13.655 -0.0925 -0.0935 -0.1035
 9039W        W27893   5.770  12.639  13.402  0.2667  0.0701  0.2677
 9040W        W27894   8.718   4.274   3.181 -0.2013 -0.3187 -0.2565
 9041W        W27895  17.059   5.988   6.081 -0.2447 -0.4327 -0.2023
 9042W        W27896  14.868   1.094  16.307 -0.2775  0.0688  0.2306
 9043W        W27897   3.090   6.970  12.182 -0.1614 -0.5009  0.3127
 9044W        W27898  11.748  17.373  17.191  0.1028  0.0999  0.2602
 9045W        W27899   6.398   2.108  15.192 -0.0572 -0.1260  0.2824
 9046W        W27900   7.759  15.352   0.382  0.0055  0.1137 -0.2351
 9047W        W27901  16.035   5.938  14.863 -0.1309  0.0668  0.2040
 9048W        W27902  13.378   5.204  15.224 -0.0757  0.0625  0.0063
 9049W        W27903  11.551  14.739   3.383  0.0062  0.1491 -0.1872
 9050W        W27904  10.732  13.485   1.934 -0.1295 -0.1631 -0.3061
 9051W        W27905   3.461  14.071   2.086  0.0409  0.0351  0.0852
 9052W        W27906  13.172   9.925   3.964  0.0999 -0.0944  0.1930
 9053W        W27907  10.312  11.635  16.402 -0.1183 -0.1283 -0.3117
 9054W        W27908   4.650   0.769   5.109  0.2715 -0.2164 -0.1127
 9055W        W27909   0.151  12.816  13.815 -0.1667  0.2356  0.2686
 9056W        W27910  13.886   0.823  12.244  0.1268 -0.1256 -0.2445
 9057W        W27911  16.988  14.314  12.950  0.2674  0.1718  0.0723
 9058W        W27912  13.559  15.782   0.767 -0.0002  0.0651  0.2402
 9059W        W27913  16.798  13.457   2.012 -0.1246 -0.5322  0.2671
 9060W        W27914  12.743   7.133   5.422 -0.0633  0.0257  0.0557
 9061W        W27915   5.071   9.676  13.444  0.0868  0.2453  0.0539
 9062W        W27916   7.730   6.470   1.823  0.0789  0.0701 -0.1064
 9063W        W27917  10.259   3.140   3.062 -0.1322 -0.2307 -0.1042
 9064W        W27918   4.602   4.544  16.033 -0.4402  0.1214 -0.0694
 9065W        W27919   5.219  13.637  16.371 -0.1835  0.0334  0.0115
 9066W        W27920  10.789  13.396   0.132 -0.3396 -0.0571 -0.2658
 9067W        W27921   3.064   6.965  12.841  0.6656 -0.2925 -0.3940
 9068W        W27922  15.246  10.056   0.209  0.4500  0.0629  0.1104
 9069W        W27923   0.598   2.502   2.307 -0.0196 -0.0198 -0.0181
 9070W        W27924   6.672  16.592  12.452 -0.1865 -0.0972 -0.0280
 9071W        W27925  17.054  13.431  15.072  0.6095  0.1275  0.0345
 9072W        W27926   2.276   4.926  16.781  0.3706  0.2833 -0.0930
 9073W        W27927   1.173  10.554   0.883  0.1145 -0.1259 -0.0825
 9074W        W27928   1.208  12.412   3.201  0.2805 -0.1329  0.1905
 9075W        W27929  15.650   3.459  17.054  0.0885 -0.2000  0.1578
 9076W        W27930  12.259   1.530   4.757  0.1695 -0.0250 -0.0082
 9077W        W27931   7.606  12.569   5.427 -0.0821 -0.2814  0.0555
 9078W        W27932   8.701  14.411  14.019  0.1632  0.1492 -0.1745
 9079W        W27933  14.582   5.489  16.769 -0.1073 -0.0160 -0.1285
 9080W        W27934   4.184  11.522  15.478  0.2881 -0.0210 -0.1003
 9081W        W27935   9.532   1.587   5.226 -0.0703 -0.3725 -0.1477
 9082W        W27936   8.167   4.208  14.071  0.1124  0.2294 -0.0661
 9083W        W27937   1.751  11.760  13.938  0.0241 -0.0041 -0.1970
 9084W        W27938  11.798   1.443   0.334 -0.1176  0.1121 -0.1551
 9085W        W27939   1.623   5.317  16.206 -0.3094  0.0704 -0.2010
 9086W        W27940   1.793  12.810  13.637 -0.0479 -0.1861 -0.2137
 9087W        W27941   9.714  10.601   0.240  0.0645 -0.0161 -0.3292
 9088W        W27942  16.386   7.891  13.143 -0.2459  0.0421  0.3913
 9089W        W27943   6.383   4.297   4.552 -0.1898  0.1873  0.0660
 9090W        W27944  10.494   4.525  15.564 -0.1058  0.0805 -0.0797
 9091W        W27945  11.006   4.112  15.336  0.1639 -0.0550  0.1425
 9092W        W27946   7.079  10.719  14.118  0.3335 -0.3549  0.2441
 9093W        W27947   7.738   9.225   3.284 -0.2151 -0.1026  0.0223
 9094W        W27948   6.415  15.825   0.697  0.2205 -0.0492  0.0461
 9095W        W27949   6.181   2.088   1.750  0.0661 -0.1581 -0.3653
 9096W        W27950   6.038   9.321   1.790  0.0411  0.2279  0.0856
 9097W        W27951   6.066  12.720   4.352 -0.0628 -0.0731 -0.2613
 9098W        W27952   1.855   1.296  13.063 -0.1068 -0.2143 -0.0679
 9099W        W27953  12.966  11.002  16.589  0.1540  0.2796  0.1772
 9100W        W27954   4.360   3.190  13.629 -0.1039 -0.3801  0.1368
 9101W        W27955  11.859  11.573   2.133  0.3041  0.2697  0.0704
 9102W        W27956   4.077   6.231  13.420  0.0365 -0.0047 -0.1186
 9103W        W27957  13.550   3.786  14.909  0.0533 -0.1478  0.1767
 9104W        W27958  11.829  17.371  12.712 -0.1032 -0.0929 -0.0652
 9105W        W27959   0.293  12.129   3.498  0.0720  0.0777  0.0078
 9106W        W27960  12.705  14.969  15.246 -0.0321  0.0071 -0.0149
 9107W        W27961   8.437   9.330  15.203  0.0331 -0.1015 -0.0276
 9108W        W27962   1.873   2.865  15.538  0.0327 -0.2951 -0.0176
 9109W        W27963  11.918  10.542   3.070  0.0571  0.2796  0.0320
 9110W        W27964   9.141   1.472   4.795 -0.1840 -0.3485  0.2128
 9111W        W27965  13.205  10.525  14.555  0.2652 -0.1732 -0.1940
 9112W        W27966  16.591   9.247   3.696 -0.2726 -0.1967  0.1553
 9113W        W27967   1.002  14.776   4.544  0.1429  0.2500  0.2835
 9114W        W27968   7.194   2.642   4.492  0.0418 -0.0140 -0.0485
 9115W        W27969  14.795  15.850  12.336 -0.0303  0.0501  0.3183
 9116W        W27970   2.613   0.636   0.456  0.3752  0.1939  0.0359
 9117W        W27971   9.102   7.187   3.871  0.1163  0.0253 -0.0075
 9118W        W27972  10.524  12.874   0.297 -0.1814  0.0424 -0.3257
 9119W        W27973  17.315   7.753  14.211  0.0717  0.1362  0.2996
 9120W        W27974   7.440   2.655   0.769 -0.1198 -0.3093  0.1287
 9121W        W27975   2.500   8.389  13.766 -0.0253 -0.0668 -0.0969
 9122W        W27976   0.375   5.491  15.060 -0.0436 -0.1439  0.2287
 9123W        W27977  16.705  10.611  13.122 -0.2814  0.1104 -0.4582
 9124W        W27978   4.515   9.200   0.001 -0.1774 -0.0785 -0.1829
 9125W        W27979  10.514   8.382   1.550  0.1801 -0.1063 -0.2871
 9126W        W27980   4.119   8.243   1.207 -0.0748 -0.0252 -0.2864
 9127W        W27981   6.940  13.732  15.351  0.4378 -0.0902 -0.0955
 9128W        W27982  11.734  15.467   2.396  0.1469 -0.0296 -0.2340
 9129W        W27983   8.965   7.639   3.442  0.0245 -0.1042  0.0963
 9130W        W27984  14.737  15.103   4.802 -0.3043  0.0470  0.0192
 9131W        W27985   0.112  11.679   3.327  0.0089 -0.1042  0.2432
 9132W        W27986   8.720   7.274   4.310  0.2100 -0.0672 -0.1075
 9133W        W27987   4.297   9.486  16.300 -0.1545  0.1330 -0.1388
 9134W        W27988   4.393   0.895   0.942  0.2773 -0.3000  0.1074
 9135W        W27989  12.694  12.574   1.383 -0.1976 -0.0080  0.1709
 9136W        W27990   8.978   4.381  16.286  0.4249 -0.1615  0.0408
 9137W        W27991  17.063  11.538   4.714  0.0298 -0.2403 -0.1115
 9138W        W27992   7.016   5.983  15.510  0.4522 -0.1479  0.0803
 9139W        W27993   6.684  11.490  14.644  0.0239 -0.0516  0.0972
 9140W        W27994   9.980   9.903  12.421  0.4472  0.1726  0.0901
 9141W        W27995   7.267  11.242  15.183 -0.1295 -0.1349  0.0463
 9142W        W27996   0.950   7.703  12.963  0.1144 -0.1111 -0.0690
 9143W        W27997   7.371   7.653   2.635 -0.2414  0.1827  0.0551
 9144W        W27998  15.733  10.217   0.034  0.0799  0.0742  0.1442
 9145W        W27999  15.821  17.527   1.523 -0.0188  0.0432 -0.1377
 9146W        W28000  13.660  12.533  13.166 -0.1160 -0.1512 -0.2446
 9147W        W28001   4.240  12.910  16.094  0.0744 -0.2002  0.0779
 9148W        W28002  12.457   5.689  16.204  0.0632  0.1641  0.1041
 9149W        W28003   8.860  16.769   4.865  0.0523  0.1571 -0.0087
 9150W        W28004   1.773   4.623   2.836 -0.1220 -0.0959  0.0016
 9151W        W28005   1.375  14.542   1.149 -0.0003 -0.3699  0.1498
 9152W        W28006  12.736   5.145   4.552 -0.1538 -0.2132 -0.0321
 9153W        W28007   4.210  14.011   0.613  0.0554 -0.0056  0.3693
 9154W        W28008   1.088   3.014   3.603 -0.1854  0.1538 -0.1227
 9155W        W28009   3.357  12.159  14.065 -0.0254  0.2127  0.2701
 9156W        W28010   0.479   0.884  14.620  0.0368 -0.0762 -0.2151
 9157W        W28011  17.235  17.257   4.633  0.0473  0.1074  0.1003
 9158W        W28012   5.477   5.038  16.691  0.0999 -0.0957  0.0242
 9159W        W28013   3.357   5.281   3.448 -0.1771 -0.2101  0.3202
 9160W        W28014  15.656   6.841  12.396 -0.2275  0.1412 -0.1577
 9161W        W28015   2.932   6.889  14.902  0.0817  0.1260 -0.1929
 9162W        W28016   5.598   6.265  14.251 -0.0100  0.2825  0.4837
 9163W        W28017   1.885  11.298   3.386  0.1928 -0.3053  0.2199
 9164W        W28018  10.170  13.420  14.976  0.0781 -0.2789  0.1464
 9165W        W28019  16.243   9.675  14.644  0.0940  0.0783 -0.1623
 9166W        W28020   1.724   8.266   1.078 -0.0350  0.0503 -0.3941
 9167W        W28021   0.794   4.901  16.624  0.0348 -0.0160 -0.1303
 9168W        W28022   9.644   5.157  14.992 -0.0794 -0.2710  0.0647
 9169W        W28023  11.818  12.247  11.421  0.2445  0.0999  0.1928
 9170W        W28024  12.618  11.766   4.227  0.1345 -0.1601  0.0861
 9171W        W28025  17.187  11.743   0.212  0.1738 -0.0163  0.1093
 9172W        W28026   1.202   6.041  12.588  0.4101 -0.3588 -0.0754
 9173W        W28027  11.838  15.746   3.205  0.1664  0.2214  0.0973
 9174W        W28028  15.965   2.819  14.326 -0.3741  0.1375  0.1729
 9175W        W28029   1.518   7.985  15.252  0.1603 -0.2483  0.1922
 9176W        W28030  12.448  11.130  12.537 -0.0891  0.1142  0.1657
 9177W        W28031   4.290  11.499   1.219 -0.1328  0.0789 -0.1288
 9178W        W28032   9.774   6.181   3.267 -0.1450  0.2168 -0.1551
 9179W        W28033  16.418   7.530  13.524 -0.3450  0.2528 -0.2607
 9180W        W28034  12.005   6.154  16.573 -0.0812 -0.1067  0.1701
 9181W        W28035  13.180   5.667  15.216 -0.0631  0.4289 -0.0727
 9182W        W28036  10.357   9.980  12.850 -0.1106 -0.1173 -0.2177
 9183W        W28037   7.358  14.832  14.822  0.0173 -0.1064  0.0686
 9184W        W28038   6.212   9.133  13.955  0.1207 -0.0530  0.4360
 9185W        W28039   2.172  12.799   2.198  0.3335 -0.1284  0.1051
 9186W        W28040  16.599  12.646  16.000 -0.0731 -0.0144  0.0597
 9187W        W28041  10.136  14.088  17.166 -0.1440 -0.2125  0.5246
 9188W        W28042  12.257   2.579  14.534 -0.2024  0.0338  0.1668
 9189W        W28043   7.184   5.149  12.594  0.0129 -0.1973  0.0630
 9190W        W28044   8.519   4.402  12.774 -0.2929  0.1658  0.0886
 9191W        W28045   4.498   9.974   2.486  0.2164 -0.2712 -0.4457
 9192W        W28046   9.112  12.196  16.634  0.0915  0.2503  0.0933
 9193W        W28047   8.689   4.899  12.905 -0.0454 -0.0614  0.0659
 9194W        W28048  16.582  10.961  15.994 -0.2743 -0.0153  0.0115
 9195W        W28049   3.975  17.502  16.230 -0.0082  0.1944 -0.0725
 9196W        W28050   7.457   4.530   0.357  0.1851 -0.0074 -0.2098
 9197W        W28051  14.383   5.733  11.663  0.3068 -0.1702  0.3289
 9198W        W28052   8.232   9.501  13.450  0.1429 -0.0979  0.1807
 9199W        W28053   4.074  12.175   2.951 -0.2433  0.2157  0.0908
 9200W        W28054  10.381   6.040   0.512  0.2248 -0.1462 -0.1965
 9201W        W28055  13.763   6.912   3.998  0.0749 -0.1070 -0.1051
 9202W        W28056   1.979   9.633  13.153  0.0194  0.0836 -0.0664
 9203W        W28057   3.256  11.808   4.446  0.0438  0.0722 -0.5060
 9204W        W28058  11.052   1.347   3.506  0.0956  0.0309 -0.2323
 9205W        W28059   9.545   5.567   1.735 -0.1468  0.2975  0.2750
 9206W        W28060  14.926   7.524   3.583  0.2103 -0.0758 -0.2085
 9207W        W28061  16.830  10.905   4.626  0.2658  0.1233  0.1438
 9208W        W28062  16.348   6.690  12.036  0.0222 -0.0095 -0.2322
 9209W        W28063  11.020  10.519  12.734  0.0335 -0.3972 -0.1580
 9210W        W28064   8.130   5.346   1.195  0.2406  0.2089  0.1622
 9211W        W28065   8.091  14.149  13.596 -0.0643  0.1221  0.3611
 9212W        W28066   4.265   8.923   2.448  0.2235  0.0064  0.2966
 9213W        W28067   6.271   4.849   1.259  0.1343  0.0763 -0.1042
 9214W        W28068   4.275  17.367   1.900  0.0381 -0.0620  0.1790
 9215W        W28069   5.849   8.937  16.874 -0.0584 -0.1831 -0.0107
 9216W        W28070   3.111  13.574   2.851  0.1431  0.1793  0.0890
 9217W        W28071   9.156  16.507   3.026 -0.2564  0.1431  0.0473
 9218W        W28072  13.615   2.601   4.156 -0.1253  0.0052  0.0962
 9219W        W28073  16.986   5.276   3.180  0.2350 -0.0661 -0.0254
 9220W        W28074   5.105  14.797  13.731 -0.2279 -0.2999  0.0903
 9221W        W28075   9.184   5.604   2.796 -0.1275 -0.0213  0.0603
 9222W        W28076   8.194  12.414   4.665 -0.2023  0.3251  0.0618
 9223W        W28077   5.424  15.892  13.261  0.0716 -0.0061  0.0295
 9224W        W28078   6.224   4.733  12.422  0.0143  0.0323  0.2470
 9225W        W28079  13.487  15.748   2.606  0.2324 -0.0703 -0.0354
 9226W        W28080   6.084  17.458  15.659  0.1237  0.1486 -0.2786
 9227W        W28081   7.852  13.460  16.806 -0.1019 -0.2174 -0.1186
 9228W        W28082   5.411  10.556   1.962 -0.2228  0.1672 -0.1134
 9229W        W28083   0.496  15.874  13.774  0.1305  0.0747 -0.3398
 9230W        W28084  12.877   6.752   3.944 -0.0675 -0.0579  0.1073
 9231W        W28085  17.504  15.229  14.480 -0.4575  0.1005  0.2388
 9232W        W28086  11.505  10.473  13.483 -0.0040 -0.0087 -0.0987
 9233W        W28087  10.299   5.467  13.964  0.2386 -0.0641  0.2028
 9234W        W28088   2.754   8.133   1.987 -0.5285 -0.2902 -0.3108
 9235W        W28089  16.156   0.567  12.932 -0.0396  0.1912 -0.0560
 9236W        W28090  13.354   5.166   0.414  0.0696  0.0076  0.0688
 9237W        W28091  10.792  13.889   2.337  0.1483 -0.1522 -0.3142
 9238W        W28092  14.893   4.768  11.651 -0.1149 -0.0563  0.0627
 9239W        W28093   4.729  10.015  16.346 -0.3155  0.0097 -0.1235
 9240W        W28094   2.372  12.526  14.262 -0.2272 -0.2143  0.3055
 9241W        W28095  10.661  16.331  16.408  0.1580 -0.1126 -0.0483
 9242W        W28096  17.474   7.749   1.915  0.2451  0.0391  0.0203
 9243W        W28097   8.070   1.428   2.279  0.0220  0.0718 -0.3405
 9244W        W28098   8.859   8.549  12.742 -0.1064 -0.1100  0.1321
 9245W        W28099   2.496  14.887  15.959  0.1596 -0.3242  0.1207
 9246W        W28100   0.013   0.024  12.249 -0.1130 -0.0122 -0.0427
 9247W        W28101   5.107  13.619   4.798 -0.1258  0.1968 -0.1865
 9248W        W28102   8.739   1.050   1.175  0.2251 -0.4903  0.0811
 9249W        W28103   1.608   9.873   3.516  0.0322  0.2344  0.0576
 9250W        W28104   3.085   0.047  17.245 -0.1347  0.0612  0.0686
 9251W        W28105   3.138  16.892   1.345  0.0705  0.1468  0.0476
 9252W        W28106  12.656   4.029  12.567 -0.0741 -0.2713  0.2382
 9253W        W28107   0.331   9.368   2.492  0.3351  0.0581  0.1108
 9254W        W28108   0.009   2.517   3.256  0.0156 -0.0908  0.0521
 9255W        W28109   9.634  14.083  16.786 -0.0564  0.0281  0.0445
 9256W        W28110  12.114   9.434  15.465  0.1316  0.0669  0.2490
 9257W        W28111   3.840   0.928   4.668  0.2980  0.0097  0.1330
 9258W        W28112   0.908   0.152   0.276 -0.1516 -0.3870 -0.3427
 9259W        W28113   3.335  17.441   4.107 -0.0686  0.1933 -0.1771
 9260W        W28114   7.711  16.942  14.119  0.1897  0.0367  0.3399
 9261W        W28115  11.975  12.613  13.987 -0.0035 -0.1982  0.0537
 9262W        W28116  10.314  11.810   0.318  0.0523 -0.0801 -0.2318
 9263W        W28117  12.415   5.591  15.529  0.1529  0.0673 -0.2446
 9264W        W28118   7.889   9.715   4.918  0.1786  0.1959  0.2086
 9265W        W28119   2.721   9.207   0.411  0.1146  0.0075  0.0727
 9266W        W28120  17.554  17.189  13.278 -0.1162 -0.1188  0.0487
 9267W        W28121  12.886  17.594  15.384  0.1538  0.0125 -0.0244
 9268W        W28122  11.026  16.089   1.128  0.0630  0.0478 -0.0809
 9269W        W28123   6.929   8.259   0.922  0.0230  0.1135  0.0061
 9270W        W28124   5.203   1.025   1.333  0.0059  0.0773  0.0292
 9271W        W28125   5.559   2.841  15.261 -0.2954  0.2653 -0.0886
 9272W        W28126  10.034  11.346  16.059 -0.3118 -0.0969 -0.0540
 9273W        W28127   9.653   2.805  14.064 -0.2805  0.1720  0.0740
 9274W        W28128  14.452  13.761   1.359 -0.0453 -0.2636 -0.1411
 9275W        W28129  15.595  13.900   3.292 -0.0068 -0.2877  0.0938
 9276W        W28130  10.666  11.475   1.511 -0.0432 -0.0443 -0.0316
 9277W        W28131   7.390   2.169   0.790  0.0369 -0.2916 -0.0716
 9278W        W28132  13.112  14.124   0.604 -0.2767 -0.2349 -0.0744
 9279W        W28133   1.366  10.404   4.315 -0.2913 -0.4978 -0.0541
 9280W        W28134   2.778   0.558   2.263 -0.0555 -0.0558  0.0203
 9281W        W28135   4.487   2.306   3.568 -0.1715 -0.0827  0.2100
 9282W        W28136   7.872   8.172  16.203  0.0962  0.1237  0.0470
 9283W        W28137  13.368   6.509   1.763 -0.0194 -0.2066 -0.1813
 9284W        W28138   7.866   3.625  15.703  0.0858  0.2666 -0.2399
 9285W        W28139  16.711  16.472   1.251  0.0720 -0.0309 -0.1845
 9286W        W28140  13.469   2.053  12.303  0.1695  0.0460  0.1451
 9287W        W28141   1.284  15.119  15.026  0.5752 -0.0095 -0.0421
 9288W        W28142   9.188  11.044  16.330 -0.1507  0.0075 -0.2784
 9289W        W28143   5.274   7.246  15.592  0.0481  0.0349  0.1470
 9290W        W28144  16.525  13.824  14.064  0.0715 -0.2556  0.1641
 9291W        W28145   9.243  10.468   2.693  0.1785  0.0597 -0.2941
 9292W        W28146   7.846   5.007   3.851 -0.0377  0.0499 -0.2568
 9293W        W28147   1.102  15.698   4.695  0.1683  0.0457 -0.0285
 9294W        W28148   6.293  16.437   5.353  0.1094 -0.0373  0.2337
 9295W        W28149   2.958   7.834   2.393 -0.1273 -0.3401 -0.1298
 9296W        W28150   3.745   2.121   0.241  0.1171 -0.1610 -0.1282
 9297W        W28151   2.764   8.521  12.860 -0.0858  0.1016  0.0183
 9298W        W28152  10.716   2.395   0.089 -0.1110 -0.3249  0.1066
 9299W        W28153  13.028  14.369  16.863 -0.1680  0.1352  0.0491
 9300W        W28154   8.263  12.670   2.862  0.1496 -0.0194  0.2337
 9301W        W28155  11.050   6.042   2.638  0.0116 -0.2567  0.0626
 9302W        W28156   6.777  15.861  12.482  0.2154 -0.1276  0.2101
 9303W        W28157  15.145  13.428  14.117 -0.0752 -0.0486 -0.1311
 9304W        W28158   7.381   6.888  14.606 -0.0692  0.0767  0.0623
 9305W        W28159  11.179  14.815  14.444  0.3583 -0.3361  0.5953
 9306W        W28160   0.290  14.900  13.740 -0.2487  0.1003  0.1017
 9307W        W28161  11.911   1.863  16.845  0.1375  0.0268  0.3844
 9308W        W28162   2.956   2.751  13.888  0.1772 -0.1700  0.4435
 9309W        W28163  15.874  13.820  14.295 -0.1367  0.2133  0.1078
 9310W        W28164   1.934   3.252   3.111  0.2053 -0.0145 -0.2425
 9311W        W28165  11.429   9.653   0.983  0.1311  0.2121 -0.2556
 9312W        W28166  13.773  11.893  12.284 -0.0495 -0.0660 -0.1701
 9313W        W28167  12.188  11.029  15.125 -0.3367 -0.1839  0.0675
 9314W        W28168   9.068  10.596   1.877  0.0796 -0.1554  0.0310
 9315W        W28169   8.146  14.234  14.942  0.0632 -0.0672 -0.1935
 9316W        W28170   6.298  10.503  14.403  0.0156  0.0840 -0.1559
 9317W        W28171  17.117   0.923   5.281  0.0102  0.0258  0.0689
 9318W        W28172  14.164  13.013  14.427 -0.0100 -0.0772  0.1937
 9319W        W28173  15.027   4.680  12.498  0.1632 -0.2218  0.0068
 9320W        W28174   2.806   8.836   2.421  0.3051  0.1749 -0.0608
 9321W        W28175  15.939  11.418   1.535 -0.0151  0.0126  0.2392
 9322W        W28176  12.416   1.532   0.915  0.1834 -0.1527 -0.0779
 9323W        W28177  14.365  13.391   0.196 -0.1198 -0.1285  0.0478
 9324W        W28178  17.044  11.384   2.548 -0.0476  0.0185 -0.1320
 9325W        W28179   8.253  10.304   1.264 -0.0017 -0.0079  0.1266
 9326W        W28180   3.886   7.441   2.236  0.2357 -0.1020 -0.2832
 9327W        W28181   6.620   3.934   3.156 -0.0112 -0.1641  0.0430
 9328W        W28182  13.784   7.811  15.090 -0.2013  0.1993  0.0032
 9329W        W28183   2.895  14.129  16.893  0.2379 -0.1082 -0.1412
 9330W        W28184  13.816   2.131  13.155  0.0335 -0.0458  0.1281
 9331W        W28185  14.329  12.194   0.683 -0.1295 -0.1224  0.1156
 9332W        W28186   2.572  12.692  13.375 -0.2409 -0.1079 -0.4104
 9333W        W28187   4.093   7.261  14.343 -0.0294 -0.0934  0.2181
 9334W        W28188   0.593  13.954  17.184  0.1129 -0.0403 -0.0191
 9335W        W28189   6.151   9.146  14.468 -0.0636 -0.2024  0.1242
 9336W        W28190   0.106   2.252  14.133 -0.0595  0.0380  0.0110
 9337W        W28191  16.633  16.744  14.927  0.1250  0.1824  0.1298
 9338W        W28192  16.718  17.575  12.788 -0.0156 -0.2132 -0.0366
 9339W        W28193  11.418   9.222   4.086 -0.0986 -0.2370  0.2359
 9340W        W28194   1.075  14.382   5.358 -0.1741 -0.0062 -0.0571
 9341W        W28195   8.483   6.533   0.340 -0.1999 -0.0611 -0.1991
 9342W        W28196   0.575   0.600  16.137  0.1949  0.4123  0.3084
 9343W        W28197  13.305  13.976  14.995  0.3213  0.1458  0.4036
 9344W        W28198  10.366   6.765   1.496  0.0797 -0.0684 -0.2160
 9345W        W28199   7.140  16.670   0.235  0.3004  0.1677  0.1558
 9346W        W28200  12.271  14.240   3.211  0.2550 -0.1010  0.0111
 9347W        W28201   1.847   8.059   2.766  0.2534  0.0212 -0.1414
 9348W        W28202   8.344   2.688  13.856  0.1554  0.0534 -0.1172
 9349W        W28203   7.322  12.680  15.606 -0.1680  0.2981 -0.3577
 9350W        W28204   8.259   3.913   1.928  0.3367 -0.1053  0.0433
 9351W        W28205   5.262   9.323  14.418  0.1080  0.2395  0.3125
 9352W        W28206   6.215   4.933  16.008  0.0654 -0.4672 -0.3288
 9353W        W28207   8.716   3.879  13.445  0.3136  0.3799  0.0505
 9354W        W28208   5.555   1.423  14.715  0.0787  0.0992 -0.0071
 9355W        W28209  14.933   0.597  16.422  0.1802 -0.1660  0.0984
 9356W        W28210   2.224  15.549   3.551 -0.2586  0.2407  0.1754
 9357W        W28211   5.109   9.773   4.595 -0.0567 -0.2912 -0.0574
 9358W        W28212   3.179  16.456   3.030  0.1540  0.0194 -0.0187
 9359W        W28213   5.177   9.118   3.518  0.0028 -0.0155  0.0825
 9360W        W28214   3.577   3.187  13.295 -0.5686 -0.2727 -0.0584
 9361W        W28215   9.546   1.842  12.824 -0.0064  0.2346 -0.2332
 9362W        W28216  11.700  11.038  16.804 -0.1184  0.0386 -0.0143
 9363W        W28217   6.119   1.807   3.206 -0.1473 -0.0735  0.1125
 9364W        W28218  11.571  16.559  12.974  0.1499  0.1577 -0.2791
 9365W        W28219   6.920   7.430  15.659 -0.0950  0.2809 -0.0446
 9366W        W28220   2.198   5.607  14.879 -0.1307  0.3249 -0.1414
 9367W        W28221   6.693  13.098   3.668 -0.3938 -0.0649  0.3119
 9368W        W28222   7.759  12.030   3.469 -0.1388 -0.1339 -0.4289
 9369W        W28223  11.217  13.683   3.369 -0.0370  0.0518  0.0098
 9370W        W28224   0.684   1.803  14.092 -0.2219  0.0601  0.5004
 9371W        W28225   7.551   6.827   2.200  0.0092  0.2834  0.4215
 9372W        W28226   0.437  10.022   5.870  0.0406 -0.3355 -0.1604
 9373W        W28227  13.613   9.761  14.475 -0.3975 -0.2538  0.2572
 9374W        W28228  14.069   3.492   0.143  0.0052 -0.2733 -0.2146
 9375W        W28229  14.996   4.129  12.480  0.0925  0.2400 -0.1359
 9376W        W28230  13.612   5.506  14.224 -0.0047 -0.1888  0.1044
 9377W        W28231   9.950  16.903  16.211 -0.0754 -0.2814  0.3908
 9378W        W28232   8.947  16.717   2.613  0.3357  0.1502  0.1915
 9379W        W28233  14.412   7.990   2.864 -0.0406  0.0665  0.2721
 9380W        W28234   3.692   9.117   1.774 -0.0351  0.0047  0.1106
 9381W        W28235   9.553   6.922  12.158 -0.3372 -0.2581  0.1561
 9382W        W28236   5.448  14.554   4.671  0.0093  0.1806 -0.0070
 9383W        W28237   6.601  13.383  15.617  0.1341  0.0151  0.1695
 9384W        W28238   7.653  15.747  15.270 -0.0000 -0.1435 -0.2406
 9385W        W28239  15.919   5.546  13.903 -0.2870  0.0622 -0.1413
 9386W        W28240   5.257   7.011  13.270  0.1296  0.0809  0.0134
 9387W        W28241   5.650   7.423   0.155  0.0274 -0.3179  0.2644
 9388W        W28242   8.761   0.134  16.173 -0.0149 -0.5742  0.0316
 9389W        W28243  14.102   9.764   0.535  0.0069 -0.2353 -0.0916
 9390W        W28244   2.922   0.521  12.514 -0.1076  0.1375  0.0521
 9391W        W28245   3.982  17.522  13.389 -0.1463 -0.0022  0.0963
 9392W        W28246  12.702  13.686  15.791  0.1555  0.0470 -0.0191
 9393W        W28247   4.255   9.880   2.924  0.1575  0.0199  0.2344
 9394W        W28248   1.302   5.406  14.933  0.0639  0.0458 -0.2171
 9395W        W28249   1.796   1.711   2.085  0.3102  0.0538  0.2414
 9396W        W28250   2.834  12.513  17.012  0.0601  0.0880  0.1799
 9397W        W28251  10.503  15.150  14.155  0.0508 -0.0646  0.3722
 9398W        W28252  10.598   3.339  17.199  0.2702 -0.0618  0.0663
 9399W        W28253  13.083   7.925   4.898 -0.1020 -0.0162 -0.0420
 9400W        W28254  15.196   1.186  17.204 -0.1718 -0.2501 -0.0976
 9401W        W28255   8.668  16.362   0.850 -0.0843  0.0612  0.0488
 9402W        W28256   1.244   8.359  15.010 -0.0284 -0.0559 -0.2711
 9403W        W28257  12.877  15.834  15.215 -0.0650 -0.4188 -0.1396
 9404W        W28258  15.233   3.156   2.026 -0.0303 -0.1573  0.1861
 9405W        W28259   4.333  11.600  16.798 -0.0494  0.1013  0.1363
 9406W        W28260  15.754  13.604   0.794 -0.2052 -0.2193  0.0677
 9407W        W28261  16.766   6.902   0.837 -0.0501  0.1847 -0.1788
 9408W        W28262  10.380  16.670  14.261  0.2897 -0.1361 -0.0185
 9409W        W28263   6.411   5.811   1.700  0.1246  0.0280 -0.2300
 9410W        W28264  11.256  16.252  12.772  0.2289  0.1249  0.0053
 9411W        W28265  10.539  14.674   2.105 -0.0783 -0.0102  0.0111
 9412W        W28266  14.843   6.464   1.165  0.1675  0.0287 -0.0760
 9413W        W28267  17.028   1.908  13.661  0.2293  0.0264 -0.3905
 9414W        W28268   6.797  14.376  16.570 -0.1041 -0.0479  0.0880
 9415W        W28269  15.148   1.572  13.307 -0.1398 -0.0771  0.0665
 9416W        W28270  12.056   2.698   2.991  0.2575  0.0025  0.1396
 9417W        W28271   5.752   6.842   0.850  0.0977  0.0983  0.5279
 9418W        W28272   6.565   4.795   0.355  0.0296  0.3899  0.1606
 9419W        W28273   9.764   5.712   2.711 -0.0615  0.0381  0.0065
 9420W        W28274  15.808  12.956  16.319  0.0153 -0.1185  0.0072
 9421W        W28275  11.715  15.194  15.404 -0.0779  0.0945 -0.0985
 9422W        W28276  11.112   1.854   1.021  0.1313 -0.1179  0.0179
 9423W        W28277  11.702  15.995  17.034  0.0517 -0.0447  0.1342
 9424W        W28278   3.760   6.686  17.065 -0.1700 -0.0533 -0.0432
 9425W        W28279   9.960   9.493   2.930  0.1490  0.1629  0.1454
 9426W        W28280   0.550   4.183   2.325 -0.1054 -0.0546 -0.0500
 9427W        W28281   4.260   1.639  13.308  0.2048  0.2547  0.0276
 9428W        W28282   1.173  12.306  13.822 -0.0769 -0.2479  0.0346
 9429W        W28283   1.202   8.152  13.709  0.0451 -0.0757 -0.1541
 9430W        W28284  16.818   3.042   3.472  0.1910  0.0485  0.0425
 9431W        W28285   6.870   7.917   0.498 -0.4362  0.1825  0.1644
 9432W        W28286   9.029  14.399   1.220  0.1677  0.1285 -0.1505
 9433W        W28287  15.392  11.081  15.242 -0.1407  0.0324  0.1183
 9434W        W28288   0.817   3.833   4.245  0.1427  0.0930 -0.1241
 9435W        W28289  10.497  12.736   2.203  0.0391  0.0815 -0.0382
 9436W        W28290  15.188   5.103  12.167  0.0701 -0.2877 -0.1086
 9437W        W28291  11.787   6.238  12.894  0.0100 -0.1828 -0.3228
 9438W        W28292   3.540  10.590   3.997  0.1317 -0.0178  0.0551
 9439W        W28293   7.132  15.705   3.627 -0.0712  0.0315 -0.1991
 9440W        W28294  14.960  17.185   1.962  0.0293  0.4078 -0.3230
 9441W        W28295  14.423  17.445  12.336 -0.1729 -0.1375 -0.0972
 9442W        W28296   4.099  15.031  16.981 -0.0369  0.2861 -0.0988
 9443W        W28297  12.842  15.446  16.424  0.0547  0.3050  0.3144
 9444W        W28298  13.668  13.202  13.935  0.3081  0.0744 -0.1415
 9445W        W28299  12.946  11.387   3.935  0.2160 -0.4511 -0.0691
 9446W        W28300   1.613  12.456   0.030  0.2131  0.0816  0.1177
 9447W        W28301   3.389   1.315   0.695 -0.0426  0.0459 -0.1476
 9448W        W28302   3.582   6.120   3.718 -0.4322 -0.3478  0.0129
 9449W        W28303  13.986  11.877  17.003 -0.3613  0.3266  0.3684
 9450W        W28304   8.712   6.258  15.123 -0.0268 -0.2560 -0.4455
 9451W        W28305   3.330   4.421   0.407 -0.0334 -0.3835  0.3235
 9452W        W28306   2.866   6.967   2.103 -0.0505  0.0181  0.3146
 9453W        W28307  14.529  15.512   0.162  0.0489 -0.4488 -0.1358
 9454W        W28308   4.643  15.634   3.680 -0.0139 -0.1588 -0.0361
 9455W        W28309   0.569   0.741   0.895  0.0662  0.1955 -0.0041
 9456W        W28310   7.149  10.925  15.581 -0.3231  0.1419 -0.2137
 9457W        W28311  13.533   7.205   1.990 -0.2139  0.0163 -0.0443
 9458W        W28312  14.221   8.970   1.095  0.0213 -0.1439 -0.1249
 9459W        W28313   3.352   3.628  14.510  0.1358 -0.1974  0.0925
 9460W        W28314   7.973   0.296   1.030 -0.1537 -0.1502  0.2022
 9461W        W28315   8.073  11.285   1.042 -0.0341  0.0039  0.0594
 9462W        W28316  14.072  12.094  14.864  0.0310 -0.1826  0.0891
 9463W        W28317  14.803  15.418   0.570 -0.0260  0.0850  0.1462
 9464W        W28318   3.350   3.971  12.392  0.1011  0.2771  0.1306
 9465W        W28319  17.226   8.760   1.129  0.3339  0.0056 -0.2951
 9466W        W28320   5.596   5.152   0.315 -0.2010  0.0118  0.3895
 9467W        W28321  13.355  10.249  17.203  0.1229 -0.2156 -0.0099
 9468W        W28322  16.023  13.063   5.852  0.0291 -0.0249  0.0462
 9469W        W28323  14.438   9.587   0.006  0.0489  0.1991  0.1249
 9470W        W28324  10.671  14.214   4.914  0.2210  0.1630  0.1966
 9471W        W28325  15.189  13.213   0.865  0.3555 -0.0342  0.0124
 9472W        W28326   3.834  13.962   5.516  0.3123  0.1390 -0.2169
 9473W        W28327  17.436  11.911  13.549  0.0246 -0.1483  0.0012
 9474W        W28328  14.220  14.142   4.895  0.3078  0.0477  0.1411
 9475W        W28329   9.250   4.586   4.471  0.1744 -0.0516 -0.0820
 9476W        W28330  17.254  16.819  13.530  0.1084 -0.3133 -0.2533
 9477W        W28331   3.955   5.613  15.280  0.2623  0.3202  0.1985
 9478W        W28332  16.756   4.969  14.721  0.1910 -0.1623  0.3162
 9479W        W28333  12.534   2.582  13.709  0.0159 -0.3998  0.2694
 9480W        W28334  16.476   2.339   0.211  0.0090  0.0645  0.0251
 9481W        W28335   8.749   0.311   3.755  0.1049 -0.1731 -0.3317
 9482W        W28336   6.586   4.231   0.504 -0.2095  0.1291  0.2032
 9483W        W28337   3.511   7.156  15.314  0.0672 -0.2132 -0.1365
 9484W        W28338   7.520   7.695   2.120 -0.0396  0.0842  0.4690
 9485W        W28339   9.689   9.490   0.558 -0.0463 -0.0355  0.1021
 9486W        W28340  17.477   9.526   3.504  0.1543 -0.1546  0.0824
 9487W        W28341  12.664   1.791  12.056 -0.0110  0.1395  0.2736
 9488W        W28342   7.588  14.408  13.891  0.1846  0.0225  0.2337
 9489W        W28343   8.552   3.061  16.559 -0.0862  0.2089  0.3210
 9490W        W28344   7.927   6.317  15.708 -0.0611  0.0210 -0.1707
 9491W        W28345   8.392   4.922   3.771 -0.0274 -0.2209 -0.0262
 9492W        W28346  10.776  10.650   3.158 -0.2259 -0.0289  0.0705
 9493W        W28347   0.852  12.187   0.326 -0.3090  0.0089  0.0635
 9494W        W28348   8.704  17.434   4.109 -0.3730  0.0850 -0.1605
 9495W        W28349  10.531  11.181  14.768 -0.0217  0.2565  0.1421
 9496W        W28350  10.462   8.480  15.134  0.3654 -0.0285  0.0780
 9497W        W28351   1.670   8.528  15.318  0.0942 -0.4938  0.0185
 9498W        W28352   6.251   5.942   5.136  0.3891  0.1080  0.4751
 9499W        W28353  15.121  16.470  13.570 -0.4296  0.1555 -0.0268
 9500W        W28354  12.230   2.990   2.630  0.1794 -0.0826 -0.1634
 9501W        W28355  14.745   4.740   3.724  0.4561 -0.2887 -0.3377
 9502W        W28356  13.653  14.874  12.449  0.0045  0.1040  0.1102
 9503W        W28357  11.602   6.817   0.997 -0.1616 -0.1075  0.0184
 9504W        W28358  15.270  15.133   3.569 -0.0856 -0.2551  0.2216
 9505W        W28359   5.762  17.580   0.273 -0.2698  0.2949  0.2385
 9506W        W28360  12.392   3.160   4.148 -0.2378  0.0410  0.0907
 9507W        W28361   1.611  12.722   0.714 -0.2600  0.0547 -0.0560
 9508W        W28362   5.099   4.966  15.194  0.0703  0.0095 -0.0140
 9509W        W28363   7.199  17.317  13.208  0.3188 -0.0666  0.0227
 9510W        W28364   7.495  17.519   1.249 -0.2336  0.0914  0.2259
 9511W        W28365   7.604   1.605  15.882  0.2263 -0.2445  0.0006
 9512W        W28366   2.103  14.538  12.576 -0.0005 -0.0492  0.2817
 9513W        W28367  16.558   0.914  13.737  0.0750  0.1332  0.2824
 9514W        W28368  15.935   4.295  12.904  0.1380 -0.2927  0.5192
 9515W        W28369   5.638   5.171  12.688  0.0420  0.1655 -0.1926
 9516W        W28370   0.473   4.591   5.904 -0.2504 -0.1362 -0.0867
 9517W        W28371   6.566   3.967   1.798  0.4154 -0.0936  0.0243
 9518W        W28372  12.557   4.194   4.004 -0.4811  0.3545  0.0617
 9519W        W28373  13.093  14.327   0.115  0.2610  0.0985 -0.1916
 9520W        W28374   2.468  16.255   3.948 -0.0343  0.0797  0.1247
 9521W        W28375  11.261   2.509  14.304  0.0533 -0.0991  0.0758
 9522W        W28376   8.194  12.819   1.852  0.2969  0.2377  0.0207
 9523W        W28377  10.007  13.859   5.486 -0.3087 -0.3373 -0.3936
 9524W        W28378  13.208  12.613  15.328 -0.0573 -0.0114 -0.0087
 9525W        W28379   6.714  15.821   0.267 -0.0053  0.0462  0.0478
 9526W        W28380  15.541   6.144  12.973  0.2574 -0.1003 -0.0156
 9527W        W28381   0.558  15.348  12.238  0.1886 -0.1633 -0.0793
 9528W        W28382   6.923   0.760   1.695 -0.0720 -0.1105  0.1745
 9529W        W28383  11.969   0.167   3.765  0.1705 -0.0026  0.3005
 9530W        W28384  12.565  12.840   0.631 -0.1764 -0.0943  0.4733
 9531W        W28385  16.349   2.344  15.038 -0.1990 -0.0064  0.1793
 9532W        W28386   9.724  11.081  16.338  0.2735 -0.1284 -0.0511
 9533W        W28387   5.998  11.766   5.153 -0.0038 -0.0308  0.0053
 9534W        W28388  10.611  10.935   1.500 -0.1306  0.2332 -0.3461
 9535W        W28389  15.155  16.828   2.879  0.0120  0.1919 -0.1214
 9536W        W28390   8.681  11.795  12.645 -0.2310 -0.2565 -0.2141
 9537W        W28391   1.513   7.442  12.342 -0.0114  0.0573  0.4940
 9538W        W28392   5.261   6.888  12.139  0.1682 -0.0043  0.4761
 9539W        W28393   2.897  13.183   1.999 -0.1259 -0.0095 -0.0462
 9540W        W28394   9.463   7.064   4.413 -0.1404  0.1598  0.1562
 9541W        W28395  11.745   7.276   1.956  0.0312 -0.1420 -0.0903
 9542W        W28396  17.075   8.628  14.066  0.0741  0.0732  0.3985
 9543W        W28397   9.375   1.539   4.032  0.1800 -0.1367 -0.3581
 9544W        W28398  10.760   0.876  15.178 -0.4018 -0.2942 -0.0096
 9545W        W28399   6.797   0.930  13.400 -0.1433  0.2142  0.1250
 9546W        W28400  10.229   4.245   4.517  0.0891  0.0044 -0.0903
 9547W        W28401   6.617   3.535  15.481 -0.1981 -0.2782  0.1563
 9548W        W28402   6.059   9.668   1.295  0.1652 -0.1095  0.2386
 9549W        W28403   1.280  13.760  12.570 -0.0266 -0.0139  0.1383
 9550W        W28404   7.725   2.006  16.615  0.0448 -0.2637  0.2610
 9551W        W28405  16.371   5.935  16.401  0.0484  0.1503 -0.1393
 9552W        W28406   2.454  15.178  13.387  0.0592 -0.1898 -0.0712
 9553W        W28407  16.328   2.923  14.869 -0.2724 -0.2134 -0.2066
 9554W        W28408   2.704  10.408  17.062  0.0414  0.0377 -0.0528
 9555W        W28409  14.648   3.132  12.361  0.0660 -0.1885  0.1540
 9556W        W28410   2.336  13.974   4.876 -0.2145  0.1816 -0.0613
 9557W        W28411  11.626   2.599  12.520 -0.2554 -0.0182 -0.2470
 9558W        W28412  16.701   5.280  11.203 -0.0835  0.3733 -0.1531
 9559W        W28413   5.085   3.914  13.860 -0.0868  0.1563  0.0038
 9560W        W28414   3.873   0.314   3.080 -0.0818 -0.0109  0.1923
 9561W        W28415   6.165   4.313  14.262 -0.0525  0.1752 -0.1044
 9562W        W28416   2.605   0.772   3.627  0.0889 -0.0427  0.0381
 9563W        W28417   3.238  14.459  14.293  0.1428  0.0982  0.0320
 9564W        W28418  13.133   8.486   1.996  0.0817  0.0035  0.1029
 9565W        W28419  10.017   5.557  16.422  0.0596 -0.0523  0.0260
 9566W        W28420  14.074   0.878  14.617  0.0911  0.0270 -0.2109
 9567W        W28421   4.111  14.560  12.280 -0.0545 -0.0825 -0.1393
 9568W        W28422   2.680   0.650  15.047 -0.0215  0.0278 -0.1226
 9569W        W28423  13.250   0.869  15.089  0.2485  0.0747 -0.2696
 9570W        W28424   2.426   0.890   0.994  0.1331 -0.3238 -0.0992
 9571W        W28425   9.007   8.550   4.465  0.5071  0.0576  0.2308
 9572W        W28426   1.343   4.068   5.161  0.0869  0.1779  0.0630
 9573W        W28427   3.779   6.783   1.455  0.0831 -0.2251  0.1966
 9574W        W28428   3.421  11.635  15.825 -0.0823 -0.0634  0.0273
 9575W        W28429   2.436  12.858  15.147 -0.0443 -0.3084 -0.2116
 9576W        W28430   8.582   0.951   0.547  0.3073 -0.1244  0.0100
 9577W        W28431  12.287  13.411  15.918  0.3887 -0.0460  0.1865
 9578W        W28432   7.381   5.188  15.348 -0.0439  0.0233  0.2609
 9579W        W28433  15.870  10.285  11.907  0.0839 -0.0391  0.1142
 9580W        W28434   7.563  14.395   5.204  0.0666 -0.0388  0.0324
 9581W        W28435   5.259  14.374  14.376  0.2849 -0.2748  0.2199
 9582W        W28436  12.846   8.260   1.014 -0.3806 -0.3235 -0.0416
 9583W        W28437   8.796  11.322  16.429  0.2753 -0.1157  0.1811
 9584W        W28438   4.154   7.238   3.398 -0.4691  0.1212 -0.0498
 9585W        W28439   5.606   8.898   3.257  0.1960  0.2301 -0.3009
 9586W        W28440   5.171   2.010  15.128 -0.0969  0.0437 -0.1067
 9587W        W28441   9.799  12.789   3.473 -0.1014  0.1714  0.1144
 9588W        W28442  15.127   1.494  12.742 -0.0158 -0.1077 -0.2867
 9589W        W28443  11.206   7.556  16.224 -0.1580  0.3218 -0.1883
 9590W        W28444   8.016   0.947   2.189  0.0534 -0.0605  0.3568
 9591W        W28445  13.019   8.342  15.403  0.1608 -0.1297  0.4597
 9592W        W28446  13.141   6.959   1.588 -0.0331 -0.1561  0.0369
 9593W        W28447   8.020   2.282   1.140  0.0388 -0.0537 -0.0103
 9594W        W28448   7.907   3.654   1.189  0.0198  0.4359 -0.2365
 9595W        W28449   5.786   0.880  15.075 -0.0292 -0.0007  0.1919
 9596W        W28450   1.008  11.724  13.228 -0.1390  0.0960 -0.1738
 9597W        W28451   7.826  16.049  13.126  0.0351  0.0584 -0.0871
 9598W        W28452   3.772  12.583   1.694  0.0140 -0.0860  0.1550
 9599W        W28453   4.253   7.080  16.591 -0.0986 -0.2993  0.1099
 9600W        W28454   7.013   4.843  17.163  0.2179  0.3316 -0.5338
 9601W        W28455  16.931   4.393  15.370  0.2186 -0.0581  0.0075
 9602W        W28456  12.786   3.570  12.548  0.2589  0.2120 -0.0930
 9603W        W28457   7.104  14.715   0.878  0.0403 -0.0573 -0.2959
 9604W        W28458   3.115  15.305   4.513 -0.0978 -0.0750  0.0236
 9605W        W28459   2.819   3.227   3.404 -0.0980 -0.2301 -0.2657
 9606W        W28460   8.761   3.355  16.117 -0.1154 -0.2440 -0.1836
 9607W        W28461   1.225  15.586   2.145 -0.0371 -0.0672 -0.2178
 9608W        W28462  13.051   8.825  14.580  0.0749  0.2025  0.0057
 9609W        W28463  14.754   7.387  12.637 -0.1429  0.0409  0.1141
 9610W        W28464  10.754  11.300  12.028 -0.1613 -0.0405  0.0171
 9611W        W28465  13.068   4.158   0.152 -0.0494  0.1776 -0.1399
 9612W        W28466  10.951   2.079  16.974 -0.3634  0.0278  0.4495
 9613W        W28467   0.763  15.716   2.190  0.2447  0.2500 -0.0066
 9614W        W28468  14.089   5.884  12.629  0.0814  0.0059  0.1277
 9615W        W28469   7.455   5.756   4.528 -0.0432  0.0508  0.1794
 9616W        W28470   4.581   7.153   2.451 -0.1499  0.2040 -0.1530
 9617W        W28471  14.511   3.336  16.690 -0.0161 -0.0698 -0.0220
 9618W        W28472   0.020   8.609  13.378 -0.0161  0.1073  0.1878
 9619W        W28473  15.997   1.116  16.644  0.4400 -0.1495  0.0571
 9620W        W28474  15.401   5.153  13.229 -0.0809  0.1014 -0.0930
 9621W        W28475  11.065   0.980  15.563 -0.0089  0.3123  0.1967
 9622W        W28476   5.628   5.003  14.751 -0.0641 -0.0232  0.0710
 9623W        W28477   4.530   1.826   4.393 -0.1166 -0.1636  0.2467
 9624W        W28478  17.347   4.234  17.107  0.1065  0.1825  0.1724
 9625W        W28479  15.225   9.661   4.561  0.3737  0.0447  0.1414
 9626W        W28480  16.886  15.602  12.867 -0.0958  0.1117  0.1126
 9627W        W28481   8.385  11.608   1.298  0.3028  0.0703 -0.0957
 9628W        W28482   0.101  16.482   0.622  0.1320  0.0792 -0.0527
 9629W        W28483  14.693   5.114  15.451  0.1110 -0.3285  0.0248
 9630W        W28484   9.594   2.629  15.593  0.0242 -0.0749 -0.0304
 9631W        W28485   9.816  11.428  13.467  0.0245  0.1413  0.2851
 9632W        W28486   9.629  12.611  15.877  0.2186 -0.0783 -0.1907
 9633W        W28487  17.238   4.547  13.262  0.0356 -0.2843  0.0533
 9634W        W28488   1.952  13.528  15.727  0.1164 -0.1174  0.0762
 9635W        W28489  13.332   3.223   0.739 -0.2646 -0.0877  0.1166
 9636W        W28490   0.515  15.592  11.804  0.4336  0.0228 -0.0558
 9637W        W28491   1.469  16.696  16.885 -0.1700 -0.1385  0.3356
 9638W        W28492   9.064   5.684  12.791  0.2171 -0.2273  0.0370
 9639W        W28493  14.815   9.405  13.804 -0.2254 -0.0342 -0.0590
 9640W        W28494   7.845  11.617   3.795 -0.1165  0.2339 -0.2872
 9641W        W28495  15.246   4.774  16.946 -0.0029  0.2964  0.2070
 9642W        W28496   8.876  10.619   2.976  0.4179 -0.2777 -0.0098
 9643W        W28497   3.903  11.868  16.842  0.2897 -0.0333  0.1223
 9644W        W28498   7.882   1.231   0.175 -0.1485 -0.0345  0.3919
 9645W        W28499   5.905   3.098  17.012  0.2461  0.1734  0.0403
 9646W        W28500   7.512   6.721  15.050  0.0756 -0.1881  0.2394
 9647W        W28501  10.143   8.114   1.196 -0.1301  0.0282  0.1838
 9648W        W28502  14.767   7.439  16.754  0.1519 -0.1550  0.1154
 9649W        W28503  14.295  15.048   4.467 -0.0002 -0.1054  0.0277
 9650W        W28504  15.304   0.364  15.733  0.1620 -0.0279 -0.2883
 9651W        W28505  10.579   9.345  14.039  0.1443  0.0328 -0.0553
 9652W        W28506  13.513   6.494   1.213 -0.1383 -0.0822 -0.0377
 9653W        W28507   7.255  16.487   1.431  0.2371  0.0623 -0.4168
 9654W        W28508  10.739   1.931  14.811  0.1192 -0.1460  0.1825
 9655W        W28509   2.813  12.231   2.114 -0.0055  0.0619 -0.0809
 9656W        W28510   4.121  17.445   2.890  0.1933  0.0886  0.0720
 9657W        W28511  13.907   9.616   0.103 -0.2155 -0.1225 -0.0588
 9658W        W28512  16.289  10.180  14.787 -0.1313  0.1525 -0.0275
 9659W        W28513   4.805   4.507   0.509 -0.1626 -0.0533  0.2341
 9660W        W28514  12.713   4.414  16.114  0.2101 -0.2287  0.4715
 9661W        W28515  16.929   3.218   3.947  0.1064  0.0972  0.1856
 9662W        W28516  16.043   3.462   3.521 -0.0770  0.1152  0.1687
 9663W        W28517  14.850  14.604   0.377 -0.2357  0.2652 -0.0374
 9664W        W28518   5.561  13.080  15.717 -0.0395 -0.5040 -0.2302
 9665W        W28519  12.520  15.408  12.514 -0.2752 -0.2719 -0.3735
 9666W        W28520  17.600  12.573  12.820  0.1441  0.0452  0.0872
 9667W        W28521   7.237   3.195   3.133 -0.1342  0.3452  0.1655
 9668W        W28522   4.349   1.427  16.011 -0.1117  0.0561  0.0646
 9669W        W28523   6.084  15.081  16.298  0.0774  0.2306 -0.1429
 9670W        W28524   0.106   8.528   6.552 -0.0698  0.2025 -0.4263
 9671W        W28525  15.994  10.484   1.231 -0.0621  0.1555  0.3099
 9672W        W28526   9.018  11.610  15.268 -0.0951  0.2340 -0.1091
 9673W        W28527   0.475  11.606   2.962 -0.0004 -0.0187 -0.1072
 9674W        W28528   7.924   0.134   3.748 -0.0729  0.3071  0.1471
 9675W        W28529   7.611   6.820   4.485 -0.2007  0.2068 -0.2036
 9676W        W28530  16.381   0.526  16.531  0.0675 -0.0242 -0.1456
 9677W        W28531  17.150  16.179  15.806 -0.1440  0.0044  0.1824
 9678W        W28532   2.801   4.009   4.124  0.0432  0.1688 -0.0406
 9679W        W28533   3.884   0.652   2.716 -0.1247 -0.1783 -0.0929
 9680W        W28534  12.143  10.603   0.663 -0.3213  0.3029  0.1962
 9681W        W28535  13.848   8.433  13.134  0.0197  0.1382 -0.1276
 9682W        W28536  17.121  17.457   2.809 -0.3630 -0.0223  0.3860
 9683W        W28537   7.071   4.871  16.686 -0.0282 -0.2387  0.1127
 9684W        W28538   6.099   8.718   0.617  0.0265  0.1253 -0.0873
 9685W        W28539  16.334  13.768  14.591 -0.1976 -0.3754  0.0798
 9686W        W28540  10.657   5.396   3.796  0.0794  0.1316  0.1462
 9687W        W28541   5.686   5.696  14.083  0.4823 -0.0772  0.0594
 9688W        W28542   8.951  15.533  15.883 -0.0536 -0.1154  0.0149
 9689W        W28543  10.804  13.798   5.978  0.3199  0.0910 -0.1825
 9690W        W28544  11.878   4.470  13.555  0.2715  0.2745 -0.1283
 9691W        W28545  13.214   0.909   2.476  0.1454  0.0687  0.0756
 9692W        W28546  11.182   6.990   4.651 -0.5274 -0.1210 -0.1188
 9693W        W28547   1.040   4.061   0.049 -0.2823  0.1494  0.1009
 9694W        W28548   6.670  10.787   4.821 -0.3345  0.0880  0.0774
 9695W        W28549   0.906   7.023   3.295 -0.0814 -0.1278  0.0578
 9696W        W28550   4.849  16.910   5.044 -0.0542 -0.0128 -0.0355
 9697W        W28551   4.956  10.482  17.075 -0.1659 -0.1013  0.0913
 9698W        W28552   0.184   3.245   1.611  0.0736  0.1689  0.0242
 9699W        W28553  16.669  14.600  13.204  0.0944 -0.0561 -0.0416
 9700W        W28554   4.963  13.653  14.030  0.1413  0.0521  0.4928
 9701W        W28555  14.918   5.595   1.497 -0.2337 -0.0169  0.4597
 9702W        W28556   8.348  14.591   2.816  0.1645 -0.4452  0.0532
 9703W        W28557   5.916   7.720   4.629  0.0394  0.2204 -0.3508
 9704W        W28558   4.208   8.488   2.890 -0.1124  0.2038  0.1020
 9705W        W28559   6.934   1.564  17.033 -0.1434 -0.2793  0.0879
 9706W        W28560   1.105  11.018   3.613 -0.0682  0.3676 -0.1701
 9707W        W28561  14.905  15.870  14.090 -0.1965 -0.0552 -0.0940
 9708W        W28562   9.197  16.030   3.071  0.0625  0.1165 -0.0280
 9709W        W28563  10.288  13.274   0.465  0.0961  0.3300 -0.2507
 9710W        W28564   5.373  13.654  14.929 -0.3506 -0.0422  0.1336
 9711W        W28565  10.254  14.725   0.449  0.0232  0.0737 -0.2609
 9712W        W28566  11.818  12.867   3.097 -0.2983  0.2345  0.0184
 9713W        W28567  16.617   8.633  14.266 -0.2246  0.0283  0.2061
 9714W        W28568   4.740   7.047   4.034 -0.1381 -0.0329  0.3284
 9715W        W28569  11.351   8.094  13.484  0.0647 -0.2301  0.5239
 9716W        W28570  16.498   9.533   4.086 -0.1595  0.1755  0.1414
 9717W        W28571  14.090   0.341   0.216  0.1959  0.0056  0.1844
 9718W        W28572   5.161   0.012   2.726 -0.0079 -0.1315  0.1033
 9719W        W28573   5.764  11.133   3.502 -0.3959  0.3088 -0.3420
 9720W        W28574   0.906   8.083  16.276 -0.0057 -0.0946 -0.3063
 9721W        W28575  13.757  14.334  15.502  0.3235 -0.2488 -0.0271
 9722W        W28576  17.109   4.023   4.353  0.0963  0.1336  0.1720
 9723W        W28577  12.470  10.543   4.118  0.1454 -0.0834 -0.1299
 9724W        W28578   7.796   5.234  16.683 -0.0618 -0.2499 -0.0183
 9725W        W28579  13.522   9.593  14.962  0.1436 -0.2702  0.0916
 9726W        W28580  16.814   2.956   4.385  0.3891 -0.2064 -0.1435
 9727W        W28581   4.414   7.012  14.067  0.0545  0.2356 -0.2212
 9728W        W28582  11.283   8.706  12.017 -0.1524 -0.0532 -0.1756
 9729W        W28583  13.906   0.573  12.686  0.0355  0.1157  0.3321
 9730W        W28584  15.534   0.222   2.953 -0.4238 -0.2229  0.1842
 9731W        W28585  11.756   4.746  13.169  0.0150  0.0657 -0.1556
 9732W        W28586  15.184   3.466  16.127  0.2199  0.0189  0.2853
 9733W        W28587  17.506   3.511   1.942 -0.1779  0.2028 -0.1195
 9734W        W28588  16.952   1.250  13.187  0.0388 -0.3520  0.0295
 9735W        W28589  13.971   8.262  16.839 -0.2401 -0.0909 -0.0852
 9736W        W28590   0.562  10.383  17.088  0.0746 -0.4027  0.1814
 9737W        W28591   4.810  12.440  12.202 -0.0337 -0.1628 -0.0537
 9738W        W28592  13.981   8.236  13.908 -0.1845 -0.6124  0.1300
 9739W        W28593   7.539   6.941  13.086 -0.1769  0.0213  0.1520
 9740W        W28594   8.909   1.617  15.657  0.2371  0.1090  0.0384
 9741W        W28595  15.845  15.491   0.497  0.1540 -0.2944 -0.1637
 9742W        W28596   2.583  16.269   1.366  0.0337  0.0555  0.0765
 9743W        W28597  11.101   5.579   4.026 -0.2101  0.2849 -0.0995
 9744W        W28598  10.171   6.930   3.827 -0.2215 -0.3032  0.1322
 9745W        W28599   6.568   1.437   3.085  0.0055 -0.0710  0.0483
 9746W        W28600   8.656   9.798  16.738  0.0575  0.0385 -0.2118
 9747W        W28601  13.813  16.584  13.388  0.2906 -0.2218 -0.1630
 9748W        W28602  10.679  17.084   3.054 -0.0770  0.2823 -0.2413
 9749W        W28603   3.906   6.463  15.801  0.2016  0.0964  0.0136
 9750W        W28604   5.410   7.208  13.755  0.0813 -0.2366 -0.0112
 9751W        W28605   4.111  17.301   4.786  0.0798  0.0912 -0.0782
 9752W        W28606  10.249   6.337  16.887  0.0151 -0.0510 -0.0811
 9753W        W28607  14.031  12.652  15.919 -0.0811 -0.1596  0.3584
 9754W        W28608  15.663   2.218  17.072  0.2580  0.1439 -0.3792
 9755W        W28609  12.268   8.351   5.108 -0.1494  0.2793 -0.0930
 9756W        W28610   1.433  12.621   3.924  0.4563  0.0925  0.2872
 9757W        W28611   6.821   2.644  12.950 -0.0948 -0.1789  0.0350
 9758W        W28612   0.796   4.469   1.387  0.0046 -0.0033  0.1817
 9759W        W28613  15.261  12.960   1.615 -0.0033  0.2043 -0.3969
 9760W        W28614  13.298  17.558  12.286 -0.1000  0.1797 -0.0815
 9761W        W28615   9.194   0.817   0.608  0.2086  0.1134 -0.1086
 9762W        W28616   7.852   5.259  14.003  0.0865  0.2650  0.1761
 9763W        W28617   4.392  15.075  13.840 -0.1128  0.0928  0.0542
 9764W        W28618   5.209   2.413   0.313 -0.2079  0.2051  0.0190
 9765W        W28619   9.987  11.873   2.296 -0.1514  0.0840 -0.2223
 9766W        W28620   4.402  14.919  12.228 -0.0916 -0.3896  0.2023
 9767W        W28621  15.077   1.077  12.270 -0.0750  0.1224 -0.0702
 9768W        W28622   1.004  14.605  13.422 -0.1257 -0.0774  0.0622
 9769W        W28623   3.283  11.782   3.815 -0.0358  0.0222  0.2386
 9770W        W28624  11.529  11.379  15.119  0.1087 -0.1640 -0.1787
 9771W        W28625   0.472  15.221  14.486  0.0559  0.3788 -0.0771
 9772W        W28626  15.368   1.516   3.467 -0.4020  0.2013  0.1180
 9773W        W28627   7.473   8.135   1.878  0.0113 -0.1604 -0.0506
 9774W        W28628  17.228   0.930  14.631 -0.0628  0.1524  0.1368
 9775W        W28629   6.599  16.633   3.892  0.0161 -0.1735  0.0067
 9776W        W28630   4.717   0.890   0.140 -0.0486  0.0865  0.0294
 9777W        W28631  11.927  16.945  14.333  0.3567 -0.0613 -0.1336
 9778W        W28632  14.890   6.591  15.885 -0.0011  0.0828 -0.1984
 9779W        W28633   2.460  13.895   3.948 -0.1054 -0.1772 -0.3426
 9780W        W28634   3.042   8.690   4.445 -0.0062 -0.2654  0.2497
 9781W        W28635  14.899  14.521   2.781  0.1510 -0.2908 -0.0554
 9782W        W28636   0.852  13.275   3.828  0.5414 -0.1680  0.1811
 9783W        W28637   8.138   5.879   3.470  0.0174  0.0492  0.1280
 9784W        W28638  11.360  12.036   4.379 -0.2344 -0.2132 -0.0578
 9785W        W28639  13.285   1.336  14.937 -0.2411 -0.5241  0.2349
 9786W        W28640   6.036   0.699   2.754  0.0703 -0.1775 -0.1612
 9787W        W28641  12.693  16.500   2.660 -0.5152 -0.1244  0.2814
 9788W        W28642   2.130  17.349  16.722 -0.1564  0.2292 -0.3783
 9789W        W28643   7.747   1.174  12.507 -0.2077  0.0042  0.1257
 9790W        W28644  10.207   1.290  17.199  0.0007  0.0966  0.0008
 9791W        W28645  15.005   4.249  16.681 -0.0513  0.0601 -0.0908
 9792W        W28646  16.379   9.016   2.721  0.1705 -0.0208 -0.1398
 9793W        W28647  10.879   5.057  16.331 -0.0404 -0.2363 -0.5860
 9794W        W28648   8.512  16.196   2.725 -0.1391  0.0199 -0.1325
 9795W        W28649   9.356   3.874   2.549  0.2721 -0.0578 -0.1543
 9796W        W28650   8.712   3.961  16.430  0.0783  0.2757  0.2372
 9797W        W28651  15.071  10.664   1.557 -0.1830  0.3583  0.0952
 9798W        W28652  11.959  15.433  14.758  0.2744  0.1330 -0.0468
 9799W        W28653   4.404   5.924   0.890  0.1855  0.0531  0.1302
 9800W        W28654   9.369   7.355   3.445  0.0279  0.3808 -0.1305
 9801W        W28655   3.561   2.368   2.226 -0.1722  0.0088 -0.2840
 9802W        W28656  10.873  16.456   2.405  0.1934  0.0434 -0.0509
 9803W        W28657  13.829   9.081  16.599 -0.0749 -0.0299 -0.2341
 9804W        W28658   8.117   5.795   3.956 -0.0969 -0.0049  0.1319
 9805W        W28659  11.541   4.912  14.462  0.0188  0.0135  0.1436
 9806W        W28660  13.382  11.421   6.033 -0.0874 -0.0648 -0.0365
 9807W        W28661  11.093   0.908  17.013  0.1864  0.0138 -0.3082
 9808W        W28662  17.050  11.461  12.794  0.0663  0.0609  0.0935
 9809W        W28663   8.904   6.216   4.085  0.2597 -0.0211  0.1572
 9810W        W28664   4.678   7.470   0.554  0.3138  0.3247  0.1584
 9811W        W28665   5.771  14.707  16.280 -0.2557 -0.0434  0.0197
 9812W        W28666   2.974   7.853   4.936 -0.3189 -0.1168 -0.0552
 9813W        W28667   7.278  11.408  14.648  0.0060 -0.0940 -0.1347
 9814W        W28668   7.450   5.974  13.796 -0.1267 -0.0590  0.1785
 9815W        W28669  12.793  17.433   2.924  0.1905 -0.1508 -0.1127
 9816W        W28670  12.312   1.464   4.245  0.1891 -0.1606 -0.3079
 9817W        W28671   3.460  12.336   2.896  0.1499  0.1500 -0.3716
 9818W        W28672   0.753  10.712   2.484 -0.1272  0.3761  0.0226
 9819W        W28673   1.425  14.020  14.415  0.2423  0.2181  0.0333
 9820W        W28674  11.033  15.442  16.586  0.0768 -0.4000  0.0083
 9821W        W28675   4.481   2.796   4.417 -0.1617 -0.2082 -0.1370
 9822W        W28676  11.905  16.812   3.605  0.0143  0.1869 -0.3164
 9823W        W28677   6.860   7.206   4.715  0.0388  0.2503  0.0600
 9824W        W28678  14.566  11.401  15.532  0.0198 -0.1787  0.1494
 9825W        W28679   2.703   8.047   2.870 -0.1535  0.2370  0.1122
 9826W        W28680   0.921   3.535  13.607  0.1343  0.1179 -0.0645
 9827W        W28681  12.975  12.363  16.597 -0.0816 -0.0515  0.1048
 9828W        W28682  14.081  16.288  15.251 -0.1557  0.0446  0.0413
 9829W        W28683   5.310   8.389  14.202 -0.1603  0.0900  0.0534
 9830W        W28684   1.998  15.390  13.173  0.4142 -0.2138  0.0026
 9831W        W28685  16.167  12.023   0.715 -0.0171  0.0542  0.1224
 9832W        W28686   7.115   9.221  12.336  0.1226  0.1615  0.1674
 9833W        W28687   7.491  11.993   1.017 -0.0845  0.2849 -0.1538
 9834W        W28688  16.757   0.689   2.535 -0.1914  0.1379  0.0428
 9835W        W28689   6.466   3.014  13.052 -0.4019 -0.3910 -0.1974
 9836W        W28690  13.577   0.022   3.824  0.1740 -0.1761 -0.0809
 9837W        W28691   1.612  11.360  16.629 -0.0349 -0.3715  0.0923
 9838W        W28692   3.522   3.605   4.797  0.0799  0.2618 -0.0541
 9839W        W28693  10.982   1.206   4.120 -0.0687  0.1105 -0.0635
 9840W        W28694   5.120  11.132  14.647  0.1919  0.0448  0.0913
 9841W        W28695  11.013  16.773   3.709 -0.1160 -0.1231  0.1286
 9842W        W28696   3.538   5.333  15.524 -0.0816  0.0285  0.1194
 9843W        W28697   7.456   7.131  17.135 -0.4375  0.2972 -0.4198
 9844W        W28698   1.148  16.949  16.584  0.1381 -0.3632 -0.0835
 9845W        W28699   6.153   6.425   4.233 -0.0864  0.1242  0.2358
 9846W        W28700   3.507   7.465   1.186  0.1225  0.1946  0.1874
 9847W        W28701  12.079   3.236  15.558  0.0112  0.1407  0.0995
 9848W        W28702   2.480   6.788   4.752 -0.0746 -0.0764  0.2368
 9849W        W28703  13.403  13.537  17.144  0.0416 -0.2436  0.1764
 9850W        W28704  10.092  13.294  12.541 -0.1514 -0.2496 -0.0491
 9851W        W28705   7.296  13.671  13.981 -0.2429 -0.0132  0.1291
 9852W        W28706   3.343   5.561  13.763 -0.2385 -0.0870 -0.3580
 9853W        W28707  16.440   8.028  12.660 -0.4070 -0.0438 -0.1904
 9854W        W28708   2.486  17.136  11.113  0.1963  0.0790  0.1284
 9855W        W28709   3.235   7.527  17.151 -0.0661 -0.3446 -0.1018
 9856W        W28710   8.252   1.097  12.452  0.0569 -0.2339 -0.0419
 9857W        W28711  17.083   0.338  14.467  0.1342  0.1669 -0.1939
 9858W        W28712   8.838  11.798  16.310 -0.1861  0.1613  0.4029
 9859W        W28713   9.811  11.951  17.204  0.3021  0.2930 -0.0229
 9860W        W28714   0.656  17.038  16.870 -0.0417  0.1734  0.0205
 9861W        W28715  14.414   4.766   1.082 -0.0045  0.1257  0.0974
 9862W        W28716   7.324  11.534  12.869  0.1924 -0.0070 -0.0401
 9863W        W28717   2.285  13.513  12.716 -0.1930 -0.0293  0.4389
 9864W        W28718  11.219   9.056   2.455 -0.1533 -0.1475  0.1360
 9865W        W28719  16.215   6.966  11.543  0.1070  0.2167 -0.3209
 9866W        W28720  11.050   4.618  15.440  0.0492 -0.1488 -0.1084
 9867W        W28721   1.469   4.589  13.646  0.2312 -0.1983  0.2273
 9868W        W28722  11.710   5.652   2.063  0.4307 -0.1330  0.0317
 9869W        W28723  17.399   4.994  11.814  0.0683 -0.1246  0.0607
 9870W        W28724  15.225  17.017  13.889  0.4567 -0.1011  0.2519
 9871W        W28725  10.255   2.043   1.394  0.3360  0.0630 -0.2636
 9872W        W28726  13.072  15.020  15.761 -0.2652  0.0273 -0.1777
 9873W        W28727   8.389   6.529   4.932  0.1695 -0.2457 -0.3636
 9874W        W28728   6.121  14.841   0.899 -0.0416 -0.1689 -0.0958
 9875W        W28729   7.774   4.995  13.039 -0.3487 -0.1204  0.2450
 9876W        W28730  11.230   0.486   4.140  0.1595 -0.1074  0.0451
 9877W        W28731  10.326  14.402   1.342  0.1430  0.2263  0.3152
 9878W        W28732   8.641   6.000   1.660 -0.1146 -0.0305 -0.0135
 9879W        W28733   7.690  16.687  12.588 -0.1519  0.0025  0.1072
 9880W        W28734  17.181   0.630   1.172  0.1511 -0.1107  0.1150
 9881W        W28735   9.484  14.273   1.087 -0.2021  0.0404  0.0892
 9882W        W28736   1.134  11.450   0.743 -0.1133  0.0425 -0.4612
 9883W        W28737  12.660   3.051   1.119 -0.1414  0.1473  0.2319
 9884W        W28738  11.970   7.457   5.191 -0.3339  0.0449  0.0421
 9885W        W28739   8.118  10.399  14.165  0.1166 -0.2889  0.1730
 9886W        W28740  17.424   3.763  14.714 -0.0388 -0.3017  0.0740
 9887W        W28741   5.051  14.766   4.197  0.1131 -0.0653 -0.1379
 9888W        W28742  16.328  13.326  12.787  0.0159 -0.1888  0.0656
 9889W        W28743  16.752  16.353   0.017  0.0219  0.0315 -0.0416
 9890W        W28744   1.929   4.125   2.718  0.3040  0.0018 -0.0610
 9891W        W28745   3.921   1.851  16.902 -0.0475 -0.0206  0.0236
 9892W        W28746   0.944   9.252  17.210  0.2741  0.2782  0.3020
 9893W        W28747   0.598   0.819  12.546 -0.0160 -0.0314 -0.4350
 9894W        W28748  17.157  11.952  16.957  0.0048  0.2569 -0.2808
 9895W        W28749  13.872   9.528  12.263  0.2116 -0.0076 -0.0604
 9896W        W28750   1.370  15.275   3.562 -0.2329 -0.1991  0.0237
 9897W        W28751   0.654   7.967   2.887 -0.4301 -0.2030  0.2785
 9898W        W28752   0.796  10.624  13.856  0.0496  0.3554 -0.1719
 9899W        W28753   7.808  12.488  14.448 -0.1966  0.2837  0.2003
 9900W        W28754  16.551   7.532  15.557  0.2050 -0.4365  0.1216
 9901W        W28755   7.819  14.114  15.338  0.0368  0.1192  0.0552
 9902W        W28756  14.554   3.614   1.991 -0.0028  0.0078 -0.2352
 9903W        W28757   6.850   6.444   1.854  0.0792  0.1416 -0.0267
 9904W        W28758   6.292   1.916  12.397  0.2297 -0.1058 -0.1369
 9905W        W28759  14.161  17.390   2.198 -0.0973  0.2545 -0.0311
 9906W        W28760   7.931  11.594  16.777  0.0669  0.0553  0.4439
 9907W        W28761  10.396  11.361   4.236 -0.2138 -0.1090 -0.2580
 9908W        W28762  16.971   7.440   0.849 -0.2618 -0.0266  0.0991
 9909W        W28763   9.943   1.300   0.964  0.2036 -0.2336 -0.2175
 9910W        W28764   2.908  13.427   4.572  0.0464 -0.1472  0.2348
 9911W        W28765  12.074  12.651   0.044 -0.2284 -0.1757  0.0708
 9912W        W28766  13.039  15.715   3.438  0.1170  0.2139 -0.0704
 9913W        W28767   4.333   8.543   3.801 -0.0464 -0.2379 -0.1682
 9914W        W28768  12.258  16.102   4.639 -0.1416  0.0115 -0.0854
 9915W        W28769  11.038   0.487  15.272  0.0675  0.0703  0.1191
 9916W        W28770   1.901   0.274   0.685  0.1235  0.1201  0.0977
 9917W        W28771  15.958  16.871  15.423  0.1077  0.3216  0.0948
 9918W        W28772   1.603  10.480   4.820  0.1733 -0.2079  0.2279
 9919W        W28773  13.514   8.438  13.869  0.1454 -0.1098  0.0288
 9920W        W28774  15.389   0.413   1.962  0.2117  0.3290  0.1818
 9921W        W28775   5.048  11.985  15.117 -0.2643  0.0032 -0.0186
 9922W        W28776   2.951  15.940   2.797 -0.0783  0.0335 -0.1095
 9923W        W28777   9.716   6.019  13.712 -0.0172 -0.3367 -0.2639
 9924W        W28778  15.657  16.329   0.200 -0.0140 -0.0993 -0.3517
 9925W        W28779  12.034   9.074   2.870 -0.0918  0.3767  0.2685
 9926W        W28780   2.686  17.525  16.160  0.0363 -0.1682  0.0121
 9927W        W28781   5.953   9.330  12.157 -0.3967 -0.2613  0.1866
 9928W        W28782   4.139   7.687  14.849  0.1683  0.0122  0.0257
 9929W        W28783   5.342   0.749   3.351  0.1845  0.1055  0.2957
 9930W        W28784   3.862   8.781   3.138 -0.0633  0.0305  0.1120
 9931W        W28785   0.761   1.382   4.881  0.1307 -0.0362 -0.0018
 9932W        W28786  15.339  12.469  15.510  0.0808 -0.0423 -0.1249
 9933W        W28787   0.047   7.776   1.278  0.0498 -0.1312  0.0868
 9934W        W28788  14.253  15.747   1.372  0.0800  0.1192  0.0825
 9935W        W28789  15.155   7.345   4.756 -0.2310  0.1136  0.1170
 9936W        W28790   6.708  10.040  12.821  0.0463  0.3535 -0.1270
 9937W        W28791   6.931  15.962   4.794  0.3234 -0.0895 -0.0260
 9938W        W28792   2.358  10.388  14.034  0.2515  0.2163  0.2202
 9939W        W28793  14.482   9.423   2.500 -0.2851 -0.2258 -0.1065
 9940W        W28794  16.190  14.150  15.253  0.0004  0.2406  0.1071
 9941W        W28795   8.293   7.004   3.733 -0.0282  0.0074  0.3193
 9942W        W28796  10.024  14.189   3.671  0.1421  0.1358  0.0745
 9943W        W28797   2.019  16.911  16.484 -0.0919 -0.0227  0.3994
 9944W        W28798  17.129   8.870  13.316  0.1621 -0.1585  0.0696
 9945W        W28799   1.131   4.847   1.600  0.2207  0.4437  0.2964
 9946W        W28800   7.481  11.830  11.987  0.2936 -0.0407 -0.0896
 9947W        W28801   2.674  11.074  14.586 -0.1067  0.1352  0.1354
 9948W        W28802  17.172  14.235  14.612 -0.2534  0.1856 -0.1661
 9949W        W28803   1.156  12.288   3.675  0.1375 -0.1580 -0.4851
 9950W        W28804  10.680   0.603   0.347 -0.0119 -0.3673  0.1116
 9951W        W28805  15.144  11.980  13.399  0.1552  0.2570 -0.1948
 9952W        W28806   3.772  15.406  16.087  0.2034  0.2263 -0.1161
 9953W        W28807   4.634   8.830  16.873 -0.1209  0.0180 -0.1548
 9954W        W28808  11.633   7.253  12.392  0.2535  0.1100 -0.2725
 9955W        W28809  11.779   7.198   0.134 -0.1241 -0.0140  0.0267
 9956W        W28810  14.241   1.267   3.541 -0.3545 -0.0181  0.1100
 9957W        W28811  13.674   8.540  12.307 -0.2371 -0.1966 -0.2174
 9958W        W28812   3.344  10.671  12.140  0.0653 -0.0237  0.1100
 9959W        W28813   7.041  16.351   1.018 -0.0717  0.2077  0.1661
 9960W        W28814  10.163   7.718  16.984 -0.0518 -0.1769  0.0725
 9961W        W28815   9.045   5.841  15.380 -0.4413 -0.0710  0.1757
 9962W        W28816  17.107  15.245   4.544  0.2439  0.2120 -0.1725
 9963W        W28817   0.371   2.587  13.441  0.2850 -0.0595  0.2162
 9964W        W28818   4.418   3.449   4.861 -0.2230  0.2926 -0.1140
 9965W        W28819  13.047  14.423  14.725  0.0166 -0.0967  0.0717
 9966W        W28820  12.147  10.049   2.271 -0.1479 -0.3595  0.2468
 9967W        W28821   5.740  14.941  15.747  0.0357 -0.0455 -0.0236
 9968W        W28822   0.037  15.693   0.685 -0.1687  0.2485 -0.0739
 9969W        W28823  13.179   2.575   3.620 -0.2565  0.1244 -0.0554
 9970W        W28824   3.584  10.752   5.733 -0.0103 -0.3025 -0.2409
 9971W        W28825  13.692   2.788   3.684  0.1006  0.2571 -0.2717
 9972W        W28826   2.558   7.892  17.067  0.1399  0.2541  0.1903
 9973W        W28827   6.962  14.964  17.156 -0.2938  0.0082  0.0345
 9974W        W28828   0.289  12.025   1.092  0.0420  0.1024 -0.1688
 9975W        W28829   4.572  16.662  12.692  0.0629 -0.1043  0.1239
 9976W        W28830   9.064   0.146  12.882  0.0192 -0.1466  0.2247
 9977W        W28831  13.900  10.937   2.637 -0.1942 -0.2990  0.2348
 9978W        W28832  12.655   4.694   2.934 -0.1757 -0.0045 -0.1894
 9979W        W28833   5.060  14.352   1.479  0.1349  0.0105  0.0573
 9980W        W28834  14.346   4.265  16.679 -0.2290 -0.0894 -0.3328
 9981W        W28835   5.831  17.078  14.326  0.2463  0.0867  0.1444
 9982W        W28836  13.500   3.729  12.023  0.0535  0.1410 -0.0465
 9983W        W28837   9.605  11.595   2.017 -0.1579 -0.1347 -0.0109
 9984W        W28838   5.065   7.494  13.218 -0.2301  0.1386  0.1241
 9985W        W28839   1.142   6.670   1.870  0.1110  0.0635  0.2795
 9986W        W28840  10.086  14.989   4.762  0.1621 -0.1771 -0.0862
 9987W        W28841   8.326  10.070   2.620 -0.3262 -0.2284 -0.0645
 9988W        W28842  13.076   2.154   4.012  0.1269  0.0539  0.0976
 9989W        W28843   3.580   9.403  14.478  0.0003  0.2749  0.0011
 9990W        W28844  11.962   1.415   2.684 -0.1293  0.1258 -0.0650
 9991W        W28845   2.183   5.988  12.299 -0.1308  0.0731  0.0144
 9992W        W28846   9.004   5.702   1.486  0.1425 -0.1304 -0.0777
 9993W        W28847  14.739   1.760   4.139  0.2271 -0.0789 -0.0841
 9994W        W28848  11.546  11.863  15.029 -0.0804 -0.0351  0.1205
 9995W        W28849   3.669   1.178  16.708  0.0407 -0.3040  0.1283
 9996W        W28850  13.817  12.281  14.235 -0.1980 -0.0403 -0.0313
 9997W        W28851  15.902   7.317   4.731  0.1907  0.1624  0.3734
 9998W        W28852  12.647  13.004  14.599 -0.1846 -0.0759  0.0224
 9999W        W28853  10.156  17.537  16.839  0.0865 -0.0375 -0.1561
10000W        W28854  16.865   4.671  16.434 -0.0236  0.1163 -0.2411
10001W        W28855   9.567  17.051   1.873  0.5403  0.0440  0.0987
10002W        W28856  11.825   4.614  15.742  0.3261  0.0192 -0.1487
10003W        W28857   7.504   8.108  15.281 -0.2457  0.0914  0.0743
10004W        W28858   1.136   7.564   0.953  0.0345 -0.1913  0.0473
10005W        W28859   9.452   2.443   3.465 -0.1116 -0.1965  0.2100
10006W        W28860   4.378  12.146  13.220  0.0895  0.1978  0.0452
10007W        W28861   4.731  17.506  15.078 -0.0427 -0.1615  0.0485
10008W        W28862   6.345   9.823   5.443 -0.1382  0.2381  0.1872
10009W        W28863   8.801   2.442  13.123 -0.3701 -0.1000  0.1169
10010W        W28864  15.609   6.032  15.232 -0.0738  0.0572 -0.0970
10011W        W28865  15.209   5.922  14.335  0.0322  0.2413 -0.1924
10012W        W28866  14.772   3.636  14.011  0.0387  0.1587 -0.0820
10013W        W28867  15.973   4.305   1.133  0.1903 -0.1714 -0.1770
10014W        W28868  14.551   0.137   0.042  0.2673  0.0839  0.1905
10015W        W28869   5.074   4.254   2.021 -0.0508 -0.1651  0.0256
10016W        W28870   2.720   6.558   2.491 -0.1963 -0.2222  0.0237
10017W        W28871  14.358  14.995  15.012  0.0767 -0.0160  0.1124
10018W        W28872   4.955   9.290   4.321  0.0270  0.2164 -0.2214
10019W        W28873   1.297  13.370  17.076 -0.1103 -0.2795 -0.1618
10020W        W28874   0.013   0.286  16.252  0.3281 -0.1704 -0.0018
10021W        W28875   9.805   2.883   3.289 -0.1669 -0.1218  0.1720
10022W        W28876  10.267  10.848  12.125 -0.1654  0.0448  0.0805
10023W        W28877  12.682   8.815  16.100 -0.2254 -0.2908  0.6492
10024W        W28878  17.045   7.039   1.701  0.0755  0.1015  0.1927
10025W        W28879   2.957   9.662   0.306  0.1577  0.1519  0.0991
10026W        W28880  13.356  10.579  16.348  0.0903  0.0650 -0.0876
10027W        W28881  13.474  16.041  16.942 -0.1353  0.0387 -0.1284
10028W        W28882   1.527  11.289   0.442  0.2581  0.1740  0.3362
10029W        W28883   4.566   8.553  15.897  0.2045 -0.1925 -0.1334
10030W        W28884  11.044  15.735  14.247 -0.1125  0.0056  0.0638
10031W        W28885   4.463   1.206  16.517  0.1844 -0.0944 -0.2792
10032W        W28886   0.710  16.616  16.521 -0.0901  0.2264  0.0727
10033W        W28887   2.463  13.332  15.838 -0.2526  0.2408 -0.0934
10034W        W28888  17.161  11.392  13.744 -0.1644  0.0180 -0.4888
10035W        W28889   7.817  16.093  14.486  0.0384  0.2661 -0.1967
10036W        W28890   7.914   0.294   3.161  0.1351 -0.0190 -0.2166
10037W        W28891  14.337   2.764   0.138 -0.1891 -0.1832  0.1831
10038W        W28892  16.840   4.950   2.834  0.3948  0.1920  0.0415
10039W        W28893  15.402   2.913  12.329  0.1631  0.3258  0.0744
10040W        W28894   7.550  16.360  15.998 -0.0170 -0.0048 -0.0749
10041W        W28895   1.904   5.321   1.060 -0.1174  0.1117 -0.0252
10042W        W28896  14.831  10.824   0.955 -0.0494  0.2822  0.1249
10043W        W28897   0.459   5.025   4.867 -0.0239  0.0092 -0.1966
10044W        W28898   0.430  12.512   3.853  0.1937  0.1487  0.2707
10045W        W28899  12.541  13.088   1.830 -0.1713 -0.0371  0.2365
10046W        W28900  16.148   7.131  15.594 -0.1700 -0.0056 -0.0196
10047W        W28901  17.258   9.206  15.717  0.2209 -0.2186 -0.2310
10048W        W28902   5.045   4.222  15.900  0.0032  0.3521 -0.1194
10049W        W28903  12.174  13.060   2.592  0.3374 -0.1398 -0.0185
10050W        W28904   0.139  17.404  14.832  0.1337 -0.0327  0.2522
10051W        W28905   4.852   1.060   4.668  0.0138 -0.1658  0.1160
10052W        W28906  12.602  12.578   3.425 -0.1677 -0.0747  0.4207
10053W        W28907   6.184   7.897   4.262  0.2548 -0.0178  0.2450
10054W        W28908  10.505  13.105   4.611 -0.0348  0.0673 -0.1216
10055W        W28909   4.699  14.050   0.416 -0.3657  0.3416  0.3583
10056W        W28910  17.528  10.000  14.409 -0.0910 -0.0999 -0.3206
10057W        W28911   9.351   4.185  14.964 -0.2735  0.0432  0.2793
10058W        W28912  12.347  10.233   5.284 -0.0571 -0.0288  0.0944
10059W        W28913   4.800   9.254   0.795  0.0559 -0.1066  0.1090
10060W        W28914  17.051   4.084   3.798  0.0605 -0.2931 -0.4169
10061W        W28915  10.003   7.889  12.283  0.3486 -0.3389 -0.2996
10062W        W28916   8.032  16.833   0.010  0.0259  0.1569  0.1046
10063W        W28917   7.093  13.092   0.953  0.0906 -0.2693 -0.1228
10064W        W28918   4.063  10.196  14.611 -0.0243  0.5070  0.0448
10065W        W28919   1.737  14.665   2.520  0.1578 -0.2602 -0.1924
10066W        W28920   9.971   8.499   4.274 -0.1035 -0.2771 -0.0496
10067W        W28921  14.835  12.861  16.294  0.0865 -0.0671 -0.1308
10068W        W28922  14.169  16.663   2.598  0.1183  0.0710 -0.2869
10069W        W28923  17.066  13.616  16.119 -0.1171  0.1147 -0.0620
10070W        W28924   1.793   3.926   5.972 -0.1397  0.0526  0.2411
10071W        W28925   7.438  13.354   1.086  0.0032 -0.4859  0.1835
10072W        W28926   6.715   6.646  16.647 -0.1782 -0.1663 -0.0083
10073W        W28927  15.023  13.388  16.417  0.0813  0.2026  0.3963
10074W        W28928   8.469   1.296   2.535 -0.0415 -0.0686 -0.0166
10075W        W28929  14.080   2.347   2.430  0.3662  0.0541 -0.3203
10076W        W28930  15.596   8.325   1.066 -0.4414  0.5997 -0.2658
10077W        W28931  15.552   5.348   3.440 -0.1150 -0.1012  0.0050
10078W        W28932  12.137  12.302   3.868  0.2500 -0.2753 -0.0185
10079W        W28933   5.505   0.153   3.963 -0.2306  0.1797 -0.2958
10080W        W28934   5.929   3.868  16.247  0.2472  0.1064 -0.0035
10081W        W28935   3.671  16.857  14.401 -0.2941  0.1614 -0.1853
10082W        W28936   7.636   5.920   0.146  0.0577 -0.0308 -0.1978
10083W        W28937  11.713   5.091   4.497  0.1115  0.0911  0.2452
10084W        W28938  16.493  10.210  12.151  0.0537  0.1364 -0.2792
10085W        W28939  13.363   2.711  14.366  0.3986 -0.0948 -0.1487
10086W        W28940  10.337  12.363   2.440 -0.1149 -0.0973  0.0047
10087W        W28941   6.505   7.134   0.306 -0.2256 -0.1872 -0.0222
10088W        W28942   8.327  17.068   2.931  0.0071 -0.4367 -0.0677
10089W        W28943  11.191  14.710  15.520  0.0877  0.0892  0.1200
10090W        W28944  13.766  17.466   2.586  0.1214  0.1214 -0.1678
10091W        W28945   4.480   0.692   2.621 -0.0306  0.3122 -0.0675
10092W        W28946   0.765  11.522  13.618  0.0254  0.1288 -0.2350
10093W        W28947  10.661   3.558   3.958 -0.0638 -0.3121 -0.1354
10094W        W28948   2.920  14.961  13.383 -0.0779  0.3096  0.0787
10095W        W28949   0.702  11.677  14.652  0.2852  0.3576  0.1640
10096W        W28950  17.201  12.863  12.912  0.2017  0.2514  0.2213
10097W        W28951   9.956   0.118   2.011 -0.4266 -0.2826 -0.1870
10098W        W28952  16.539   2.820   0.887  0.3511  0.0683 -0.1574
10099W        W28953   8.333   2.776  15.604  0.2858  0.2770 -0.1301
10100W        W28954   3.756  13.469  16.770  0.0834 -0.0874 -0.1936
10101W        W28955   4.441   0.027  14.459  0.4004 -0.0865 -0.0783
10102W        W28956   1.587  13.686  12.152 -0.0996  0.2678  0.0003
10103W        W28957  16.757   9.923   3.982  0.0533 -0.0914  0.0404
10104W        W28958  15.197   5.620   0.752  0.1993  0.1007 -0.0767
10105W        W28959   2.823   6.039  13.146 -0.1403 -0.0084  0.0482
10106W        W28960   1.226   3.200   1.818 -0.0654 -0.0369  0.1514
10107W        W28961  16.298   1.269   4.626 -0.0871 -0.0768 -0.1333
10108W        W28962  14.312  12.848  16.332 -0.1507  0.0952 -0.1508
10109W        W28963   7.713   3.026   0.136 -0.2611  0.2169  0.4322
10110W        W28964   6.430   3.042   4.942  0.0944  0.1149 -0.0523
10111W        W28965   8.893   6.790  16.428  0.1892 -0.3609 -0.0490
10112W        W28966  11.056   4.810  14.534 -0.2443  0.2736  0.1180
10113W        W28967  16.447  10.464   2.073 -0.0658 -0.0163  0.0547
10114W        W28968  15.581  12.587   0.216 -0.2217  0.0589 -0.1856
10115W        W28969  12.962  12.784   0.988  0.1125 -0.1134 -0.1981
10116W        W28970  10.747  14.059  17.176  0.0616  0.3093  0.3557
10117W        W28971   0.336   0.994   3.985 -0.2118  0.2307  0.1306
10118W        W28972   5.746   8.895   0.309 -0.1703  0.0986  0.0847
10119W        W28973   4.095  10.503   0.755 -0.0475 -0.0976  0.1876
10120W        W28974  15.936   0.831  12.514 -0.4910  0.2612 -0.1047
10121W        W28975  12.808  12.185   2.630 -0.2353 -0.2334  0.2080
10122W        W28976   6.467   9.003  14.922  0.0491  0.2752  0.1694
10123W        W28977  17.272   5.628   2.951  0.0272  0.1270 -0.3469
10124W        W28978   2.147  12.988  12.797 -0.1179  0.1156  0.2677
10125W        W28979   6.473   0.368   4.035 -0.1426 -0.0513  0.3463
10126W        W28980  16.818   2.127  14.642  0.0386  0.2128 -0.0631
10127W        W28981   7.867   2.385   0.647 -0.0722 -0.1428  0.2709
10128W        W28982  13.472  14.277   6.216 -0.0560 -0.0017  0.0199
10129W        W28983   4.146  14.775  14.097  0.0117 -0.1900 -0.2003
10130W        W28984  13.482  11.510   2.659  0.0477  0.0330 -0.2861
10131W        W28985   9.967   4.202   1.956 -0.2133 -0.1864 -0.1487
10132W        W28986   3.546  17.462  16.533 -0.3101  0.2603  0.2140
10133W        W28987  11.085   7.429  12.754  0.2870 -0.3431 -0.2006
10134W        W28988  10.033   2.646  14.898 -0.0196  0.2486  0.1977
10135W        W28989   9.728  15.044  11.388  0.0064 -0.0826  0.1013
10136W        W28990  12.303   2.772  16.612 -0.3822 -0.0909 -0.0445
10137W        W28991   3.131  13.066   2.918  0.1672  0.3410  0.1459
10138W        W28992   7.512   7.583   3.194  0.5523 -0.3524  0.2660
10139W        W28993  11.139  13.226   2.817  0.0848  0.4146  0.2936
10140W        W28994   3.504   9.799  16.457  0.3383  0.0946  0.2200
10141W        W28995   7.131   6.087   4.328  0.4655 -0.2003 -0.1096
10142W        W28996  15.726   3.109  15.146  0.0155 -0.3819 -0.0257
10143W        W28997  11.753   8.755   4.017 -0.0189  0.3974  0.1937
10144W        W28998   9.748   0.831   0.147  0.1371 -0.4089 -0.0445
10145W        W28999   8.446   3.008   1.307  0.1001 -0.0186  0.1228
10146W        W29000   1.893   6.407  12.270  0.3693 -0.0746  0.1542
10147W        W29001  17.478   5.078  16.836  0.1359  0.0010  0.0778
10148W        W29002   6.518  14.154   0.199  0.2609 -0.0683  0.4577
10149W        W29003   2.052   3.671   4.346  0.0221 -0.0817  0.0016
10150W        W29004   2.069   2.189  16.439 -0.3140  0.1037 -0.2492
10151W        W29005   0.340  13.777   4.977  0.0023 -0.0240 -0.4821
10152W        W29006  11.013   1.273   3.000  0.0135  0.1250  0.1732
10153W        W29007  13.396   4.703  12.554 -0.3766  0.0496 -0.1353
10154W        W29008   7.647  10.190   1.157  0.0142 -0.2182  0.0344
10155W        W29009   5.206  10.213   1.498  0.2243  0.0513  0.0584
10156W        W29010  10.731  12.005   2.444  0.1097  0.0729  0.0138
10157W        W29011   1.510  12.242  14.569 -0.2839  0.3209 -0.0297
10158W        W29012   1.471  13.299   0.280  0.2708 -0.2839  0.1862
10159W        W29013   2.674   9.019   3.270 -0.2780  0.1905  0.0167
10160W        W29014   2.893   0.680  13.597  0.0758 -0.0530 -0.0336
10161W        W29015  14.570  10.672   1.437  0.2239  0.0729 -0.3044
10162W        W29016  13.894  13.891  13.447 -0.0227  0.2951 -0.0886
10163W        W29017  15.607  15.192  14.402 -0.1927 -0.1016 -0.2435
10164W        W29018  14.144  11.006   3.599 -0.0214  0.1114  0.0655
10165W        W29019   5.071  12.768   2.940 -0.2878  0.1000  0.0977
10166W        W29020  16.427  11.398   1.319  0.1939  0.2202 -0.0437
10167W        W29021  12.917  11.127   0.193  0.2456 -0.1696 -0.0154
10168W        W29022  17.058   8.415   4.047 -0.4562  0.0145  0.1423
10169W        W29023   7.528   7.438  13.162  0.1710 -0.0359 -0.0436
10170W        W29024  12.632   4.288  13.967 -0.1901 -0.0740 -0.0376
10171W        W29025  16.375   0.155  13.088 -0.1339  0.1308  0.3595
10172W        W29026   8.253   9.762   1.307  0.0467 -0.1232 -0.0317
10173W        W29027  17.491  10.064   0.702 -0.0539 -0.0821 -0.0730
10174W        W29028   4.756   8.333  17.107  0.0939 -0.1205  0.2992
10175W        W29029  16.641  12.732   0.022  0.1659  0.1382  0.0760
10176W        W29030   1.911   3.511  16.386  0.2163  0.1824  0.1097
10177W        W29031  14.045   2.733   4.358  0.1467 -0.0796  0.0670
10178W        W29032   8.910   1.961  13.333  0.1366 -0.3304 -0.2566
10179W        W29033   9.806  13.084  11.997 -0.1813 -0.0903  0.2655
10180W        W29034   6.206   3.092   0.818  0.0607  0.4884 -0.1192
10181W        W29035   5.096   2.484   1.201  0.0555  0.0824  0.3631
10182W        W29036  10.531  15.015  17.085  0.1534  0.3647  0.0707
10183W        W29037   2.832  11.359   0.647  0.0712  0.0402  0.0144
10184W        W29038   5.285  16.515  12.309  0.0146  0.1926 -0.0664
10185W        W29039  14.131  14.025   0.361 -0.4031  0.3338  0.3252
10186W        W29040   9.818   4.139  15.949  0.2640 -0.1859 -0.1917
10187W        W29041  14.404   8.421   4.641  0.1327  0.0039  0.0352
10188W        W29042  16.147   3.117  12.996  0.2665 -0.2373 -0.0861
10189W        W29043  16.826   2.544  15.758  0.4686 -0.1021  0.2458
10190W        W29044  11.145   2.748   4.903 -0.1422 -0.0415 -0.3422
10191W        W29045  15.276  16.602   2.402  0.1237 -0.1745 -0.4072
10192W        W29046  10.140  12.132  16.253  0.1055  0.1074  0.0465
10193W        W29047   1.829   5.421   1.555 -0.1647 -0.0269 -0.2025
10194W        W29048  11.908   4.280   5.000  0.0723  0.0141  0.2828
10195W        W29049  16.078   3.262   1.971 -0.0848 -0.1280  0.0774
10196W        W29050   8.090  10.355  16.482  0.1134  0.0663 -0.2268
10197W        W29051  10.242   2.102   0.455 -0.1510 -0.3079 -0.1584
10198W        W29052  16.109  14.383  16.226 -0.1188  0.2111  0.1630
10199W        W29053  10.926   7.897  14.022 -0.3232 -0.0359 -0.0008
10200W        W29054   4.247  15.578  16.190  0.0498  0.1535 -0.1823
10201W        W29055   2.456  11.541   1.358 -0.3283  0.0281 -0.0162
10202W        W29056  12.935   5.600   3.944  0.0301  0.0882 -0.1842
10203W        W29057   9.659  14.236  16.349  0.0848  0.0709  0.1090
10204W        W29058   6.590   5.677   2.813 -0.1620  0.0391  0.1291
10205W        W29059   8.497   7.927  15.250  0.0151  0.1719  0.1816
10206W        W29060   9.186  11.543   2.295 -0.0465 -0.1153  0.1656
10207W        W29061   4.564   1.713   4.960  0.0417  0.0397  0.1917
10208W        W29062  10.595  13.508  15.874  0.1889  0.1233  0.2070
10209W        W29063   0.493   0.158  16.483 -0.2338 -0.4395  0.0952
10210W        W29064   4.276  17.250  15.276 -0.0754  0.1190 -0.3016
10211W        W29065   5.334  11.707   1.422 -0.0840 -0.2240  0.0975
10212W        W29066  15.571   7.330   4.254 -0.1668  0.0173 -0.1103
10213W        W29067  15.829  10.490  12.675 -0.2367  0.0274  0.1093
10214W        W29068   9.677   4.925   0.993 -0.0202  0.0149 -0.2104
10215W        W29069  12.931  15.079   0.881  0.0415  0.0407  0.0056
10216W        W29070   9.836   9.799   2.137  0.0715  0.1588  0.2177
10217W        W29071   1.845  12.926   4.876 -0.0516  0.0495  0.1740
10218W        W29072  11.768   0.864   5.031  0.1821 -0.0574 -0.0642
10219W        W29073   3.835   5.275   3.178  0.1260  0.0690  0.0344
10220W        W29074  15.052   5.998   4.314  0.0930 -0.1078 -0.1109
10221W        W29075  14.147   7.273   3.147  0.0855 -0.0784  0.1821
10222W        W29076  15.344   7.785   0.860 -0.0933  0.0482 -0.1929
10223W        W29077   2.392   9.412   3.950 -0.1529 -0.3670 -0.3146
10224W        W29078  11.348   3.682  13.808 -0.3046 -0.2186 -0.1133
10225W        W29079  14.919  14.259  12.468 -0.0655  0.3846 -0.1771
10226W        W29080   0.778  10.234   2.302 -0.1960 -0.0911  0.3040
10227W        W29081  17.060   5.943  16.655  0.0500 -0.2658 -0.1533
10228W        W29082  12.516   0.487   1.267 -0.2999  0.3639 -0.0708
10229W        W29083   1.095  10.112   2.698  0.0308  0.1798 -0.2624
10230W        W29084   4.592  14.703  16.928 -0.0625  0.1493 -0.3199
10231W        W29085  15.643  16.951   2.563 -0.3167 -0.1524 -0.2206
10232W        W29086  11.337   6.927   2.634 -0.1182  0.2750  0.2137
10233W        W29087  15.900  14.639  12.106  0.2612 -0.0507 -0.0161
10234W        W29088   9.709   1.314   3.671  0.0885 -0.2658 -0.3201
10235W        W29089  14.777  17.437   4.510 -0.1214 -0.1237  0.1274
10236W        W29090   9.445   6.846  15.427  0.4548 -0.0367 -0.1671
10237W        W29091   6.978  12.765  12.443  0.0578 -0.0006 -0.0062
10238W        W29092  15.676  11.411  14.849 -0.1750 -0.1004  0.1800
10239W        W29093   2.692  13.450   4.100  0.2573 -0.1544  0.1844
10240W        W29094  12.846   6.399  14.171 -0.1689 -0.0711 -0.3323
10241W        W29095   6.626   5.449  13.669 -0.0993 -0.1677  0.1684
10242W        W29096   5.625   8.642   0.739 -0.1081 -0.2620  0.2104
10243W        W29097  15.477  16.947   2.063  0.1044 -0.2050  0.1579
10244W        W29098  13.358  13.502  13.078  0.0275 -0.2498  0.0561
10245W        W29099   6.262   3.331   1.324 -0.0013 -0.2315 -0.1437
10246W        W29100   0.343   0.718   2.163 -0.0119  0.1903  0.0098
10247W        W29101   3.930   0.355  13.706  0.3576 -0.1396 -0.1628
10248W        W29102   0.656   4.291  13.977 -0.2747 -0.0417  0.2210
10249W        W29103  13.645   2.039  15.573 -0.0698 -0.4144 -0.1086
10250W        W29104  11.890   1.019   1.857 -0.0841  0.1544 -0.1545
10251W        W29105   5.822  17.032   4.462 -0.2930 -0.1001  0.0391
10252W        W29106  12.766   1.132  15.248  0.1263 -0.1890  0.1391
10253W        W29107  12.209   7.000   2.044  0.1688  0.3788  0.1552
10254W        W29108  11.933   5.503   4.951 -0.1973  0.4036  0.0839
10255W        W29109   7.269  16.457  16.978  0.0129 -0.1059 -0.0165
10256W        W29110   4.929   6.914   4.483 -0.0821 -0.0726  0.0182
10257W        W29111   0.155   2.818  12.724 -0.0291 -0.1452  0.1971
10258W        W29112  11.628  15.924  12.784 -0.1283  0.0415 -0.2605
10259W        W29113   6.516   6.458  12.380 -0.1638  0.2715  0.1558
10260W        W29114   6.412  11.667  11.505  0.3073 -0.0569  0.2502
10261W        W29115  10.758   2.478   4.326 -0.1718  0.0233  0.0179
10262W        W29116   8.425  10.777   3.145  0.0088 -0.1044  0.0946
10263W        W29117   7.754   1.080  16.965 -0.0414 -0.1664 -0.3558
10264W        W29118   2.383   7.558  13.480  0.1833 -0.1686  0.1569
10265W        W29119  11.245  12.483  17.208 -0.1688 -0.0813  0.5449
10266W        W29120  11.596  11.651  13.020  0.0190  0.0748 -0.0410
10267W        W29121   9.804  17.223   0.843  0.1463 -0.0497  0.0096
10268W        W29122  16.120   1.912   2.935 -0.0836  0.1964 -0.3615
10269W        W29123  11.939  14.677  15.417  0.0038  0.3762  0.2849
10270W        W29124   7.969   6.738  14.558 -0.3190 -0.0593 -0.0633
10271W        W29125  10.990  10.497   5.037  0.0024 -0.0830  0.4194
10272W        W29126  16.385  15.265   3.782  0.1748  0.2894  0.0008
10273W        W29127   6.509   5.420   4.717  0.2139  0.1776  0.0018
10274W        W29128  10.682   6.631  14.603  0.4272  0.0421 -0.1152
10275W        W29129   1.669  16.344   4.722 -0.1900 -0.0734  0.2020
10276W        W29130  11.911  16.867   0.158  0.1276 -0.0480 -0.1843
10277W        W29131  15.426   0.931  13.995  0.1892  0.1534 -0.1198
10278W        W29132  11.019   3.952  14.788  0.0953 -0.1239  0.0022
10279W        W29133   9.399   6.574  17.209  0.1185  0.2211  0.2076
10280W        W29134  13.927   9.502  15.698 -0.2555  0.0610 -0.0136
10281W        W29135  13.856   7.829   1.662  0.1002 -0.1229  0.0869
10282W        W29136   3.788   5.891  16.622 -0.1232 -0.2142 -0.0009
10283W        W29137  13.108   4.177  14.256 -0.0413 -0.0434 -0.0615
10284W        W29138   1.357   3.242  16.504  0.2134  0.0882  0.0504
10285W        W29139   4.223  11.236  13.502 -0.0489  0.0814 -0.0911
10286W        W29140  12.648  16.124   1.148 -0.1409 -0.2581  0.0837
10287W        W29141   1.666  13.039   4.069  0.0987  0.4421  0.1185
10288W        W29142   5.324  16.379  14.532 -0.3372  0.1301  0.2830
10289W        W29143   1.542  11.634   3.109 -0.1881 -0.0682 -0.1856
10290W        W29144  10.585   4.821   0.276  0.0153  0.1857  0.2473
10291W        W29145  15.754   3.620  14.967  0.2383  0.2045 -0.1377
10292W        W29146   0.069   0.512   1.277 -0.0522 -0.2123 -0.0666
10293W        W29147  13.145   7.222   2.459 -0.2859 -0.1973  0.0088
10294W        W29148   1.137  13.245  15.600 -0.1509  0.1808 -0.2324
10295W        W29149   8.584   5.619   3.760  0.1032 -0.2509 -0.0861
10296W        W29150  16.815  15.758   3.092  0.5019 -0.2870  0.2269
10297W        W29151  16.613  14.119  16.998  0.1962  0.0710  0.2275
10298W        W29152   7.691   0.502   5.102  0.4157 -0.2228  0.0447
10299W        W29153  14.238   5.905   0.283  0.0571  0.2855  0.0959
10300W        W29154   4.021   7.523  12.055  0.1172  0.0051  0.2989
10301W        W29155   3.573  10.620  13.194  0.0515 -0.2749 -0.0266
10302W        W29156   8.177   6.674   1.791  0.2221  0.0221 -0.4021
10303W        W29157  15.496   4.437  14.240 -0.4422 -0.0735 -0.0162
10304W        W29158  11.099  14.236   4.123  0.3701 -0.2227  0.0642
10305W        W29159   3.180   1.490  13.344 -0.1542  0.0095 -0.2528
10306W        W29160   1.174   9.031   0.529 -0.2049 -0.0761  0.0538
10307W        W29161  17.247   9.984   1.582 -0.3931 -0.0905  0.0856
10308W        W29162  11.905  15.483  14.249 -0.2337  0.3270 -0.1585
10309W        W29163   6.978   2.297  14.841 -0.1443  0.0055 -0.3654
10310W        W29164   0.873  13.433  15.099  0.3548  0.0399  0.2117
10311W        W29165   1.839   2.239   4.041 -0.0277 -0.1480 -0.1456
10312W        W29166  11.826   0.485   2.673  0.1242 -0.1649  0.1485
10313W        W29167   0.071   0.609   4.089 -0.0346 -0.3779  0.0622
10314W        W29168  12.372  16.988   4.143 -0.0239 -0.1472  0.0215
10315W        W29169   1.206   8.343   4.361 -0.0970 -0.1150 -0.2056
10316W        W29170   2.034  13.186   1.923  0.1675  0.0621 -0.1874
10317W        W29171  13.722   2.459   1.609 -0.2415  0.1074 -0.0584
10318W        W29172   1.232  16.290  14.819 -0.4403 -0.0470 -0.0584
10319W        W29173  13.880   8.491   2.966  0.0796  0.1089 -0.0263
10320W        W29174   1.540  11.938   2.459 -0.2110 -0.0415 -0.1375
10321W        W29175   9.113   6.409  13.966 -0.0806 -0.3228  0.0707
10322W        W29176   4.115   6.622   4.511  0.2413 -0.0132  0.2113
10323W        W29177   4.322  15.623  11.898  0.0022  0.0943 -0.1007
10324W        W29178  14.319   7.310   3.612 -0.1211  0.0560  0.0417
10325W        W29179   8.740   7.254  16.574  0.2013 -0.1360  0.0705
10326W        W29180   2.297  13.189   6.089 -0.2352 -0.3626  0.1836
10327W        W29181   8.030  14.319   4.358 -0.0232  0.1286  0.4534
10328W        W29182  13.033   4.230  12.909  0.0648  0.1804  0.0915
10329W        W29183   6.417   8.413  12.435  0.1805  0.3043 -0.1346
10330W        W29184  11.516   4.438  15.391  0.1001 -0.1399  0.3404
10331W        W29185   4.276   8.072   3.678 -0.0869 -0.0218  0.2288
10332W        W29186  15.801   1.048  17.163 -0.0566 -0.3190  0.0068
10333W        W29187   6.718   3.229  14.040  0.0330 -0.0238  0.0455
10334W        W29188  13.856  10.261   0.707 -0.0427  0.1647 -0.0754
10335W        W29189  12.343   8.832   1.952  0.2312 -0.1175 -0.0875
10336W        W29190   4.842   6.709  11.234 -0.0402 -0.0712 -0.1097
10337W        W29191   0.278  11.284   4.192  0.1759 -0.0126  0.1347
10338W        W29192   3.024   8.846  14.284 -0.1932 -0.1290  0.0536
10339W        W29193   0.376   9.934  14.968 -0.1314 -0.2548 -0.0519
10340W        W29194   6.452  11.462   2.567 -0.3005 -0.0227 -0.2406
10341W        W29195  15.811   7.684  14.784  0.2746 -0.2188  0.2157
10342W        W29196  14.197  14.840   0.601  0.2213 -0.0241  0.1425
10343W        W29197   3.699  10.992  12.932 -0.0832  0.2439 -0.0797
10344W        W29198  12.226  15.631   4.634 -0.0290 -0.3100  0.1492
10345W        W29199   9.460  10.321  11.803 -0.0306  0.0031 -0.0419
10346W        W29200   4.664   6.821   5.131  0.0745 -0.2059 -0.1111
10347W        W29201  14.629   4.356   1.307  0.1480 -0.0323 -0.1147
10348W        W29202   3.644  11.750  14.125 -0.0224 -0.1095 -0.1879
10349W        W29203  16.310   0.546  14.829  0.1593 -0.0057  0.1099
10350W        W29204  16.505  14.828  14.036 -0.0576  0.2385  0.0987
10351W        W29205  15.355   7.423   3.295  0.3437  0.0241  0.2068
10352W        W29206   2.281  11.098  14.281  0.3996  0.1473 -0.0167
10353W        W29207   6.754  12.160  15.526  0.4653  0.5004  0.1374
10354W        W29208   0.153   4.684   1.314  0.2357 -0.2274  0.0079
10355W        W29209   8.077   6.222   0.490  0.0820 -0.0757 -0.0276
10356W        W29210   1.013  15.486   3.920 -0.0167  0.1661  0.0723
10357W        W29211  14.864  11.574  13.744 -0.0014  0.0718 -0.0208
10358W        W29212  13.950   8.980   1.627 -0.0095 -0.4067 -0.0315
10359W        W29213   7.246   8.710  12.381  0.3265  0.0670  0.0599
10360W        W29214   3.019   1.253  15.905 -0.1418  0.0046  0.2707
10361W        W29215   7.333   6.589  14.120  0.1772 -0.1125  0.0891
10362W        W29216   6.426  12.098   5.227 -0.2440  0.2213 -0.0195
10363W        W29217  17.170  16.085  13.618 -0.0877  0.0138 -0.3362
10364W        W29218   0.869   4.793  12.836  0.0040  0.1182  0.1385
10365W        W29219   7.483  12.454   3.426  0.1614  0.4124 -0.2706
10366W        W29220   3.758   3.971  12.065 -0.1790 -0.1214 -0.5304
10367W        W29221  13.094   5.109   4.849 -0.0921  0.2962  0.0201
10368W        W29222  16.282  14.065   2.485  0.0847 -0.0767 -0.1877
10369W        W29223   2.836   7.671  13.292 -0.0804 -0.1665  0.1024
10370W        W29224  10.205   5.941  13.573  0.0318 -0.1962  0.2612
10371W        W29225  11.920  13.129  16.680 -0.0621  0.3256 -0.0987
10372W        W29226   5.911   1.072  16.479  0.1042 -0.0793  0.1906
10373W        W29227  17.275   9.137   3.168 -0.0125  0.0177  0.2379
10374W        W29228   1.393   4.140   2.541 -0.2794  0.3543  0.0166
10375W        W29229   5.493  10.225   2.397  0.1806  0.2120  0.3065
10376W        W29230  10.130  11.105  13.774  0.0457 -0.0095 -0.1217
10377W        W29231   3.827  16.573  13.423 -0.3107 -0.0090 -0.2468
10378W        W29232   8.784  14.483   0.209 -0.1823  0.0485 -0.0545
10379W        W29233   7.255  11.890  15.427 -0.3355 -0.2153 -0.0113
10380W        W29234  10.308  12.027  14.859 -0.3157 -0.0265  0.2851
10381W        W29235   3.813   6.724  10.815 -0.1094 -0.0920 -0.0714
10382W        W29236   0.505   6.753   3.483 -0.0039 -0.0025 -0.1443
10383W        W29237   4.369  15.363   4.449  0.1886 -0.1288 -0.0586
10384W        W29238  11.911   5.666  16.347 -0.2252  0.1587  0.0510
10385W        W29239  15.742   3.443  12.889  0.1151  0.0358  0.1981
10386W        W29240   0.179   2.837   4.146  0.0862 -0.4157  0.0621
10387W        W29241   1.746  13.624  15.279 -0.2146  0.3245 -0.0371
10388W        W29242   1.070   2.614   3.975 -0.1271  0.3646 -0.0640
10389W        W29243  12.182  16.736   4.730  0.0385  0.4080  0.3404
10390W        W29244   1.413  13.422   2.697 -0.0261  0.0724 -0.0615
10391W        W29245  16.439  13.324   2.917  0.0949 -0.1065  0.0608
10392W        W29246   5.772  16.289  12.425 -0.1459 -0.0316 -0.0464
10393W        W29247  11.687  14.275   4.180  0.2845 -0.1732  0.2484
10394W        W29248  11.438   1.938   5.094 -0.0644 -0.2122 -0.0556
10395W        W29249  12.130  15.206   2.459  0.1399 -0.1775 -0.1275
10396W        W29250  17.434   8.061  15.831 -0.0193  0.0409 -0.3644
10397W        W29251  15.064  15.247  15.759 -0.0972  0.0735 -0.1731
10398W        W29252  11.460   0.179  15.402 -0.3700  0.3328  0.2621
10399W        W29253   7.593  14.094  13.401  0.1258  0.0832  0.0808
10400W        W29254   0.632   4.658   2.701 -0.0429 -0.1956  0.0898
10401W        W29255   6.111  16.046   4.170 -0.0067 -0.0086  0.0257
10402W        W29256   4.898  15.070  15.779  0.4261 -0.0541 -0.0376
10403W        W29257  17.031  10.138   0.436 -0.0288 -0.1125  0.2310
10404W        W29258  10.119   0.118  15.023  0.1452 -0.0773  0.0789
10405W        W29259  14.843  10.098  16.195  0.1360 -0.2011  0.1247
10406W        W29260   0.877  11.702   2.742  0.0495 -0.1056 -0.1061
10407W        W29261  16.841  17.022   1.350  0.0532 -0.4129 -0.3117
10408W        W29262   2.480  14.358  16.098 -0.0667  0.0610 -0.2803
10409W        W29263   9.727   7.914  12.699  0.0913  0.0210 -0.2144
10410W        W29264   7.027   0.014  13.608 -0.3356 -0.1798 -0.5538
10411W        W29265   4.286  16.458   2.305  0.2388 -0.1593  0.1241
10412W        W29266   8.324  11.911   3.286 -0.1645  0.3426 -0.1470
10413W        W29267   7.826   8.146   4.807  0.3701  0.1642 -0.1726
10414W        W29268  10.000   4.640  15.757  0.1874  0.0270 -0.1698
10415W        W29269  16.751  15.735  14.959 -0.0335 -0.1766 -0.2778
10416W        W29270  11.976   1.548   3.833 -0.0216 -0.1175 -0.3290
10417W        W29271   9.339   8.405   2.048  0.0870  0.0613  0.0599
10418W        W29272   6.047  12.570  16.871 -0.2796  0.1419  0.1016
10419W        W29273  11.684  11.065  15.912  0.3180  0.1773 -0.1444
10420W        W29274  12.834   0.038   4.599 -0.1610 -0.1591 -0.0436
10421W        W29275  14.948   4.171  15.272 -0.1065 -0.1575 -0.1206
10422W        W29276   3.026  13.721  15.014 -0.1334 -0.0945  0.3302
10423W        W29277  10.463   9.465   2.807  0.4467  0.1635  0.3270
10424W        W29278   8.085  15.214   3.615  0.0912 -0.0556 -0.3855
10425W        W29279  11.563  15.063  14.706  0.2195 -0.1628 -0.1552
10426W        W29280   5.910  14.414  13.487 -0.1760  0.2481 -0.2243
10427W        W29281   3.287  16.840   1.849  0.3482 -0.0000 -0.2695
10428W        W29282  15.452   0.714  12.221  0.0240 -0.0172 -0.0874
10429W        W29283  16.569  12.709  12.480 -0.1025  0.0912 -0.0514
10430W        W29284   2.203  14.043  12.741 -0.0033 -0.2475  0.2198
10431W        W29285   9.171   9.696  11.846  0.0379 -0.2143  0.0599
10432W        W29286   6.757   9.427  15.183  0.1940 -0.0987  0.0105
10433W        W29287   8.102  15.322  11.389  0.0834  0.0490 -0.1784
10434W        W29288   2.823  16.138   2.059  0.1687  0.0242  0.3249
10435W        W29289  10.235   6.333   3.789  0.0539  0.0910 -0.1695
10436W        W29290   6.791   9.624  13.085 -0.3252 -0.0526 -0.1043
10437W        W29291  16.231  17.488  15.970  0.0581  0.4293  0.0798
10438W        W29292  12.030  14.136  15.208  0.0442 -0.3170  0.1012
10439W        W29293  15.938   4.530   3.190  0.2905 -0.1063  0.2559
10440W        W29294   8.342   2.054  15.147 -0.0493  0.3194  0.1505
10441W        W29295   0.125   8.417   3.705 -0.1984  0.1473  0.0027
10442W        W29296   8.509  10.213  15.537  0.0319 -0.0675  0.2223
10443W        W29297   4.389   6.055   3.025 -0.2438  0.0122  0.0167
10444W        W29298  15.828   1.755   3.462  0.0589 -0.1200 -0.1653
10445W        W29299  11.569   1.798  17.225 -0.0667  0.2969  0.3905
10446W        W29300  16.839  15.915  13.289 -0.1886 -0.1783  0.0520
10447W        W29301   4.767  11.562  13.287  0.1773 -0.1035 -0.0253
10448W        W29302   5.482   6.080   3.503 -0.0145 -0.0759 -0.0969
10449W        W29303  11.584  17.311  16.693 -0.1540  0.2246 -0.0697
10450W        W29304  12.913  14.001   4.716 -0.0883 -0.1833  0.1581
10451W        W29305   0.551  16.640   1.511 -0.1970  0.0636  0.0422
10452W        W29306  13.138  15.074  13.570  0.0226  0.1573  0.1334
10453W        W29307  17.001  16.825   1.801  0.3388 -0.0020 -0.3517
10454W        W29308   9.058  10.668  14.000  0.1958  0.0844 -0.1624
10455W        W29309   8.641  14.918   4.302  0.1915  0.2119 -0.1194
10456W        W29310  17.213   6.316  14.491 -0.3149  0.1756 -0.0354
10457W        W29311  17.588   7.785  13.146  0.1173  0.0268 -0.0004
10458W        W29312  10.845  15.809  16.231 -0.1176  0.2472  0.1379
10459W        W29313   1.605   8.944  14.129  0.0908 -0.1223 -0.2498
10460W        W29314   4.989  15.740   3.058  0.1308 -0.0102 -0.1373
10461W        W29315  12.092   1.806   0.111 -0.0081  0.4243 -0.1173
10462W        W29316   8.271   2.528  13.336 -0.3035  0.0992  0.1129
10463W        W29317  10.141  16.398   3.138 -0.1409  0.5650 -0.3040
10464W        W29318   1.719  14.167  12.850 -0.1584 -0.5149  0.1590
10465W        W29319   6.320   2.500  16.369 -0.0014 -0.0149  0.0623
10466W        W29320   3.288  10.579   2.297  0.2750 -0.1734 -0.0042
10467W        W29321   9.760  14.086  12.137 -0.1956 -0.2738  0.0189
10468W        W29322  10.283  11.986   3.235 -0.2086 -0.1604  0.0223
10469W        W29323  15.597   3.399  12.371  0.0526 -0.0114  0.0535
10470W        W29324  11.359  13.401  15.385  0.0558 -0.1417 -0.0472
10471W        W29325   9.072   2.023  12.868  0.3934 -0.3913 -0.0214
10472W        W29326   8.304  12.062  16.398  0.2150  0.0031  0.2089
10473W        W29327   2.910   4.484  14.492 -0.2374  0.3643  0.1604
10474W        W29328   0.362  11.265   2.590  0.0912 -0.1431  0.1457
10475W        W29329   1.239   9.050  13.192  0.1114  0.1987 -0.0682
10476W        W29330  15.992   0.339  15.617  0.0595 -0.2198 -0.0504
10477W        W29331   8.558  15.709  16.236  0.0775  0.0878  0.3731
10478W        W29332   4.367  13.302   0.164  0.1049  0.3749  0.1085
10479W        W29333  10.618   0.049  14.274 -0.2163 -0.1946  0.0857
10480W        W29334   8.893   6.709  13.450 -0.0435 -0.4601  0.0213
10481W        W29335   6.352  10.256  12.295 -0.0840  0.1023  0.4781
10482W        W29336  12.878  11.674  12.642  0.1212  0.3155  0.0217
10483W        W29337   9.751   7.278  13.827 -0.0444 -0.1022  0.0695
10484W        W29338  14.665   7.951   3.452 -0.0271  0.1834  0.1772
10485W        W29339   8.153   3.694   5.132  0.1574 -0.0025  0.1232
10486W        W29340   6.676   8.957  15.386 -0.2605 -0.3789  0.0524
10487W        W29341  11.909  12.193   0.305  0.1457  0.2306 -0.0642
10488W        W29342  17.343  15.096   1.987  0.0718  0.0070  0.2458
10489W        W29343   1.246  17.409   4.912  0.1862 -0.1808  0.2364
10490W        W29344  11.064   4.837  16.749 -0.3086  0.2216  0.0939
10491W        W29345   0.972  16.555  16.933  0.1768 -0.0031 -0.2504
10492W        W29346   6.780   4.992  14.517  0.0498 -0.3029  0.0542
10493W        W29347   9.591  10.157  13.060  0.1243 -0.0565  0.2012
10494W        W29348   9.235   3.715  13.728  0.0755 -0.1102 -0.0185
10495W        W29349  12.371   0.013  13.933  0.0216 -0.0244  0.1565
10496W        W29350  14.463  13.239   1.474  0.2473  0.0377 -0.1262
10497W        W29351   5.116   4.020   4.404  0.3338 -0.0693  0.3225
10498W        W29352  10.769  14.742  14.016  0.1872 -0.0654  0.5515
10499W        W29353  10.332   4.395  13.313 -0.1794  0.0101  0.0704
10500W        W29354  15.618  14.479   3.987  0.0195 -0.0086  0.1838
10501W        W29355  11.479   4.960   2.819 -0.1482 -0.1387 -0.2698
10502W        W29356   3.774   9.712   4.858 -0.1473 -0.0503  0.4010
10503W        W29357   4.331  11.642   1.770 -0.0551  0.0432  0.2773
10504W        W29358   7.180  16.764  13.364  0.0066  0.0402  0.2345
10505W        W29359  10.526   6.135  14.598  0.1327  0.2423  0.4867
10506W        W29360   1.121   4.506   4.033 -0.0212 -0.1320 -0.1299
10507W        W29361   5.628   3.930   4.527  0.1434 -0.2923  0.0263
10508W        W29362   3.832   2.898  12.980 -0.0178 -0.3238  0.2832
10509W        W29363   8.343   0.165   3.977 -0.3913  0.3317 -0.1703
10510W        W29364   4.312  16.110  13.357 -0.2855 -0.2909  0.3923
10511W        W29365   6.997  13.592  17.213  0.1063 -0.1781  0.0674
10512W        W29366   5.094   5.826   4.258 -0.0230  0.3074  0.1466
10513W        W29367  11.533  16.527  16.064 -0.0449 -0.2910 -0.2982
10514W        W29368  12.350   9.192   6.069  0.0335 -0.0141 -0.0826
10515W        W29369   1.801  13.312   2.326 -0.1227 -0.1554 -0.1135
10516W        W29370  11.886  13.021  15.464  0.2082  0.1308  0.6356
10517W        W29371  10.583   3.470  13.201 -0.0554  0.1029 -0.0236
10518W        W29372   3.362   9.302  12.796  0.2745  0.0688 -0.0171
10519W        W29373  12.818   9.624  16.486  0.1279  0.3376 -0.0879
10520W        W29374  14.935  13.334  13.150  0.2434 -0.0728 -0.2023
10521W        W29375  11.661  12.502  13.006 -0.1578 -0.1559 -0.1285
10522W        W29376   1.643  12.809   2.080 -0.0034 -0.0268 -0.3871
10523W        W29377   9.939  17.192  14.968 -0.0635  0.1866 -0.1785
10524W        W29378   1.269   8.416   0.924  0.1990  0.0690 -0.0239
10525W        W29379  11.874   0.081   2.286  0.1504  0.0147  0.1230
10526W        W29380   0.176  11.958   5.696  0.2918  0.1024 -0.0371
10527W        W29381  10.391  11.009  17.134 -0.0299 -0.0755 -0.0990
10528W        W29382  11.052   3.449   0.144  0.1384 -0.1455 -0.1785
10529W        W29383   2.195   0.050   2.220  0.1469  0.1166 -0.0653
10530W        W29384   2.563   0.989   3.049  0.1040  0.0021 -0.0871
10531W        W29385  16.510  15.961   2.203  0.1699 -0.0102  0.2692
10532W        W29386   5.147  14.583  14.849 -0.0577 -0.2404  0.1395
10533W        W29387   5.151  16.793  13.731  0.1468  0.1706  0.2391
10534W        W29388   7.524  12.094   0.168 -0.2983  0.3032  0.0256
10535W        W29389  13.764  16.958   2.622 -0.0057  0.1135  0.0156
10536W        W29390  16.329   6.050   1.991  0.0294 -0.0927  0.2553
10537W        W29391  14.816   1.306  16.919 -0.0124  0.1233  0.1069
10538W        W29392  16.311  10.906   3.222 -0.1914  0.0976 -0.2135
10539W        W29393   0.371   7.632   2.223 -0.4397  0.0422 -0.1479
10540W        W29394   0.231  15.148   2.158 -0.0804  0.1315  0.1365
10541W        W29395  11.436   7.826  14.535 -0.2440  0.1336 -0.0252
10542W        W29396  16.319   8.738   3.635  0.2831 -0.0985  0.1836
10543W        W29397   4.554   4.838  16.403 -0.1832 -0.0262 -0.0586
10544W        W29398   3.193  13.310  12.925 -0.1776 -0.1311 -0.0113
10545W        W29399  13.395   6.830   3.693  0.0809  0.1309  0.0577
10546W        W29400   0.543  14.217  14.530  0.3160  0.4174  0.0832
10547W        W29401  15.948   4.739  13.050  0.0355  0.1348  0.2497
10548W        W29402   2.118   0.040   1.027  0.0937  0.1339 -0.1161
10549W        W29403   8.194  11.952   3.900 -0.1996  0.4711 -0.0972
10550W        W29404  10.620   2.738  12.691  0.0373 -0.0705 -0.1963
10551W        W29405   8.211  13.579   3.868  0.2524  0.0424 -0.0646
10552W        W29406   6.908   4.574   3.701  0.1711  0.1455  0.2575
10553W        W29407   5.471   9.372  15.372 -0.1601  0.0274 -0.0690
10554W        W29408   9.400   7.484   4.806 -0.0379  0.1046 -0.2704
10555W        W29409  13.426  15.881  15.422 -0.0230  0.1866  0.1755
10556W        W29410   0.938  12.673   1.408 -0.1481  0.4844 -0.0198
10557W        W29411  14.721   4.817   0.649 -0.0338 -0.0918 -0.0496
10558W        W29412   5.349   5.153  16.204 -0.3101  0.0591  0.1829
10559W        W29413   1.508   6.972   2.132 -0.0749 -0.1746  0.2227
10560W        W29414   4.866   3.436   3.055 -0.1826  0.0462 -0.2301
10561W        W29415  14.453  11.538   3.399  0.0433  0.0054 -0.0215
10562W        W29416  12.002   3.840   4.121  0.1711 -0.0814 -0.1058
10563W        W29417   3.610   2.921  15.297 -0.0609 -0.1955  0.0229
10564W        W29418   8.421  14.401  12.219 -0.1566  0.1532 -0.0208
10565W        W29419   3.555   3.284  14.839  0.0782 -0.4126  0.0589
10566W        W29420  12.450   5.735   3.167 -0.1364  0.0013 -0.1422
10567W        W29421   0.017  10.088  15.413  0.2424 -0.1647  0.2828
10568W        W29422   7.710   2.695  12.889 -0.5967 -0.1534 -0.0144
10569W        W29423   2.840  16.328  14.183 -0.2586 -0.2209 -0.3675
10570W        W29424   4.962   4.334  12.647 -0.2448  0.2153 -0.2614
10571W        W29425  10.448  17.461   0.890 -0.0827 -0.0513  0.0811
10572W        W29426  15.442   9.183   6.853  0.0720  0.1909 -0.1837
10573W        W29427   7.628  16.730   2.465 -0.0672  0.0242  0.6425
10574W        W29428   4.881  13.504  14.916 -0.2014  0.0344 -0.1942
10575W        W29429  12.260   4.167   3.592  0.0714 -0.1332 -0.0727
10576W        W29430   3.198  15.815  17.207  0.0360  0.0847 -0.1201
10577W        W29431   8.205   9.623  11.670  0.0328 -0.0591  0.2291
10578W        W29432   1.487   5.758   2.503  0.0100 -0.2851 -0.2921
10579W        W29433  10.583   8.703   3.328 -0.3095 -0.2021 -0.2493
10580W        W29434   9.702   3.511   1.939  0.1267  0.1109  0.4755
10581W        W29435  16.961  12.079   3.604  0.2504  0.0424  0.3119
10582W        W29436   8.508  14.167  12.764  0.0784 -0.0816  0.1720
10583W        W29437  10.916   1.153  14.271  0.1882  0.1173  0.0101
10584W        W29438   6.282  16.884  12.611 -0.0612 -0.0167 -0.1855
10585W        W29439   7.512   5.060   1.925 -0.0041  0.0643  0.0365
10586W        W29440  17.223  16.439  14.397 -0.2052  0.2357 -0.1207
10587W        W29441  16.977   0.702  12.406  0.0036 -0.1742 -0.0386
10588W        W29442  15.834  13.454  12.441  0.2152 -0.0394  0.0139
10589W        W29443   1.001   8.674   4.055  0.0706  0.3880  0.0170
10590W        W29444  10.166  13.929   1.109  0.0892 -0.3073 -0.2181
10591W        W29445  16.695  13.043   1.683  0.2284 -0.1567  0.1128
10592W        W29446   2.213  11.019  14.782 -0.2194  0.0343  0.1149
10593W        W29447   3.796   8.198  16.792 -0.0853 -0.1368 -0.0472
10594W        W29448  17.465  13.654  12.534  0.0494  0.5006 -0.0870
10595W        W29449  16.222   5.093  12.740 -0.1278 -0.3572  0.0908
10596W        W29450   4.815   4.670   0.022  0.0869 -0.0755  0.1367
10597W        W29451  10.545  10.575   0.116 -0.0752  0.0444 -0.1241
10598W        W29452   6.946   8.960  16.793  0.0348 -0.0691  0.1181
10599W        W29453  13.115   8.119  12.696  0.6249  0.1716  0.2234
10600W        W29454   0.954   7.849   4.685 -0.2851 -0.1551  0.0824
10601W        W29455  11.988  13.056  12.239 -0.1437  0.3266 -0.0073
10602W        W29456   6.053   5.678   1.358 -0.0183 -0.1817  0.1282
10603W        W29457   0.832   6.456  14.263 -0.2757 -0.2625 -0.0579
10604W        W29458  13.586  13.094   1.412 -0.1946  0.2470 -0.2176
10605W        W29459   2.721   7.334  15.688  0.0038 -0.1555  0.1106
10606W        W29460   0.462  17.349   3.258 -0.0302 -0.1551  0.1466
10607W        W29461   8.350  15.106  11.766  0.1480 -0.1393 -0.2374
10608W        W29462   5.701   3.057   1.316  0.2781  0.0837  0.3616
10609W        W29463   1.164   9.998  13.765 -0.0307 -0.0472  0.0343
10610W        W29464  11.001  14.113   3.147 -0.0628 -0.2149 -0.0096
10611W        W29465   1.674  15.402   3.179 -0.1543  0.3434 -0.0974
10612W        W29466   5.980   0.831   6.317 -0.1683  0.4349 -0.3866
10613W        W29467   2.220   5.910  13.281 -0.0008 -0.2609  0.0060
10614W        W29468  12.266   4.620   3.322 -0.1540  0.0392  0.2235
10615W        W29469   5.503   1.963  13.527  0.0586 -0.2090 -0.1263
10616W        W29470  12.704   9.465  13.807 -0.1288 -0.1102 -0.0240
10617W        W29471  14.723  14.073   1.849 -0.0741  0.3216 -0.3079
10618W        W29472  12.674   8.180   2.416  0.2044 -0.1254 -0.1347
10619W        W29473   6.087   0.674  12.950 -0.1493 -0.0725 -0.2996
10620W        W29474  12.904   7.380   0.456  0.0043 -0.0566 -0.0682
10621W        W29475  13.518   8.594  14.798  0.2669 -0.0311 -0.1112
10622W        W29476  14.450   5.600  12.507  0.2094 -0.0984 -0.4286
10623W        W29477   0.429   0.532  15.624  0.0613 -0.1326  0.3260
10624W        W29478   7.201  12.777   4.277  0.1028  0.3730  0.3582
10625W        W29479   4.130  12.423   0.222  0.2084  0.0414 -0.0859
10626W        W29480  13.219   1.798  14.685  0.1727  0.0777 -0.0833
10627W        W29481   0.505   7.360  16.022  0.1175 -0.0677 -0.0770
10628W        W29482  16.392  12.216  15.893  0.0727 -0.3137  0.0764
10629W        W29483   5.185   8.367   5.256  0.0821  0.1671 -0.2618
10630W        W29484   4.932   2.303   1.633  0.2035 -0.0642  0.0432
10631W        W29485   9.879   4.554  16.289 -0.1573 -0.0477 -0.1973
10632W        W29486   8.606  15.890   2.300  0.0266  0.0958 -0.1597
10633W        W29487   3.495  15.176  15.419 -0.2282 -0.3635  0.0137
10634W        W29488  11.896  12.369  13.543 -0.1829 -0.0175  0.0739
10635W        W29489  14.974   3.122  16.646  0.0980  0.3650  0.0991
10636W        W29490   2.978   7.580  16.222  0.1212 -0.0021 -0.2423
10637W        W29491   1.958   8.085  16.134  0.1700 -0.2616 -0.0985
10638W        W29492   4.182  16.176   0.449 -0.1744 -0.1821 -0.0064
10639W        W29493   2.399   3.489  16.519 -0.0044  0.4986 -0.0939
10640W        W29494   2.573   7.548   5.226  0.1543  0.0334  0.0164
10641W        W29495   2.249   0.835   1.592  0.0526 -0.3299 -0.1593
10642W        W29496  16.882   4.624  13.761 -0.1379  0.1700  0.1677
10643W        W29497   9.151  14.462   3.259  0.0185 -0.1000 -0.0639
10644W        W29498   0.870  15.996  14.428 -0.0021  0.0581  0.2770
10645W        W29499   3.171   5.774   3.620 -0.0858  0.0896  0.1764
10646W        W29500   8.860   1.256   2.930 -0.3367 -0.1777 -0.3436
10647W        W29501   7.770   7.509   4.143 -0.0482  0.1593  0.1172
10648W        W29502   3.597  10.181   3.551 -0.0896  0.0192  0.1489
10649W        W29503   7.563   0.310  13.787  0.0203 -0.1139  0.0937
10650W        W29504   8.741   3.055  15.747 -0.2618  0.0325  0.1309
10651W        W29505  15.634   6.717  14.384  0.0499  0.0955  0.3088
10652W        W29506   2.720   7.086   4.376 -0.2604  0.3126  0.0393
10653W        W29507  10.677   4.035   3.673  0.2283 -0.2856 -0.1841
10654W        W29508  14.683   5.231  13.453  0.2106 -0.1275 -0.2151
10655W        W29509  17.056  13.518  13.980 -0.0207 -0.1039 -0.3220
10656W        W29510   1.286   9.849  16.252 -0.0370 -0.0487  0.3648
10657W        W29511   7.493   0.531   1.335  0.0246  0.0483 -0.0999
10658W        W29512  16.088   0.264   2.497 -0.3068  0.0919 -0.2015
10659W        W29513  13.985  16.476   4.156 -0.2156  0.2072 -0.0414
10660W        W29514   7.421  10.586   1.478  0.1321  0.0698 -0.5045
10661W        W29515   5.021   8.484  14.916  0.0692  0.1333 -0.1707
10662W        W29516   9.111  12.324  14.375  0.3002  0.1074 -0.2033
10663W        W29517  12.614   6.698   2.341 -0.1895 -0.1299 -0.1100
10664W        W29518   4.312  12.596   0.651  0.0370 -0.1094 -0.2292
10665W        W29519  10.284   5.269   2.173  0.0564 -0.2719  0.0741
10666W        W29520  11.901  17.233   0.942 -0.1475  0.1263 -0.1894
10667W        W29521   4.153   8.060  12.643 -0.1642  0.0510  0.0278
10668W        W29522  16.615   4.468  14.341 -0.0885 -0.0095  0.0166
10669W        W29523  17.358  14.796  17.025 -0.1602  0.1191 -0.3380
10670W        W29524  14.680   7.148   3.275  0.1922  0.2480  0.0914
10671W        W29525   0.702  11.985  12.432  0.1763  0.1880 -0.2295
10672W        W29526  14.641   4.585  14.586  0.1024  0.1042 -0.0113
10673W        W29527  11.510  13.351   4.562 -0.2336  0.2478 -0.0958
10674W        W29528   9.853  12.108   1.264 -0.1645  0.1195  0.0042
10675W        W29529  15.356  10.395   5.283 -0.0084 -0.2703 -0.1943
10676W        W29530  10.061  11.464   0.069 -0.1931 -0.0134 -0.1190
10677W        W29531   5.559  10.515  16.478 -0.0378 -0.2978  0.0465
10678W        W29532   9.299   7.175  16.533  0.0922  0.1456 -0.3466
10679W        W29533  15.366  15.174  13.359  0.0261  0.0375  0.1692
10680W        W29534  16.467  12.537   4.295 -0.4096  0.0095  0.1088
10681W        W29535  11.282   6.976   5.197 -0.2980 -0.1909 -0.0554
10682W        W29536   1.720  15.338  13.677 -0.3052 -0.0612  0.1543
10683W        W29537   1.390   5.152  15.411  0.2123 -0.2488  0.1861
10684W        W29538   5.069  11.093  17.022  0.1800  0.1988 -0.1554
10685W        W29539   3.687   7.322   2.963  0.1446 -0.2175 -0.1109
10686W        W29540  13.826  15.387   2.459  0.3417  0.4279  0.3319
10687W        W29541   5.833   3.402  16.594 -0.1180  0.0451  0.2187
10688W        W29542   3.221  15.659  14.746  0.2075 -0.1799  0.3534
10689W        W29543  12.226   4.675  14.959 -0.1164  0.2406  0.3556
10690W        W29544   6.639   2.042   1.367 -0.0023  0.1029  0.0472
10691W        W29545   1.251  17.394   0.220 -0.0691 -0.0669 -0.1590
10692W        W29546   2.629   8.212   6.341 -0.1486 -0.0054 -0.3021
10693W        W29547   2.614   2.124  12.115 -0.0698  0.0045  0.3684
10694W        W29548   9.038  15.108  16.175 -0.2567  0.1210 -0.1840
10695W        W29549  11.377  11.233   4.165 -0.0568 -0.0902 -0.0470
10696W        W29550  10.975  11.826   4.630  0.1487  0.2232  0.0322
10697W        W29551   7.272   4.341  13.277 -0.0294 -0.1257 -0.0459
10698W        W29552   8.609   1.895  14.283  0.0371 -0.0148  0.1477
10699W        W29553   8.356   1.148  15.573 -0.0639  0.2134 -0.0726
10700W        W29554  11.410   8.317  16.427 -0.0039  0.3031 -0.2180
10701W        W29555   7.293  17.349   4.283  0.0939  0.2214 -0.0756
10702W        W29556  14.192   8.821   4.448  0.1982  0.0769 -0.2360
10703W        W29557  16.786   5.572   4.831  0.0344  0.1521 -0.3304
10704W        W29558   9.766   8.889   1.316 -0.1101 -0.1332 -0.1481
10705W        W29559   6.350   1.237   0.560  0.1489  0.1226  0.1549
10706W        W29560   3.602   8.170   0.622 -0.2608 -0.3697 -0.0517
10707W        W29561   8.939   8.121   3.404 -0.0709 -0.1187  0.1583
10708W        W29562   0.188   0.254   3.683 -0.1372  0.3807 -0.3130
10709W        W29563   6.396   0.510  14.441  0.1440  0.0529 -0.0289
10710W        W29564   5.286   0.041  17.072  0.0874 -0.0467 -0.3460
10711W        W29565   6.412   3.590  12.753 -0.0300 -0.2051  0.1022
10712W        W29566  12.594   5.352   5.029  0.0739  0.0507 -0.0782
10713W        W29567  11.680   8.167  15.608 -0.0352 -0.0238  0.1246
10714W        W29568   4.203  14.813   2.432 -0.1744  0.0625  0.0888
10715W        W29569   3.015  16.826   4.583  0.1406  0.1392 -0.2125
10716W        W29570   7.872   6.940  16.798 -0.1598  0.0214  0.2106
10717W        W29571  10.413  13.603  10.935 -0.1940  0.2576 -0.4000
10718W        W29572   1.061   1.251  16.577  0.2309  0.0956  0.1016
10719W        W29573  17.172   8.183   2.005 -0.3418 -0.3865 -0.2702
10720W        W29574   1.833  15.220   3.698  0.2190 -0.0422  0.0951
10721W        W29575  17.373   9.039  11.684  0.0951  0.0850  0.0755
10722W        W29576   8.501   8.815   4.368 -0.5047 -0.0994  0.0348
10723W        W29577   2.502   3.935  16.582 -0.0743  0.1442 -0.1413
10724W        W29578  13.174   1.070   4.517  0.0275 -0.0960  0.1893
10725W        W29579   7.818  11.830   3.017 -0.1729  0.0800  0.0551
10726W        W29580  14.486   2.756  11.919 -0.1091  0.0468 -0.2140
10727W        W29581   7.165  12.691  16.883 -0.0590 -0.1199  0.1360
10728W        W29582   2.494  11.004   0.491  0.2625  0.3270 -0.0534
10729W        W29583   1.367   1.432   2.778 -0.1597  0.1706  0.1714
10730W        W29584   6.016   1.862  13.485  0.0568 -0.0896  0.3003
10731W        W29585  14.316  11.112  14.061 -0.0193 -0.0366 -0.1830
10732W        W29586   4.988   2.248  16.175  0.0287 -0.1497 -0.2726
10733W        W29587   2.074  17.242   2.539 -0.0453  0.4290 -0.2114
10734W        W29588  10.173   4.692   0.700 -0.4848  0.0962  0.1202
10735W        W29589   5.753  12.715  16.454 -0.3604  0.0767  0.1318
10736W        W29590   7.294  14.435  12.882  0.1730  0.0067 -0.2097
10737W        W29591   6.699   3.316   3.354  0.2318  0.0553 -0.2287
10738W        W29592   2.483  10.151  16.652  0.2782  0.2716  0.0771
10739W        W29593  12.976  13.561   2.568 -0.2089 -0.3564  0.1354
10740W        W29594  12.348  17.439   2.503 -0.3774  0.0925 -0.0315
10741W        W29595   7.006  11.929   2.221 -0.3232  0.1579 -0.0604
10742W        W29596  14.822  17.326   0.175  0.1584 -0.1148 -0.1885
10743W        W29597  12.514   9.963   0.181  0.0017 -0.1094  0.0976
10744W        W29598   5.881  11.379   4.352 -0.2726 -0.2232  0.1072
10745W        W29599   3.770  17.098   1.961  0.0594 -0.1143 -0.2531
10746W        W29600   6.700   6.338  15.091 -0.0546 -0.0253 -0.0175
10747W        W29601  15.026   0.304   2.683  0.3370  0.0659 -0.0803
10748W        W29602  13.441   2.375  13.329 -0.1073  0.0433  0.1645
10749W        W29603  12.851  10.279  14.830 -0.2583  0.2510 -0.0889
10750W        W29604   5.806  16.879  17.064 -0.1061 -0.3490 -0.2134
10751W        W29605   0.483  16.368  13.542 -0.2477 -0.2590 -0.0207
10752W        W29606   1.580  17.052  13.160 -0.1730  0.0508  0.1441
10753W        W29607   6.535   8.846  13.742  0.0023  0.1021  0.0286
10754W        W29608   1.619  13.264  13.745 -0.2115 -0.1362 -0.0633
10755W        W29609   6.113   8.718   2.970 -0.0282 -0.1172  0.2330
10756W        W29610  15.841   3.672   1.509  0.4099  0.1778 -0.0045
10757W        W29611  10.612   7.003  12.675 -0.2272 -0.2377 -0.3183
10758W        W29612   4.741  14.326   3.824 -0.1275  0.0298  0.4845
10759W        W29613   9.494   8.520   1.597  0.1732  0.0276 -0.0288
10760W        W29614  10.148   4.135   3.593  0.0245 -0.0415  0.1320
10761W        W29615   6.458   7.146   4.392 -0.1145  0.1536  0.1768
10762W        W29616  10.630  10.524  16.358 -0.2653  0.1138 -0.1216
10763W        W29617  14.706  10.952   3.332  0.2020  0.2308 -0.4543
10764W        W29618  12.332   5.098  15.209  0.1382 -0.5356  0.1130
10765W        W29619   7.969  16.597  15.433  0.0018 -0.1470 -0.2441
10766W        W29620   0.099   4.722  13.236 -0.0145  0.1086 -0.2232
10767W        W29621   4.157   6.118  12.297  0.0003 -0.1736 -0.0366
10768W        W29622   4.378   2.524  15.920 -0.0993 -0.0041 -0.2083
10769W        W29623  16.723   3.850  12.681  0.2781  0.1172 -0.2464
10770W        W29624  16.931   2.065  15.714 -0.2749  0.0845 -0.0381
10771W        W29625  13.283  14.698  13.217 -0.1923  0.1558 -0.0985
10772W        W29626   4.480   4.438  14.792  0.0895 -0.2662 -0.2909
10773W        W29627   5.299   3.167   4.806  0.1946  0.2618 -0.0580
10774W        W29628  10.056   9.475   0.868 -0.2333 -0.0841 -0.0508
10775W        W29629   3.833  15.970  15.204 -0.6425  0.0344 -0.2230
10776W        W29630  10.355   7.771  13.262 -0.1145  0.3034  0.1188
10777W        W29631   9.157   9.275  13.343 -0.0159 -0.1741 -0.0227
10778W        W29632  12.523  13.283   3.360  0.0022  0.2163  0.0504
10779W        W29633  13.479   4.443  16.663  0.0779  0.1870 -0.0390
10780W        W29634  11.912   2.825  16.299  0.1343 -0.2758  0.0321
10781W        W29635  10.465   0.298  15.517 -0.0044  0.0022  0.0169
10782W        W29636  13.856   7.732   5.130  0.0886  0.3635 -0.0515
10783W        W29637  12.875  17.365  13.905 -0.0809  0.0736 -0.2417
10784W        W29638  10.666   5.995   3.977  0.0269 -0.3306 -0.2667
10785W        W29639   9.262   2.381   2.610 -0.0193  0.0260 -0.0399
10786W        W29640   0.942   9.225  16.500 -0.3446  0.2141  0.0601
10787W        W29641   0.078   5.027  15.130  0.0334  0.1237 -0.0187
10788W        W29642   0.491  16.999   1.881 -0.1384  0.2092  0.2004
10789W        W29643  15.200  16.612  15.486 -0.0679  0.1950 -0.0418
10790W        W29644  11.443   1.185   5.268  0.2949 -0.1656 -0.0514
10791W        W29645  11.475  12.452   4.862  0.2455 -0.1041  0.1227
10792W        W29646   5.636   8.698  12.877 -0.1064 -0.3883 -0.0164
10793W        W29647   8.849   0.484   0.337  0.0090 -0.1959  0.0920
10794W        W29648  17.372  11.479   1.731  0.0110 -0.2453 -0.1422
10795W        W29649  15.510   1.341   5.186  0.3167 -0.2886  0.1653
10796W        W29650  11.938  13.334  12.658  0.2409 -0.1403  0.0574
10797W        W29651   9.039   2.353   0.889  0.1669 -0.3589  0.1422
10798W        W29652   3.906   0.789   0.714  0.0409  0.1232 -0.0555
10799W        W29653  17.030   0.200   4.629 -0.1451 -0.0514 -0.0326
10800W        W29654   6.260  14.359   4.469  0.0259  0.1217  0.1638
10801W        W29655   5.826   7.521  13.724 -0.1487 -0.0470 -0.1790
10802W        W29656   4.816   5.912   0.667 -0.1483 -0.2660  0.2546
10803W        W29657   9.923   3.004  16.611  0.1055 -0.0593  0.0849
10804W        W29658   0.457   7.530  16.839 -0.1412  0.2727  0.3394
10805W        W29659   3.399  15.119  15.948 -0.2075 -0.3377  0.2148
10806W        W29660   5.818   4.772  13.442  0.2027  0.2115 -0.1205
10807W        W29661  14.603   5.190   1.356  0.4414 -0.3791 -0.0408
10808W        W29662   0.934  11.552  17.011  0.0937  0.0494  0.2549
10809W        W29663  12.269   6.637  14.736 -0.0580 -0.0423 -0.3419
10810W        W29664  12.036   6.980   0.555  0.0264  0.0275 -0.3286
10811W        W29665   6.230  13.581  13.098 -0.0978 -0.2174 -0.1042
10812W        W29666   7.889   2.339  14.544  0.4124 -0.2952 -0.1405
10813W        W29667   3.145  13.257   2.455  0.2181  0.1620  0.2084
10814W        W29668   2.382  16.727   5.056  0.0212 -0.0168 -0.1149
10815W        W29669   1.276   9.108   3.384  0.2665  0.2434  0.1564
10816W        W29670   3.167   9.066   4.162 -0.1053 -0.0118 -0.0949
10817W        W29671  15.877   9.313   1.736  0.2544 -0.3802  0.3416
10818W        W29672  16.294   0.725   2.682  0.0351 -0.0968  0.0664
10819W        W29673   7.067  13.277   2.728  0.1010 -0.1621  0.0185
10820W        W29674   9.053   9.328  14.755 -0.0243 -0.0112  0.1398
10821W        W29675   3.284   2.918   3.431  0.3547  0.1481 -0.0505
10822W        W29676   7.699   7.338   2.470  0.2907  0.1844  0.0250
10823W        W29677  11.803  11.179  15.430 -0.1859  0.0085 -0.1461
10824W        W29678  16.019  10.853  15.993  0.1227 -0.1091  0.3903
10825W        W29679  17.519   4.548  12.459  0.1153  0.2408 -0.1385
10826W        W29680   6.032  12.525   3.470  0.1590  0.1488  0.1373
10827W        W29681  16.092   8.848  14.932  0.2769 -0.1885 -0.1076
10828W        W29682   9.543  11.191   0.814  0.1098 -0.2566  0.2720
10829W        W29683   3.961   9.788  16.693  0.2501  0.3103 -0.1804
10830W        W29684  11.247   2.059  12.410  0.1631 -0.0509 -0.2218
10831W        W29685   0.417   6.159   2.340  0.3298  0.1090 -0.0219
10832W        W29686  17.545  17.349   1.156  0.1040  0.0262 -0.1908
10833W        W29687  15.324  12.998  16.255 -0.2126  0.3388  0.1501
10834W        W29688  10.692  12.516  15.771  0.0226  0.2231  0.0460
10835W        W29689  13.620   3.601  15.589 -0.2497 -0.3610  0.0670
10836W        W29690   2.330   0.561   0.003  0.2771  0.0182 -0.2010
10837W        W29691  15.741  14.373  12.691  0.0230 -0.0880 -0.2372
10838W        W29692   7.150  15.550   1.687  0.0261  0.0229 -0.2479
10839W        W29693   2.089   6.400  13.527 -0.0117  0.2201  0.0315
10840W        W29694  16.399   4.541   4.190  0.1388 -0.1109 -0.0733
10841W        W29695  15.679  14.315   1.949 -0.0817 -0.0785  0.1318
10842W        W29696  10.791  14.988   4.536 -0.2239  0.1157  0.0093
10843W        W29697   6.743  10.763   3.199  0.0281  0.2482  0.0372
10844W        W29698  14.642   9.574   1.828 -0.1592 -0.0834 -0.2587
10845W        W29699  10.879   8.712   4.501  0.0601  0.2783 -0.2711
10846W        W29700   0.651  14.612  13.855 -0.0039  0.4682 -0.2220
10847W        W29701  13.588  12.100  13.397 -0.1091 -0.0396  0.1585
10848W        W29702  12.891   9.028  16.583  0.0824 -0.1969  0.0789
10849W        W29703  12.469   3.051   2.042  0.0121  0.2397 -0.1520
10850W        W29704   0.560   8.185   0.386 -0.2033 -0.1199 -0.2918
10851W        W29705   3.352   3.371   0.471  0.0256 -0.3651 -0.0932
10852W        W29706   9.391  13.549   3.516 -0.0182 -0.0685  0.2518
10853W        W29707   2.067   6.181   0.888 -0.0462  0.0586 -0.0637
10854W        W29708   3.635   0.400  15.301 -0.3049  0.1364  0.1945
10855W        W29709   0.166  11.179   3.057 -0.2366 -0.1470  0.0599
10856W        W29710  10.263  12.768  14.041 -0.3286 -0.0797 -0.0213
10857W        W29711  13.644  14.410  12.294  0.1833  0.3131 -0.0281
10858W        W29712  17.248  14.100   1.636 -0.0381  0.2923  0.3028
10859W        W29713   1.931  10.991   0.266  0.1808 -0.1529  0.1166
10860W        W29714   0.557  11.264  16.457 -0.0453 -0.3160 -0.0591
10861W        W29715   2.442  14.791  12.193  0.0281  0.2424  0.2332
10862W        W29716   2.971   8.645   1.912 -0.0426 -0.0237  0.1285
10863W        W29717  13.738  16.092  13.167  0.2635  0.1528 -0.0908
10864W        W29718  12.509   9.114   1.563 -0.3787  0.0201 -0.1046
10865W        W29719  11.548  15.087   1.917  0.0750 -0.0055 -0.1488
10866W        W29720   1.403  12.007  14.138  0.3148  0.2283  0.1513
10867W        W29721   3.342   1.266   3.678 -0.0098 -0.0528  0.1063
10868W        W29722   1.868   2.479  16.858 -0.1956 -0.0074  0.3806
10869W        W29723  11.440   2.011  16.055  0.0488  0.0585  0.2859
10870W        W29724   7.534  12.947   3.466  0.3238 -0.0072 -0.1786
10871W        W29725   0.261  17.430   2.739 -0.4883 -0.2542  0.2670
10872W        W29726   9.577   6.957  16.884  0.2541 -0.0964  0.1045
10873W        W29727  16.778   0.054   1.836  0.3471  0.0439  0.6178
10874W        W29728   0.117   5.426   4.580  0.1657  0.2328 -0.0384
10875W        W29729  16.862  15.621  14.331  0.0942  0.1212 -0.1877
10876W        W29730   9.299  12.384   3.292 -0.0941  0.4271 -0.0668
10877W        W29731  15.881  16.151  16.079 -0.1295 -0.0965  0.4035
10878W        W29732  14.003   8.075   2.035 -0.1290  0.0600  0.0818
10879W        W29733  12.912   7.892   1.390  0.1908  0.1746  0.0146
10880W        W29734   7.749   0.242  16.345  0.0901  0.2206 -0.2225
10881W        W29735  12.268   8.502  15.371  0.0218  0.2098  0.2890
10882W        W29736   3.471   7.312   2.548  0.0956  0.0055 -0.0714
10883W        W29737   6.677   3.985  15.572  0.1575 -0.0396  0.1817
10884W        W29738   2.237   8.506   0.991 -0.3433 -0.1926 -0.1543
10885W        W29739   4.096  10.369   0.268 -0.2759 -0.1505  0.0803
10886W        W29740   9.221   2.005   2.098 -0.2094 -0.1595  0.0308
10887W        W29741   9.169  16.588  11.782 -0.3566 -0.3894 -0.1927
10888W        W29742   5.127   6.447  12.432 -0.1536 -0.0218  0.0238
10889W        W29743   7.163  14.375  14.145 -0.1700  0.0384  0.1106
10890W        W29744  11.397   9.068  12.352  0.2732  0.0008  0.2430
10891W        W29745   9.278   0.364  12.388  0.1354  0.3287  0.3100
10892W        W29746   2.209  12.519  12.520  0.1111 -0.3451 -0.0488
10893W        W29747  16.318   7.756  16.495 -0.1439  0.0977  0.0681
10894W        W29748  12.796   1.403   1.220 -0.0498 -0.0899 -0.1373
10895W        W29749   7.598  13.341   3.798  0.1456  0.3269  0.3837
10896W        W29750   1.349   1.342   1.212 -0.0185  0.2135 -0.2256
10897W        W29751  10.495  12.588  14.879  0.1054  0.2234 -0.0609
10898W        W29752   6.048  15.684   2.341  0.2151 -0.2494  0.0368
10899W        W29753  12.832  13.027  12.038 -0.2209 -0.0690 -0.0827
10900W        W29754  12.746   2.908   2.545  0.1048 -0.1444 -0.0560
10901W        W29755  11.548   7.410   2.501  0.0313  0.3238 -0.3068
10902W        W29756   1.545   0.255   2.871  0.7087 -0.2879 -0.0695
10903W        W29757  13.664   2.195  17.041 -0.0177  0.4560 -0.3681
10904W        W29758   5.986   4.875  16.665  0.0350 -0.1871  0.2831
10905W        W29759  16.021  12.829   2.366 -0.1618 -0.0490 -0.3940
10906W        W29760   9.208   7.999   1.594 -0.2752 -0.0623  0.0435
10907W        W29761  14.424   3.691   3.992 -0.0145  0.0138  0.3340
10908W        W29762   6.978   2.282   0.256  0.3673 -0.0856 -0.1547
10909W        W29763   7.541   2.633   4.825  0.3039 -0.1808 -0.1448
10910W        W29764  16.011   8.681   2.204 -0.2288  0.1708 -0.2502
10911W        W29765  12.196  14.670   2.483 -0.2958  0.0166 -0.0493
10912W        W29766  13.980  13.909  15.614 -0.0503 -0.1040  0.0420
10913W        W29767   8.974   7.396   0.183 -0.4669 -0.1033  0.1005
10914W        W29768   9.653   0.750   1.483  0.0352 -0.0695  0.2079
10915W        W29769   8.339   9.751  12.644  0.1126 -0.0549  0.3114
10916W        W29770   2.010   3.799   3.047 -0.1163  0.0187 -0.1629
10917W        W29771  15.446  15.572   1.493 -0.0676  0.0580  0.0188
10918W        W29772  11.045  17.550   5.157 -0.1063 -0.0537  0.0838
10919W        W29773  13.909   8.153  12.559 -0.1114 -0.1683 -0.0951
10920W        W29774  15.171  16.193   2.131 -0.0945  0.0265 -0.1541
10921W        W29775  17.574  10.415   5.224  0.4652  0.0656 -0.0269
10922W        W29776  13.909   7.702   2.781  0.0732  0.0623  0.3287
10923W        W29777  11.100  14.222  15.631  0.2569 -0.2117  0.2986
10924W        W29778   5.817  16.696  14.687 -0.1124 -0.2088 -0.1818
10925W        W29779   9.292  13.340  16.369  0.2244  0.1442  0.1503
10926W        W29780   7.859  10.983   4.997  0.1280 -0.1555  0.3088
10927W        W29781   5.225  17.577  13.826 -0.0272 -0.0810  0.2547
10928W        W29782  14.496   0.749  12.981  0.1208 -0.0100  0.0422
10929W        W29783  11.770   6.679   5.251 -0.0871  0.0871  0.0797
10930W        W29784   3.368  12.266   4.278 -0.1711  0.1192 -0.0237
10931W        W29785   9.703  13.507  14.693  0.0492 -0.2559 -0.1566
10932W        W29786  16.283   9.602  16.107  0.0031  0.2433 -0.0507
10933W        W29787   4.660  11.668   0.904  0.1662 -0.0288 -0.0208
10934W        W29788   9.750  13.945  12.789  0.2026  0.4483  0.0487
10935W        W29789   7.853  13.895  13.945 -0.2202  0.2013 -0.1709
10936W        W29790  13.310   7.244   3.384 -0.1028  0.1813 -0.0207
10937W        W29791   6.868  14.988   3.091  0.0301 -0.1364 -0.4657
10938W        W29792   2.769   5.336  12.607 -0.3562  0.0846  0.0336
10939W        W29793  11.746  11.728   0.212  0.0692  0.0328  0.0782
10940W        W29794  15.780  12.040   4.459  0.0263  0.0578  0.2512
10941W        W29795   7.550   2.357   1.294  0.1863  0.0541  0.0394
10942W        W29796   4.694  16.473   1.268 -0.0261 -0.2638 -0.0905
10943W        W29797  13.113  11.205  12.553 -0.1203 -0.0645  0.0563
10944W        W29798  14.464  16.431  16.330 -0.0443  0.0159 -0.0801
10945W        W29799  15.024  16.512  12.852 -0.2817 -0.0004 -0.3579
10946W        W29800   2.230   3.633  17.031  0.0641 -0.1663 -0.1941
10947W        W29801   1.219  15.082   4.171 -0.2912  0.3810  0.0056
10948W        W29802   9.726  13.146   2.856 -0.0784  0.0072  0.0013
10949W        W29803   2.144  15.125   4.424  0.0522 -0.0751 -0.1013
10950W        W29804   4.382  13.762  14.751  0.1073  0.2265 -0.2013
10951W        W29805  11.755  10.893   0.797  0.0078 -0.0848 -0.1674
10952W        W29806   6.753   7.694  13.692 -0.3466 -0.1328  0.0285
10953W        W29807   0.999   8.580  15.940 -0.1190  0.3644  0.2527
10954W        W29808  16.305   6.946  16.900  0.1097  0.3174  0.1076
10955W        W29809   4.002   9.522  13.383  0.1285 -0.3157  0.2770
10956W        W29810   5.222   5.493  12.891 -0.0443 -0.1984  0.0785
10957W        W29811   0.484   7.474  12.870 -0.0227  0.0757 -0.1136
10958W        W29812   5.720   5.056   5.214  0.0711 -0.3821 -0.0189
10959W        W29813   0.473  12.094   1.624 -0.0557 -0.2722 -0.2575
10960W        W29814   8.802  11.893  17.160 -0.0411  0.1113  0.3590
10961W        W29815  17.026   8.289  15.982  0.3751  0.0471  0.0095
10962W        W29816   5.897   8.944  14.935  0.0262 -0.2077  0.0060
10963W        W29817  11.041   6.328   1.414 -0.1266  0.2142  0.0630
10964W        W29818  11.503  13.454   1.034  0.0931 -0.3126  0.1001
10965W        W29819   1.143   7.848   2.939 -0.1097  0.1987 -0.0042
10966W        W29820   6.769  11.242   5.620 -0.0072  0.0443  0.1650
10967W        W29821   7.401  11.957  13.710 -0.3489 -0.2811  0.3013
10968W        W29822   6.968  10.239   1.399  0.0945  0.1896  0.4616
10969W        W29823   8.680   0.175  13.977  0.0432  0.0069  0.2024
10970W        W29824   2.157   9.146   4.388  0.0020  0.0073  0.1786
10971W        W29825   3.871   1.074   2.310  0.0531  0.0464 -0.1712
10972W        W29826   3.175  15.879  16.500 -0.1506  0.1124  0.0106
10973W        W29827  13.685   9.676   3.838  0.0440  0.0823 -0.3322
10974W        W29828   6.178  15.189   2.475  0.0882 -0.0605 -0.0790
10975W        W29829  15.823   9.553  15.383 -0.2878 -0.0891 -0.0827
10976W        W29830   7.518   3.940   3.504 -0.0931  0.0687 -0.1079
10977W        W29831   3.192  12.807  13.181 -0.3068 -0.0654  0.1666
10978W        W29832   3.530   1.809   0.613 -0.0711  0.0872  0.0814
10979W        W29833   2.427  10.944   4.736 -0.0758 -0.0164 -0.2497
10980W        W29834   0.845   1.717  16.903  0.1627  0.2560  0.1244
10981W        W29835   7.714   3.498  13.558  0.1516  0.0821  0.3176
10982W        W29836  11.926  16.475  13.311  0.0504  0.1699 -0.1914
10983W        W29837   9.879   4.157   5.689  0.1309 -0.1577  0.0906
10984W        W29838  14.405  10.825  11.042 -0.0340 -0.0635  0.2962
10985W        W29839   6.604   8.919  15.894  0.2990 -0.0373  0.1517
10986W        W29840  14.965  13.024   4.402 -0.0734 -0.1673  0.1979
10987W        W29841   7.947   9.554  13.845  0.3909  0.0669  0.0914
10988W        W29842  13.008   7.200   0.910  0.2255 -0.0787  0.0674
10989W        W29843   9.161   5.534   3.479 -0.0465 -0.0063  0.1616
10990W        W29844  11.760   9.586  14.608  0.1763 -0.1321 -0.1916
10991W        W29845   7.254   3.086   0.931  0.3258  0.1085  0.3300
10992W        W29846  16.526   7.895   6.065 -0.1963 -0.0408 -0.2019
10993W        W29847   8.576   7.015  13.809 -0.0581 -0.0585  0.1644
10994W        W29848   0.052   1.979   0.152  0.1197  0.0416  0.2832
10995W        W29849   7.699   5.502  17.123 -0.2111 -0.4318 -0.0855
10996W        W29850   8.632   7.496  15.631 -0.1854  0.2262  0.0403
10997W        W29851  14.031  10.057  12.943  0.2403 -0.0915  0.0317
10998W        W29852  16.011  16.851  13.703 -0.0929  0.0762  0.1028
10999W        W29853  13.933   2.332   3.044 -0.2232  0.1232  0.2290
11000W        W29854   2.532  15.126   0.802  0.1591  0.4389 -0.0751
11001W        W29855  15.058  11.909  16.212 -0.0191  0.0983 -0.3048
11002W        W29856   9.070   9.647  16.959  0.0731  0.1848  0.3363
11003W        W29857  12.279   2.223   2.164 -0.0524  0.0667 -0.3012
11004W        W29858   0.782   7.404  16.510  0.0073 -0.2035 -0.0116
11005W        W29859   3.261   4.059   4.398 -0.3063 -0.0592 -0.2717
11006W        W29860   3.591   4.227  15.227 -0.1607 -0.1499  0.1418
11007W        W29861   1.329   8.110  11.593  0.0392  0.1642 -0.0526
11008W        W29862  15.135   4.274   3.114  0.1997 -0.0930  0.1193
11009W        W29863  10.760  16.690   4.633  0.1286 -0.1842  0.0261
11010W        W29864   9.425   4.097  12.934 -0.0250  0.2313 -0.0209
11011W        W29865  11.179   9.712  13.857 -0.2363  0.0131  0.1777
11012W        W29866  17.427   9.100  16.963 -0.1522 -0.0534 -0.0319
11013W        W29867  16.849  12.141   3.107 -0.4596 -0.4169  0.1460
11014W        W29868   1.599  16.489  15.473  0.1122  0.0128 -0.0957
11015W        W29869  14.733   1.349  12.007  0.1921  0.2277  0.0278
11016W        W29870   6.490  10.534   0.292 -0.1598 -0.3442 -0.1533
11017W        W29871  12.431   2.356  15.147  0.1504 -0.0333 -0.0255
11018W        W29872   0.802  15.654  16.046  0.2256  0.0084  0.0925
11019W        W29873  12.484   2.028   4.853 -0.0606  0.0297  0.0431
11020W        W29874  10.707   6.214  15.046  0.1986 -0.0765  0.2077
11021W        W29875   8.058   7.485  13.852  0.1625  0.0083  0.0945
11022W        W29876  16.021  11.604   0.954 -0.1903 -0.2607  0.0236
11023W        W29877  17.399   9.054  16.172  0.2824  0.1026  0.1069
11024W        W29878   5.741   6.374  12.353 -0.0430 -0.0418 -0.0482
11025W        W29879  13.022   5.034   2.913  0.0394 -0.1010 -0.2037
11026W        W29880   5.741  16.195   3.833  0.1878  0.0173 -0.1340
11027W        W29881  12.135   0.727   1.125  0.0864  0.2199 -0.2763
11028W        W29882  10.907  12.866  16.961  0.0517 -0.0675  0.1225
11029W        W29883   5.690   5.443   1.073 -0.0359  0.2226 -0.0244
11030W        W29884   5.182  10.223  16.229  0.2227  0.4015 -0.3379
11031W        W29885   7.512  16.939  13.638 -0.1383  0.0902 -0.3801
11032W        W29886   8.897  15.680   3.030  0.0599 -0.1466 -0.1275
11033W        W29887   8.236  15.974  16.628  0.0290 -0.1725  0.1218
11034W        W29888  15.269  15.657  15.573  0.1706 -0.1844 -0.1442
11035W        W29889   1.883   9.260  16.706 -0.0207 -0.1500  0.0476
11036W        W29890   4.854   1.475  16.054  0.2306 -0.1655  0.1324
11037W        W29891   5.704  11.597  17.098 -0.2049  0.1895  0.2079
11038W        W29892  17.090  12.310  14.177  0.0397 -0.2030 -0.0278
11039W        W29893   9.178  13.494  13.977  0.0327 -0.0282  0.1847
11040W        W29894   9.553   5.505  12.872  0.2374 -0.4702 -0.0966
11041W        W29895  16.159   5.506  12.986  0.0278  0.0139  0.0602
11042W        W29896  15.197   5.064   0.733  0.3376  0.0097 -0.2393
11043W        W29897   5.301   4.011  14.463  0.2032  0.1810  0.1049
11044W        W29898   0.772  14.237  12.962 -0.0574  0.2126  0.1889
11045W        W29899  15.062   8.934   4.623  0.1512  0.0812 -0.1075
11046W        W29900   7.467   3.686   3.055  0.1940  0.1683  0.1082
11047W        W29901  16.086  11.102  15.089  0.4207 -0.2811  0.1801
11048W        W29902  16.581  13.578  16.220  0.0692 -0.3779 -0.2877
11049W        W29903   8.787  13.817   0.549  0.2519 -0.0322  0.2791
11050W        W29904  14.173   2.504  15.231 -0.3904 -0.2144 -0.2621
11051W        W29905   6.998   2.308  12.627  0.2155  0.3351 -0.1557
11052W        W29906   0.232   4.983   4.422 -0.0021 -0.3068 -0.3164
11053W        W29907   4.446   1.124   2.174  0.3738  0.0584 -0.2934
11054W        W29908   9.924  15.421   4.970  0.0770 -0.0073  0.0273
11055W        W29909   9.665   3.664  13.115  0.1216  0.2817  0.2753
11056W        W29910  12.776  13.308   0.910  0.1101  0.2808 -0.0956
11057W        W29911   5.016   4.147   3.919  0.0168 -0.0708 -0.1218
11058W        W29912   4.150   5.727   4.396  0.0576  0.1062 -0.1797
11059W        W29913  12.437   2.684   3.430  0.1356  0.0047  0.1595
11060W        W29914  10.479   7.764   5.382 -0.0072  0.4070 -0.0228
11061W        W29915  14.652  13.736  13.286  0.1682  0.0663 -0.0044
11062W        W29916   2.210  16.201   0.571 -0.1052 -0.1286 -0.1194
11063W        W29917   7.293   8.967  13.325  0.1112 -0.1459  0.1180
11064W        W29918  14.687  17.499   5.013 -0.0510  0.1059  0.0880
11065W        W29919   7.894   2.321  13.710 -0.1426  0.1633 -0.1312
11066W        W29920   5.797  14.445  15.006 -0.2452 -0.4656 -0.1374
11067W        W29921  10.041   5.221   3.026  0.1345  0.0587 -0.0024
11068W        W29922   4.517  10.134   5.388  0.1539 -0.0475  0.1439
11069W        W29923   4.674  15.722  16.435 -0.0245  0.1460 -0.0249
11070W        W29924  16.747  12.574  13.949 -0.2489  0.0240  0.0060
11071W        W29925   5.237   8.219  13.677  0.1795  0.2622  0.1882
11072W        W29926  15.152  10.593   0.510 -0.2108 -0.0917 -0.0261
11073W        W29927   6.516   0.573   3.286  0.3499 -0.0457  0.1287
11074W        W29928  12.705  11.406  12.224  0.1576  0.1638  0.1986
11075W        W29929  13.476   5.632   4.599 -0.1938 -0.0724  0.0324
11076W        W29930   8.410  16.278  16.221 -0.0963 -0.0089  0.2183
11077W        W29931   5.646   1.735   3.082 -0.0623  0.1151  0.3098
11078W        W29932   4.017   6.206  15.361  0.1182 -0.2544  0.3215
11079W        W29933   1.748   4.006  16.077 -0.0221 -0.0828 -0.4716
11080W        W29934   9.645  14.796   4.901  0.1828 -0.0669  0.1865
11081W        W29935  17.529   6.422   2.581  0.0501 -0.1035 -0.0187
11082W        W29936  13.602  16.249   2.795 -0.1261 -0.0530 -0.1262
11083W        W29937   7.837   9.595   4.431  0.0004 -0.0356  0.2927
11084W        W29938   7.375   4.033  12.896  0.0219  0.0084 -0.2738
11085W        W29939   7.288   1.668  11.848  0.0731 -0.0445 -0.1719
11086W        W29940  15.148  11.310   4.899 -0.4402 -0.2103 -0.4213
11087W        W29941  11.146   8.623  16.755 -0.2690 -0.3405 -0.0298
11088W        W29942   9.572   6.562  13.920 -0.1937  0.0297 -0.0807
11089W        W29943  12.258   6.819   1.456  0.1223 -0.0965 -0.3458
11090W        W29944   8.723   2.014  16.583 -0.1191 -0.1702 -0.5060
11091W        W29945  15.434   7.861   4.332 -0.1272  0.0918  0.1348
11092W        W29946   6.322   5.703   2.250  0.4930  0.1321  0.1292
11093W        W29947  10.595  16.845   0.979  0.2198 -0.0336  0.2848
11094W        W29948   2.818  14.886  14.273 -0.0571 -0.2291 -0.1193
11095W        W29949   5.252   8.938   0.465 -0.0966  0.1492 -0.3720
11096W        W29950   1.654  16.522  13.072 -0.2447 -0.1357 -0.1733
11097W        W29951  16.969   6.882  14.063 -0.2196  0.0239  0.0453
11098W        W29952   6.862  13.668   3.487 -0.2982  0.1533  0.0409
11099W        W29953   3.488   8.123  13.224 -0.4473 -0.2062 -0.0011
11100W        W29954  14.862  10.983  15.754  0.0664  0.1806  0.0746
11101W        W29955  13.314  11.479  12.941 -0.0020  0.1432  0.0814
11102W        W29956   9.476   4.720  13.659  0.1621 -0.0661 -0.2776
11103W        W29957  14.093  11.969  13.021 -0.0983  0.0322 -0.2191
11104W        W29958   0.380  16.071  14.288 -0.0853  0.0414 -0.0431
11105W        W29959   5.691  16.626  16.027  0.0570  0.0502 -0.0516
11106W        W29960   7.018   1.250  16.611 -0.0081  0.2163  0.1056
11107W        W29961  15.734   6.759   1.020  0.2717 -0.0197  0.0704
11108W        W29962   1.353  11.891  15.183  0.0169 -0.1267 -0.1224
11109W        W29963   7.194  15.213   3.481 -0.1210  0.1035 -0.3298
11110W        W29964   9.205  12.895   2.863 -0.0900 -0.2966 -0.0420
11111W        W29965  16.029   3.687   0.643 -0.0343 -0.1815 -0.3725
11112W        W29966  15.692  12.944  13.447 -0.2182  0.0241  0.2775
11113W        W29967  10.532  12.961   2.629  0.2674  0.0675 -0.3273
11114W        W29968  12.195   0.392  14.242  0.0036  0.0985 -0.0104
11115W        W29969  14.731   4.782  15.043  0.1385 -0.1372 -0.0613
11116W        W29970   1.692  10.116   1.174 -0.0104 -0.0597 -0.0007
11117W        W29971   2.458   4.313   2.319  0.1432  0.0590 -0.1426
11118W        W29972   9.024   2.844  16.473 -0.0336  0.1452 -0.1609
11119W        W29973   7.894  12.564  16.632  0.0015  0.0059 -0.0203
11120W        W29974   5.722  11.017   0.553 -0.0488  0.1458  0.4495
11121W        W29975   1.283   4.441   1.260 -0.0520 -0.1099 -0.2730
11122W        W29976  14.675  12.134  15.948 -0.0425 -0.0759  0.0227
11123W        W29977  10.423   4.089   1.748 -0.0601  0.1784 -0.4665
11124W        W29978  10.712  12.154   4.288 -0.1727  0.1607 -0.2068
11125W        W29979   3.658  16.658  16.905  0.0241 -0.0471  0.2766
11126W        W29980   5.662  14.467  13.973 -0.1251  0.0892  0.2319
11127W        W29981   4.574  16.272  15.691  0.3582 -0.1147 -0.3142
11128W        W29982   7.380   5.627  15.602  0.1042  0.0850  0.2185
11129W        W29983  15.804  14.005  12.295  0.1827 -0.0643 -0.2558
11130W        W29984   0.966  14.909  17.190 -0.1456 -0.0692 -0.1648
11131W        W29985   5.092  10.897  12.047  0.0538 -0.0275  0.0428
11132W        W29986   9.303   9.823  14.484  0.2524  0.0581 -0.1179
11133W        W29987   7.467   3.340  15.714 -0.0986  0.1564  0.0872
11134W        W29988  14.136  16.677  15.997  0.0392  0.0982  0.0987
11135W        W29989  12.452  10.527   2.316 -0.2330  0.0715 -0.3564
11136W        W29990   4.856  14.678   1.133  0.1244  0.2868 -0.1236
11137W        W29991  13.436  17.451  16.524  0.1932 -0.1762  0.0166
11138W        W29992   1.203   1.315  14.673  0.1755  0.1042 -0.1269
11139W        W29993  12.957   8.020   3.533 -0.0323 -0.0173 -0.1023
11140W        W29994  10.328   4.178   1.047 -0.0618 -0.1819  0.1008
11141W        W29995   8.791   7.930  15.793  0.2070 -0.0383 -0.0990
11142W        W29996   1.259  12.760   2.889 -0.0674 -0.0995  0.2750
11143W        W29997  15.084  12.531   0.340  0.2000  0.1592  0.0886
11144W        W29998  13.284  14.483   1.847 -0.2495 -0.0906  0.0750
11145W        W29999   5.053   5.187   0.367  0.0981  0.0889  0.2860
11146W        W30000   1.634   8.718  12.220  0.0769  0.2683 -0.1236
11147W        W30001  11.796   4.068   1.167 -0.2697 -0.0907  0.2529
11148W        W30002   2.551  10.363  16.183  0.1627 -0.0692  0.1579
11149W        W30003  11.943  17.138  15.230  0.4721 -0.1376  0.1812
11150W        W30004   3.933   3.158   1.141 -0.0316 -0.1234  0.1397
11151W        W30005  14.672  15.514   5.216  0.3880  0.0235  0.0783
11152W        W30006   1.128  11.959   0.750 -0.1278 -0.1504  0.1538
11153W        W30007  11.096  16.635  15.349 -0.0755  0.1500 -0.2032
11154W        W30008   3.636   3.300  15.861  0.2632  0.2738 -0.1726
11155W        W30009   0.642   4.317   4.070 -0.0428  0.0202  0.1772
11156W        W30010   1.100   2.466  14.322  0.2004 -0.0846 -0.2642
11157W        W30011  15.266  12.898  17.150  0.1072 -0.3931 -0.1565
11158W        W30012   6.050   8.663   1.077  0.0839 -0.0852  0.2499
11159W        W30013  14.880  13.803  12.823 -0.2351 -0.0278  0.0917
11160W        W30014  13.278   8.095   0.863 -0.2710 -0.2661 -0.1558
11161W        W30015  15.267  17.453   2.739 -0.3403  0.5461 -0.0337
11162W        W30016  10.497  15.648  15.052  0.0675  0.0133  0.3178
11163W        W30017   8.581  10.159  14.435  0.0576  0.0528 -0.0897
11164W        W30018  14.206  11.350  15.847 -0.0640  0.3194 -0.0407
11165W        W30019   0.749   4.187   2.810 -0.0743  0.0595  0.4251
11166W        W30020  10.908  12.165   5.187  0.1480 -0.1141 -0.1827
11167W        W30021   4.834   5.548  13.701  0.0196  0.2339 -0.2099
11168W        W30022   5.612  16.041  12.802 -0.4689 -0.0930 -0.0500
11169W        W30023   4.332  14.116  15.583  0.0311 -0.0878  0.0664
11170W        W30024   4.941   6.826  16.172 -0.0777 -0.0361 -0.1808
11171W        W30025   9.485   0.864  14.700  0.1377 -0.0842 -0.1188
11172W        W30026   6.950   2.071  17.047  0.3934 -0.1011  0.0080
11173W        W30027   9.506  12.165  14.574  0.0279  0.0152  0.0354
11174W        W30028  13.142   7.819  14.458 -0.1584  0.2339  0.2540
11175W        W30029  14.082   5.694  12.137  0.2066  0.0563  0.1179
11176W        W30030  11.806   3.229   2.521  0.3700  0.0312  0.2458
11177W        W30031   8.806   4.953   2.595 -0.1393  0.0299  0.0174
11178W        W30032  16.065  10.126  16.162  0.5154 -0.3182 -0.1990
11179W        W30033   2.524   1.112   2.584  0.0952  0.1563  0.1473
11180W        W30034  13.817  15.342   0.772 -0.3273 -0.2159 -0.2324
11181W        W30035   7.603   8.626  14.591  0.1556  0.0064 -0.1448
11182W        W30036   2.776   6.866  13.759  0.1493  0.2560 -0.2226
11183W        W30037  14.477   7.333  13.933  0.1639 -0.2732 -0.2043
11184W        W30038  13.785  11.387   3.384 -0.1623 -0.3472 -0.0099
11185W        W30039   6.108  12.577   5.233  0.0384  0.1149  0.2387
11186W        W30040   0.618  17.409   4.258 -0.3590  0.2155  0.2459
11187W        W30041   5.406   1.174   0.920  0.1475  0.3446  0.1172
11188W        W30042   4.507  14.513   4.885 -0.0027 -0.0124 -0.1948
11189W        W30043   6.742  13.804  14.763 -0.1093  0.0665 -0.1553
11190W        W30044   8.383   5.277   2.968  0.0681 -0.0621  0.1378
11191W        W30045  10.017  10.816   4.974  0.1495 -0.0855  0.3072
11192W        W30046   6.106  10.954   1.434 -0.0811 -0.0270 -0.1040
11193W        W30047   1.881   2.955  12.017  0.0883  0.1331 -0.1424
11194W        W30048   0.240   8.946  12.110  0.2064 -0.1602 -0.2545
11195W        W30049   3.227   2.699   2.564 -0.0477 -0.0279 -0.1081
11196W        W30050   1.958   1.182  16.223 -0.1862 -0.2092  0.1752
11197W        W30051   3.347  15.594  15.775  0.0120  0.1791 -0.0932
11198W        W30052   4.074   1.423  11.150 -0.1113  0.3635 -0.2891
11199W        W30053   1.763   5.739  14.167 -0.2747 -0.0088  0.4150
11200W        W30054  10.328   6.414  15.278 -0.2581  0.2207  0.1665
11201W        W30055  11.289   2.291   0.759  0.1738 -0.0358  0.1183
11202W        W30056  10.123   3.843   3.068  0.2117 -0.0264  0.0871
11203W        W30057  12.451  11.441  13.521  0.0500 -0.1084 -0.2330
11204W        W30058   6.532   3.998  17.053 -0.2594 -0.1849 -0.2519
11205W        W30059   6.279   3.507  16.227 -0.3921 -0.0464 -0.0427
11206W        W30060   4.925   8.028   3.069  0.0524  0.3164 -0.2118
11207W        W30061  10.697  17.034  15.652 -0.0568  0.0162  0.4318
11208W        W30062  10.949   7.814   2.297  0.0831  0.3290  0.1796
11209W        W30063  12.800  13.460  14.334 -0.1968  0.1339  0.0819
11210W        W30064  11.034   7.222   1.050  0.0717  0.0126  0.1875
11211W        W30065  16.078   9.053  15.402 -0.2823 -0.3790 -0.1067
11212W        W30066   0.623  10.995   2.103  0.0754  0.1173  0.0786
11213W        W30067   4.954  13.528  12.336 -0.3303 -0.1661 -0.0427
11214W        W30068  12.605   7.822  15.921 -0.2125 -0.0599 -0.1494
11215W        W30069  16.981  16.903   4.288 -0.0645 -0.2904 -0.1474
11216W        W30070   7.216  17.587   0.430 -0.1711  0.0081 -0.0443
11217W        W30071   5.804   7.304   1.777 -0.1260  0.1628 -0.0570
11218W        W30072   3.467   1.386  12.982  0.1121  0.0968  0.1063
11219W        W30073   0.155   8.868  15.902  0.2113 -0.1703  0.0026
11220W        W30074  13.033  12.142   3.324 -0.0396  0.0577  0.1137
11221W        W30075  12.257  15.807   3.511 -0.1438 -0.0628 -0.1736
11222W        W30076   9.822  12.604  14.436 -0.1080 -0.1167  0.2621
11223W        W30077  14.323   0.121   1.032  0.1786 -0.0252  0.1054
11224W        W30078  14.241  10.679   0.083  0.1808 -0.2232  0.2633
11225W        W30079   4.808  15.561   0.275 -0.0006  0.0505 -0.0908
11226W        W30080   1.026   6.042   2.388 -0.0383 -0.1777 -0.0696
11227W        W30081   6.443  11.698   5.732  0.0456 -0.0495 -0.1749
11228W        W30082   5.131   7.103  14.295 -0.1024  0.0441  0.1903
11229W        W30083  13.398  11.562  15.470 -0.0320  0.0454  0.2178
11230W        W30084   0.010  15.175  16.554 -0.0241  0.1833 -0.1972
11231W        W30085  10.985  14.641  13.253 -0.0815 -0.2979  0.0622
11232W        W30086   7.514  11.390  12.360 -0.0391 -0.2515  0.3863
11233W        W30087  14.791   3.776   3.676  0.1991 -0.0036  0.0866
11234W        W30088  12.600   3.808  14.832 -0.1380  0.1127 -0.2037
11235W        W30089   4.382   6.794   3.384 -0.2168 -0.3176  0.1183
11236W        W30090   2.128   0.670   0.438  0.3246 -0.1350 -0.1132
11237W        W30091  10.080   6.994  16.695 -0.0766 -0.0937  0.0586
11238W        W30092  14.824   6.238   2.760 -0.0596  0.0035 -0.0999
11239W        W30093  12.696  14.806   1.253  0.2020 -0.1112  0.1449
11240W        W30094   9.846   7.450  16.661  0.1491 -0.1366  0.0618
11241W        W30095  17.292   3.006  14.117 -0.1291  0.1843  0.0653
11242W        W30096   7.275  15.011   1.695 -0.1109  0.0269 -0.0433
11243W        W30097  11.891   0.123  13.800  0.0228  0.1983  0.0059
11244W        W30098   6.329  10.229  15.009  0.0526  0.1279  0.1752
11245W        W30099   0.093   6.062   3.728  0.4710 -0.0668  0.1169
11246W        W30100  11.644  14.667   4.467 -0.4469 -0.1003 -0.4160
11247W        W30101   1.368  16.143  13.808  0.0930 -0.0900  0.0289
11248W        W30102  15.842   4.182   0.586  0.3984  0.0747 -0.1622
11249W        W30103  15.637   5.406   1.985  0.1161 -0.0915 -0.2485
11250W        W30104  11.826  10.910   3.419  0.0257 -0.2639  0.1005
11251W        W30105  11.383   8.031   1.905 -0.0246 -0.0380 -0.3073
11252W        W30106  16.210   6.010   0.759 -0.1072  0.4701 -0.1797
11253W        W30107  15.142   1.060   4.975 -0.0498  0.0008  0.2774
11254W        W30108   8.833   1.956  12.406 -0.0001 -0.1318  0.2324
11255W        W30109   3.932   5.218  13.854  0.2924  0.1367  0.2723
11256W        W30110   5.151   5.892   5.168  0.1088  0.0770 -0.0269
11257W        W30111  15.123   2.250   1.749  0.2364  0.0068  0.0906
11258W        W30112   2.774   2.647   3.370 -0.0294  0.1608  0.2905
11259W        W30113   1.375  10.130  15.331  0.0297 -0.1193  0.0769
11260W        W30114  14.172  16.214  13.548 -0.1278 -0.3262 -0.3618
11261W        W30115  16.363   8.505  12.907  0.0332 -0.1769 -0.0381
11262W        W30116  11.384  17.501   0.483 -0.1190 -0.1041 -0.0100
11263W        W30117  15.294  16.106   1.012  0.0002 -0.2005  0.0675
11264W        W30118  11.773   0.181  16.897  0.1860 -0.0522 -0.0652
11265W        W30119   2.137  14.805  16.373 -0.2099  0.1268  0.0520
11266W        W30120  13.105   4.700   4.507 -0.1687 -0.0750  0.2618
11267W        W30121   8.807   6.125  16.813 -0.3022  0.1020  0.4239
11268W        W30122   8.505   6.353   4.483  0.0064  0.1441  0.1035
11269W        W30123  16.082  16.059   2.592  0.2175  0.2222  0.1074
11270W        W30124  15.836   9.828  16.457 -0.0159  0.3764 -0.1205
11271W        W30125   8.040   2.741   4.618  0.2807  0.0122 -0.0499
11272W        W30126  12.148  16.592  12.507  0.2176  0.3169  0.2821
11273W        W30127  12.232  11.473   4.336 -0.3797  0.0951  0.0624
11274W        W30128   2.522  13.128   4.482 -0.2106 -0.0488  0.1860
11275W        W30129  17.422  11.405  14.398  0.1834  0.1140 -0.1401
11276W        W30130   9.066  10.144  16.697  0.0576 -0.0818 -0.2609
11277W        W30131   1.699  15.904   2.962 -0.3146  0.0428 -0.1382
11278W        W30132  11.349   8.916  15.005 -0.0853  0.1305  0.2375
11279W        W30133   0.055  13.388   3.491 -0.2019  0.0777 -0.0721
11280W        W30134   1.678  16.890  12.199 -0.0624 -0.2816  0.0835
11281W        W30135   6.679  16.466  15.826 -0.1530  0.0486  0.4179
11282W        W30136   6.798  13.352  13.251 -0.1823  0.0679  0.4638
11283W        W30137  12.358  12.263  13.879  0.1228  0.0925  0.2268
11284W        W30138   9.832  11.125  12.839 -0.2513 -0.2839  0.2239
11285W        W30139   7.748  14.206   3.922 -0.0416 -0.0179  0.0392
11286W        W30140  15.609   2.953   1.054 -0.2102  0.0217 -0.2089
11287W        W30141   2.949   6.815   3.954 -0.0242  0.0902  0.2880
11288W        W30142   7.380  15.188   5.261  0.0104  0.0816 -0.1091
11289W        W30143   3.730  17.123  12.627  0.0862 -0.1368 -0.1504
11290W        W30144  14.771   8.912   0.208 -0.1308 -0.1529  0.1187
11291W        W30145  11.287   6.978   2.119 -0.1270  0.1683 -0.0229
11292W        W30146  17.534   6.060  12.111 -0.0771 -0.2927 -0.2556
11293W        W30147  11.974  11.570   4.783  0.1259  0.3450 -0.1486
11294W        W30148  13.729  17.234  12.626  0.1453 -0.3676  0.2105
11295W        W30149   6.382   8.053   0.554  0.2400 -0.0260 -0.0049
11296W        W30150   9.215  16.398  14.651 -0.0301 -0.0728 -0.1492
11297W        W30151  15.248   4.902  14.305  0.1554 -0.1959  0.0257
11298W        W30152  15.432   6.721  16.225 -0.0107 -0.0810  0.3876
11299W        W30153   5.209  11.000  16.525  0.0627 -0.2892 -0.0244
11300W        W30154  12.159   1.202   1.205  0.0899  0.0447  0.1866
11301W        W30155  10.166   4.305  12.819 -0.1436 -0.1023  0.0188
11302W        W30156   5.866   5.819  11.498 -0.1282 -0.0946 -0.1166
11303W        W30157  15.204   5.010   5.131 -0.1732 -0.0440  0.0102
11304W        W30158   8.811  11.828  12.174 -0.4645 -0.1490 -0.1814
11305W        W30159   4.328   7.934  13.772 -0.0339  0.1593 -0.0766
11306W        W30160  15.845   6.855   5.426 -0.0669  0.1217  0.3958
11307W        W30161   5.502  13.295   0.202 -0.0817 -0.1270 -0.1125
11308W        W30162  12.651  12.627  12.939 -0.0465  0.0103 -0.3439
11309W        W30163   8.118   6.997   5.035 -0.1158  0.0941  0.1208
11310W        W30164  10.849   4.244  15.776 -0.0702  0.2589 -0.2908
11311W        W30165   0.387   1.812  15.455  0.2993  0.1584  0.1099
11312W        W30166   2.387   8.125   4.500  0.0517 -0.2450 -0.4196
11313W        W30167   4.053  12.558  15.707  0.1586  0.3713 -0.1984
11314W        W30168  14.355   4.197   0.003 -0.2260 -0.2342 -0.1678
11315W        W30169   8.262   0.808  14.670  0.2052 -0.0181  0.0144
11316W        W30170  11.253  14.503   1.313 -0.0092  0.0929  0.2119
11317W        W30171   5.461   8.225  16.553  0.1436 -0.1697 -0.1275
11318W        W30172  13.747   4.870   3.622  0.3026 -0.4807  0.0105
11319W        W30173  10.785   4.328  16.808  0.1475  0.0667  0.1836
11320W        W30174   2.143  13.778  12.303 -0.0914  0.0722  0.1868
11321W        W30175   3.632  11.859   4.118 -0.2151  0.2698 -0.2210
11322W        W30176  14.436   2.609   0.721  0.0466 -0.1436 -0.2899
11323W        W30177  10.792  12.483   3.241  0.1108 -0.0071  0.0705
11324W        W30178   3.350  15.094   2.480  0.1906  0.2559 -0.1235
11325W        W30179  12.570  10.382   0.895 -0.1208 -0.0509  0.0065
11326W        W30180  16.935  14.737   4.633  0.2589  0.0351 -0.1721
11327W        W30181  12.332   9.478   2.753  0.0603 -0.0572 -0.1621
11328W        W30182  11.462   5.548   1.050 -0.1835  0.1296  0.0432
11329W        W30183  10.703  11.664  14.941  0.1283 -0.0445 -0.0571
11330W        W30184   9.567  14.004  14.803  0.1458  0.2132 -0.2275
11331W        W30185   6.972  17.461  14.473  0.0064 -0.0618 -0.1522
11332W        W30186   9.474   8.749  16.488  0.2209  0.1125  0.0249
11333W        W30187   2.778   0.169   0.414  0.1582 -0.2623  0.2217
11334W        W30188  10.400   2.328   0.918 -0.2293  0.0682 -0.0647
11335W        W30189  16.097   5.810   3.405 -0.1696 -0.0188 -0.4891
11336W        W30190   5.438   7.953   3.562  0.1321 -0.1434  0.1684
11337W        W30191  16.202   3.537  13.280 -0.1098 -0.0633  0.2139
11338W        W30192   1.245  10.604   1.516  0.3426  0.0842  0.0628
11339W        W30193   3.678  14.289  15.215 -0.2694 -0.2673  0.2187
11340W        W30194  16.421  15.197   2.527  0.0753  0.1217  0.0455
11341W        W30195   4.367  15.539   0.965 -0.0996  0.3613 -0.0811
11342W        W30196  13.821   2.779   2.731 -0.5590 -0.0860 -0.1221
11343W        W30197   6.189  13.350  15.327  0.0270 -0.2121  0.0711
11344W        W30198   2.313  16.555  15.630  0.0309  0.0466  0.2954
11345W        W30199  15.483   8.584   2.424  0.0003 -0.1876  0.0146
11346W        W30200  14.896  14.738   2.273  0.1935  0.0420  0.1645
11347W        W30201   3.616  13.821   5.053 -0.2016 -0.2237  0.0992
11348W        W30202   6.440  16.840  11.260  0.1569 -0.0185  0.1169
11349W        W30203   9.920  11.652   2.966  0.1772 -0.0477  0.2224
11350W        W30204  10.941   5.179  14.966 -0.1613  0.1650  0.0254
11351W        W30205  13.199  11.725   5.232  0.0665 -0.0746  0.0554
11352W        W30206  12.583  11.689   2.577  0.2938  0.0428  0.5296
11353W        W30207   6.676   9.294  12.053 -0.1485  0.3292 -0.1795
11354W        W30208  10.230   1.029   5.261 -0.2417  0.0891 -0.3885
11355W        W30209   6.851  11.370   0.354  0.2329  0.0920  0.2090
11356W        W30210  11.389   5.426   0.569 -0.1025 -0.0771  0.0228
11357W        W30211   6.929  15.595  13.672  0.0338  0.0260 -0.0196
11358W        W30212   6.670   0.227  16.445 -0.0476 -0.1135  0.1209
11359W        W30213  13.452   8.058   1.376 -0.0781  0.1899 -0.0333
11360W        W30214  14.173  10.826  13.661 -0.0185 -0.4559 -0.4266
11361W        W30215  12.531  15.974  14.442  0.1371 -0.1337  0.2327
11362W        W30216   0.117  12.163   6.179  0.0785 -0.1742  0.1891
11363W        W30217   0.348   1.055   0.458  0.0082  0.3497 -0.2144
11364W        W30218   7.380   5.191  15.856 -0.3369 -0.0432 -0.1569
11365W        W30219   0.930   5.551  16.717 -0.0276  0.1143  0.2501
11366W        W30220   3.918   4.886   0.272 -0.1747 -0.1244 -0.0784
11367W        W30221  14.946  16.462   4.123 -0.1347 -0.0600  0.0742
11368W        W30222  15.206   3.772   3.081  0.0136 -0.0005  0.0092
11369W        W30223  14.477  13.492   0.944 -0.0566 -0.0554  0.1282
11370W        W30224   1.556   0.356  13.139 -0.1667 -0.0712  0.0852
11371W        W30225   3.805  14.627   4.393 -0.2719 -0.2092  0.0881
11372W        W30226   7.383  15.910   4.567  0.1614  0.0964 -0.2549
11373W        W30227  13.178   4.390  12.144 -0.1539 -0.0077  0.1743
11374W        W30228   3.399   8.228   4.420 -0.0648 -0.5450 -0.2513
11375W        W30229   3.468   2.940   0.242 -0.2613  0.3805 -0.0874
11376W        W30230  17.372  13.063  14.080 -0.0319 -0.0285 -0.0610
11377W        W30231  16.676  16.794  12.739 -0.1882  0.0050 -0.0422
11378W        W30232   5.300  14.769   1.472 -0.1846  0.0431 -0.2235
11379W        W30233  15.772  14.435  13.481  0.2533  0.0630 -0.0104
11380W        W30234  12.171   7.474  17.216  0.2008 -0.1011 -0.0439
11381W        W30235   5.344  15.977   3.426  0.2780 -0.1522 -0.1850
11382W        W30236   2.107  13.678  14.952 -0.3681  0.0974 -0.0303
11383W        W30237  17.107  12.587   4.955 -0.1257 -0.2607  0.1169
11384W        W30238   2.231  13.077   2.670 -0.0262  0.0157  0.0181
11385W        W30239  11.076  16.982  13.728  0.2861 -0.0380 -0.0582
11386W        W30240  14.590   0.172   2.888 -0.0933  0.0347 -0.1838
11387W        W30241  16.885  15.693   1.978 -0.2161 -0.0560 -0.1387
11388W        W30242  13.414  16.315  12.867 -0.1657 -0.0841  0.1440
11389W        W30243  10.079   9.836   5.324  0.0459 -0.2702  0.0120
11390W        W30244  15.827   3.876  12.074 -0.0142 -0.1122 -0.1043
11391W        W30245  15.656  14.269  15.790  0.1490  0.0293  0.0395
11392W        W30246   8.223  14.914   3.253 -0.4648  0.4235  0.2580
11393W        W30247   1.897  16.707   5.218  0.1264 -0.0175  0.0050
11394W        W30248   3.127  10.014  13.227  0.3272  0.3266 -0.1862
11395W        W30249   3.579  10.372   0.086  0.0035 -0.0590 -0.0166
11396W        W30250   5.594  15.195   2.371  0.1702  0.3216  0.1635
11397W        W30251  11.344  10.213  12.529 -0.0815  0.1365 -0.0763
11398W        W30252   2.212   6.598   5.105 -0.1349  0.0790 -0.0910
11399W        W30253   8.507  12.343   3.622  0.0706 -0.5382  0.0885
11400W        W30254   2.278  13.589  15.432  0.0874 -0.0062 -0.1316
11401W        W30255  11.610   1.054  13.511  0.0121  0.0280  0.0972
11402W        W30256  11.994  15.060   4.463  0.1306 -0.1876 -0.2152
11403W        W30257  16.456  16.376   2.485  0.0463  0.0085 -0.1763
11404W        W30258   5.558   5.472  17.175 -0.3014 -0.0132  0.2196
11405W        W30259  13.252   5.112   3.828  0.2153 -0.0519  0.1400
11406W        W30260  15.391   4.224   2.244 -0.1649  0.1927  0.1612
11407W        W30261   6.349  10.019  14.508 -0.0728  0.2944  0.1017
11408W        W30262  12.249   9.809  16.418  0.0185  0.2436 -0.0367
11409W        W30263  11.863  14.284   1.668  0.1861  0.2103 -0.3044
11410W        W30264   2.289   5.081  13.745  0.0281 -0.1230 -0.0875
11411W        W30265   3.666   2.613  17.104 -0.1431  0.1279  0.0407
11412W        W30266   9.959   9.806  13.049 -0.1956  0.2375 -0.0194
11413W        W30267  11.487   9.253  16.262 -0.1068  0.1761  0.0306
11414W        W30268   1.378   3.795   3.460 -0.1609 -0.1195  0.1625
11415W        W30269   6.596   7.808   1.797 -0.0151  0.0982 -0.1859
11416W        W30270   6.597   5.783  15.691 -0.0325 -0.3359  0.1459
11417W        W30271   4.909   3.763  16.294 -0.0115  0.0865 -0.0213
11418W        W30272   6.103  12.014   3.186 -0.1255 -0.1967 -0.2038
11419W        W30273  13.808  10.093   5.366  0.0646  0.3006 -0.0072
11420W        W30274   7.623  10.929   1.876 -0.0733  0.2814  0.0814
11421W        W30275  16.946   2.312  16.984  0.0838  0.1128 -0.1958
11422W        W30276   5.172   2.683   2.936  0.0957 -0.0085 -0.0313
11423W        W30277   1.422   1.442  16.221  0.4324  0.1108  0.2341
11424W        W30278  10.839   9.220  16.279 -0.1066  0.0916 -0.3867
11425W        W30279   3.478  17.200  13.180 -0.0813  0.1594  0.0569
11426W        W30280   0.296  13.508  12.708 -0.1658 -0.1719  0.0350
11427W        W30281  17.586   6.244  16.512 -0.1505  0.2068  0.5315
11428W        W30282  16.095   1.044  12.988 -0.0788 -0.3116  0.1253
11429W        W30283   2.264   8.094   3.715  0.0777 -0.1209 -0.1462
11430W        W30284   1.595  11.586   4.116  0.0357 -0.3371  0.0124
11431W        W30285   1.556   3.146   2.703  0.0267 -0.0169  0.0429
11432W        W30286  12.761  15.643  14.165 -0.0058  0.2266  0.2034
11433W        W30287   7.088   6.647  13.267 -0.1067 -0.2147  0.0629
11434W        W30288  10.111   3.371  13.295 -0.0115 -0.1486  0.2374
11435W        W30289   7.184  13.259  13.657 -0.0218  0.2258  0.1221
11436W        W30290  15.274   9.568  14.822 -0.2828 -0.0800  0.2238
11437W        W30291   5.630   4.287   2.046  0.2541  0.0004 -0.0921
11438W        W30292  16.267  11.927   2.948 -0.2796  0.1915 -0.2734
11439W        W30293   6.508  16.689  15.283 -0.0478  0.0240 -0.1389
11440W        W30294   5.940   9.547  15.594 -0.2712 -0.0938 -0.1706
11441W        W30295  10.324  12.781   1.331  0.0475  0.1437 -0.1075
11442W        W30296   5.569   4.132  17.064  0.0063  0.4504 -0.3513
11443W        W30297   9.333  12.903   3.295 -0.0113 -0.3101 -0.0665
11444W        W30298  16.171  17.119  17.211 -0.0453 -0.1205 -0.0371
11445W        W30299   5.640   7.410  14.263 -0.2074 -0.0982  0.2356
11446W        W30300   2.786   2.095  12.575 -0.0568 -0.0280 -0.3263
11447W        W30301   5.754  12.584   2.329 -0.0352 -0.1049  0.2356
11448W        W30302  13.949   0.083   3.037 -0.4708 -0.1628  0.0463
11449W        W30303  16.734   1.933  12.801 -0.1482  0.1259  0.1652
11450W        W30304  13.220  15.384  14.169 -0.1748  0.5143  0.0484
11451W        W30305  15.405  11.124  17.131 -0.2327  0.0238 -0.2247
11452W        W30306  12.517   3.735   5.359  0.0431 -0.1324  0.0923
11453W        W30307  13.037   8.860   5.283 -0.3071 -0.1078 -0.4989
11454W        W30308  10.599   4.250  14.591  0.1834 -0.2926  0.2476
11455W        W30309   6.120   8.143   1.943 -0.2532  0.1433  0.0436
11456W        W30310   2.640   3.349   4.720 -0.0346 -0.2281  0.0933
11457W        W30311  11.984  13.773  12.361  0.0660  0.0067  0.1121
11458W        W30312   8.047  11.043  16.104  0.1106 -0.1464  0.1839
11459W        W30313   9.230   9.786   2.648 -0.1878 -0.0698  0.1197
11460W        W30314   7.606  14.620   4.196  0.1366  0.0885 -0.0387
11461W        W30315   1.382  12.353   0.467 -0.0150 -0.2539  0.0699
11462W        W30316  14.085   8.669   0.033 -0.0654  0.2041 -0.0311
11463W        W30317   7.662  11.135   0.321  0.0024  0.0038 -0.0454
11464W        W30318   3.640   6.188  14.989  0.2098  0.0515 -0.1653
11465W        W30319   8.770   9.718   2.885  0.0394 -0.0892  0.0566
11466W        W30320  13.778   0.166   2.117  0.3417 -0.0170  0.2538
11467W        W30321   3.209  14.460  13.428  0.1063  0.0722 -0.1341
11468W        W30322   2.907   8.453  15.478 -0.2689 -0.2402  0.0003
11469W        W30323   8.667   2.232  12.036  0.0636 -0.1591 -0.1041
11470W        W30324  13.469   8.142  15.767  0.1499  0.0631 -0.0681
11471W        W30325   2.561   9.824  13.318  0.1947 -0.1142 -0.0976
11472W        W30326   2.286  12.565   0.214 -0.2818 -0.0984 -0.0515
11473W        W30327   6.970   7.230   1.083  0.2181 -0.1315  0.2668
11474W        W30328  16.206  11.434  15.421  0.0732  0.1373 -0.1840
11475W        W30329  15.248   2.059   4.094  0.2876  0.1067  0.6855
11476W        W30330  16.188   3.826   2.074 -0.1506 -0.1247  0.1673
11477W        W30331  16.574   1.854   1.815  0.0899  0.3380 -0.0598
11478W        W30332  12.228   2.164  16.643 -0.2416  0.0124 -0.0341
11479W        W30333  16.239   4.502   0.281 -0.1000  0.1881  0.0753
11480W        W30334  10.063   8.576  14.898  0.3692 -0.0778  0.1560
11481W        W30335   4.271  12.497   2.587 -0.0755 -0.0276  0.0063
11482W        W30336   5.978   3.180   3.919  0.1181 -0.0686  0.1018
11483W        W30337  16.413   0.983   3.610  0.1215  0.0302  0.1937
11484W        W30338  12.064  17.127   5.097  0.0673 -0.1952  0.3225
11485W        W30339   2.951  17.265  16.485 -0.0803 -0.2931 -0.1668
11486W        W30340  15.459  13.256  13.155  0.1197 -0.0199 -0.0525
11487W        W30341  15.221  13.808   2.939  0.0862 -0.0038  0.0261
11488W        W30342   0.341   4.076  15.281 -0.1038 -0.0091  0.0150
11489W        W30343   0.221   1.970   6.053  0.1669  0.0057  0.0263
11490W        W30344  15.417  17.437  14.308  0.1046  0.0250 -0.0606
11491W        W30345   3.737   6.388  12.452  0.1185  0.3847  0.2372
11492W        W30346  13.496   1.851  16.718 -0.0534  0.1569  0.0656
11493W        W30347  11.288   2.982  16.122  0.0451 -0.1456  0.0788
11494W        W30348   8.834   6.642  15.979  0.1724  0.1091  0.0742
11495W        W30349  12.708  16.861  17.109  0.0054  0.6155 -0.2329
11496W        W30350   8.830   3.216   1.027  0.1195 -0.2024 -0.0902
11497W        W30351  16.595   3.718  16.168  0.2848 -0.1604 -0.1201
11498W        W30352   5.328  10.196  13.431  0.0773 -0.2876  0.1270
11499W        W30353   9.549   9.536  17.131  0.1967 -0.1155  0.0624
11500W        W30354   5.527  11.288   3.996 -0.2379 -0.1212  0.2971
11501W        W30355  14.061  16.810   0.206  0.0877 -0.0055  0.0201
11502W        W30356  16.231   2.850   4.543  0.0092 -0.1504  0.0952
11503W        W30357   9.159  15.081  14.494  0.0605 -0.0798  0.1801
11504W        W30358   7.407  10.612  15.813 -0.4064  0.1028 -0.2335
11505W        W30359   3.202  17.253   4.567  0.3577 -0.0377  0.3783
11506W        W30360   7.976  16.469   4.866 -0.1303  0.0511  0.1491
11507W        W30361   9.572   4.122   1.668 -0.0176  0.0634  0.1255
11508W        W30362   9.382  17.407   3.270 -0.1038  0.0432 -0.1066
11509W        W30363  14.813   7.879  15.872 -0.0619 -0.1586  0.0962
11510W        W30364  17.187   1.743   1.254 -0.2827 -0.2778 -0.2931
11511W        W30365   4.752  16.656   2.305 -0.0183 -0.1814  0.0132
11512W        W30366   1.073   1.018  12.733 -0.0731  0.3447  0.2744
11513W        W30367   1.752  14.945  12.903  0.1072  0.1576 -0.3652
11514W        W30368  12.534   4.373  11.671  0.2155  0.0411  0.0138
11515W        W30369   0.872   2.640   0.379  0.1206 -0.1434  0.0198
11516W        W30370   1.730  15.297  14.938 -0.0704 -0.1638 -0.2340
11517W        W30371  16.757  14.054   3.561 -0.0644 -0.0788  0.2332
11518W        W30372   9.517  13.613  13.122  0.2250 -0.0724  0.0390
11519W        W30373  14.568   9.496   0.471  0.1779 -0.0597  0.1599
11520W        W30374   5.878   7.269   2.284  0.0918  0.1772 -0.1145
11521W        W30375   0.109   6.079  13.207 -0.1385 -0.3146  0.0400
11522W        W30376  17.238  16.672  15.799 -0.2871 -0.0706  0.0115
11523W        W30377   7.034  11.513   4.556  0.0401 -0.1215  0.0858
11524W        W30378  10.171   7.510   1.019  0.1276  0.0294 -0.0904
11525W        W30379  13.244   2.824   2.894 -0.1190  0.1020  0.2394
11526W        W30380   0.871  15.810  12.685 -0.1971 -0.0318 -0.2203
11527W        W30381   3.817  11.848  13.234  0.0147  0.0027  0.0697
11528W        W30382   8.001  11.380  13.038  0.0554 -0.1064  0.0127
11529W        W30383  16.844  11.623   3.179 -0.3036  0.1822 -0.0085
11530W        W30384  12.890   7.772  13.821 -0.0265 -0.2094 -0.3199
11531W        W30385  15.633   7.251  15.634  0.0134 -0.0788  0.0942
11532W        W30386   7.359   4.853  12.249  0.1230  0.1566  0.2938
11533W        W30387   9.025  16.135   2.087 -0.0447  0.3058 -0.1080
11534W        W30388   9.014   0.399  15.750 -0.4251  0.0426  0.0749
11535W        W30389   9.111  14.804   5.128  0.1152  0.1866 -0.2229
11536W        W30390   5.709  17.397   4.950  0.0587  0.0287  0.4854
11537W        W30391  16.802   5.719  16.255 -0.0065  0.2712 -0.4623
11538W        W30392  12.520  14.075  15.557  0.1702  0.1597  0.1727
11539W        W30393   4.718   8.172   1.318  0.2149 -0.0121 -0.1834
11540W        W30394  12.110   8.046   4.687  0.0790  0.1451 -0.0931
11541W        W30395   2.443   7.028  16.675  0.0261 -0.2148  0.1722
11542W        W30396   3.205   6.067  12.324  0.1923 -0.0819  0.0292
11543W        W30397  13.049   1.616  16.310  0.2084 -0.2940  0.0733
11544W        W30398   9.394   8.768  16.002 -0.1733 -0.2955  0.1969
11545W        W30399   1.137   0.847   4.996  0.0447  0.1787 -0.0659
11546W        W30400  16.234  13.917   1.539 -0.1965  0.2665 -0.1513
11547W        W30401  13.731   5.978   3.978 -0.0269  0.0192  0.0939
11548W        W30402  12.257   1.466  16.016 -0.1068 -0.3034  0.0688
11549W        W30403   8.961   0.187  15.182 -0.1072  0.0450  0.2388
11550W        W30404  16.273   7.404  14.692  0.2942 -0.0970 -0.5829
11551W        W30405  14.967   4.527  14.145  0.1927 -0.0734 -0.0998
11552W        W30406  13.491   8.782   0.567  0.2011  0.1492  0.1490
11553W        W30407   0.065  11.722   4.324 -0.1280  0.2657 -0.3670
11554W        W30408  16.084  12.135  16.385  0.1537 -0.1601 -0.1368
11555W        W30409  10.334   7.856  16.142 -0.1454  0.2118 -0.1866
11556W        W30410  17.370  14.868   0.366 -0.2107  0.2681  0.0564
11557W        W30411   1.371   4.714  13.101  0.1858 -0.0082 -0.0817
11558W        W30412   2.466  14.758   1.482  0.1184 -0.2655  0.1789
11559W        W30413   8.692   2.428  15.711 -0.0075  0.2300  0.3031
11560W        W30414  16.431   2.724  15.412 -0.0966  0.1664 -0.1682
11561W        W30415  11.348   0.054  12.961 -0.1083  0.0594 -0.1125
11562W        W30416   8.145   0.703  15.500  0.2120  0.2036  0.3942
11563W        W30417   9.764  13.905   0.718 -0.0546 -0.1087 -0.1400
11564W        W30418   0.564   1.547   1.964  0.2511  0.1118  0.0871
11565W        W30419  10.409   6.913  13.222  0.2223 -0.1218  0.1831
11566W        W30420  14.577   7.450   4.520 -0.2020 -0.0563  0.0646
11567W        W30421  14.303  10.317   5.270  0.4355  0.0510  0.0155
11568W        W30422  12.675  10.303   3.216 -0.1283  0.0046 -0.0232
11569W        W30423  12.488   4.907  16.986  0.0475  0.1298  0.1260
11570W        W30424   1.409   7.586   0.487  0.2604 -0.1788  0.0912
11571W        W30425   7.788   4.541  12.289 -0.0650  0.0064  0.1840
11572W        W30426  16.195   3.352  14.438  0.0365 -0.2176 -0.0324
11573W        W30427   6.539  14.785   4.366  0.1302 -0.1249 -0.2020
11574W        W30428  13.722  10.720  12.544 -0.6607 -0.0973 -0.2071
11575W        W30429   1.857   4.890  13.901 -0.1097 -0.0815 -0.1288
11576W        W30430  17.268  16.280  12.129 -0.1252 -0.0598  0.2746
11577W        W30431   0.413  10.873  17.242  0.0382 -0.0517 -0.0663
11578W        W30432  10.415   0.120   2.210  0.0613 -0.2233 -0.1148
11579W        W30433   8.395  15.016  13.913 -0.1052 -0.4627  0.0892
11580W        W30434   6.848   8.639  13.428  0.1981  0.3065  0.4135
11581W        W30435   8.832   1.391   3.478  0.4592  0.2641  0.2014
11582W        W30436   8.268   7.277  14.270 -0.0009 -0.0279  0.0700
11583W        W30437  11.939  17.497   4.789 -0.0836 -0.0850  0.3771
11584W        W30438  10.042  16.923  14.579  0.1695 -0.0175 -0.2185
11585W        W30439   5.391   8.668  16.932  0.0200 -0.1243 -0.1192
11586W        W30440   1.279  10.669   5.592  0.0149 -0.1429  0.4841
11587W        W30441   7.277   0.808  13.347 -0.1041 -0.2801 -0.1931
11588W        W30442   1.113   6.149  12.111  0.0593  0.0125 -0.1899
11589W        W30443   6.402   8.815  16.835  0.1738  0.1595 -0.0874
11590W        W30444  12.612  12.906   2.261  0.0572 -0.0321 -0.1783
11591W        W30445  12.048  13.727  16.531  0.0494  0.1376 -0.4479
11592W        W30446   5.363  11.761   3.109 -0.2392  0.3354  0.0385
11593W        W30447  12.205  14.802  16.573 -0.0728 -0.0094 -0.0658
11594W        W30448  11.673  12.553  16.969  0.0652 -0.0437  0.2301
11595W        W30449   0.752   7.643  15.577  0.0478 -0.1383  0.5987
11596W        W30450  13.653  10.468  14.328 -0.1890 -0.3118  0.0266
11597W        W30451   8.144   8.474  13.661 -0.0870 -0.0603 -0.1460
11598W        W30452   8.505   2.668   0.020  0.1522  0.3240 -0.3559
11599W        W30453   1.978  13.632   0.438 -0.1148  0.0555 -0.0356
11600W        W30454   0.513  14.884  16.921 -0.1070 -0.0107 -0.0585
11601W        W30455  12.265   4.148  12.024  0.0256 -0.0040 -0.0601
11602W        W30456   4.243   1.441   1.019 -0.1614  0.3065  0.3699
11603W        W30457  11.475   9.168  14.513  0.3747  0.0398 -0.0287
11604W        W30458   3.228   3.867  12.920 -0.4367  0.0453 -0.2328
11605W        W30459   1.875  12.267   0.517 -0.0851  0.1768 -0.1313
11606W        W30460  13.772   4.060   2.773  0.0656 -0.5104  0.2373
11607W        W30461  16.318  15.897  15.223  0.2374 -0.0994  0.0403
11608W        W30462  14.663  13.942   3.972  0.0854  0.0688 -0.1042
11609W        W30463  15.041  14.152  15.906  0.1240  0.4148  0.0033
11610W        W30464  12.554   9.503  14.543 -0.2612 -0.1766  0.1027
11611W        W30465  10.273   8.924  16.290  0.4013  0.2327 -0.0714
11612W        W30466   1.401   2.082   4.496 -0.0358 -0.2271  0.1302
11613W        W30467   8.588   3.759  12.794 -0.1672  0.1192 -0.1031
11614W        W30468  10.996  15.219  14.066  0.3627 -0.0099  0.0927
11615W        W30469  13.247   2.061   3.541  0.1867  0.2737  0.1328
11616W        W30470  16.156  15.797   1.311 -0.0299 -0.3707 -0.0921
11617W        W30471   6.140  16.510   3.623  0.0850  0.4278 -0.2006
11618W        W30472  15.057   8.142   4.968 -0.0945  0.0411  0.2062
11619W        W30473  14.041  17.577   4.094  0.0322  0.1143 -0.1977
11620W        W30474  13.499  12.695   0.318 -0.0087 -0.0958 -0.0055
11621W        W30475   9.666   8.648   3.440 -0.2761  0.4295 -0.0494
11622W        W30476  14.362   6.756  13.267  0.1613  0.1364 -0.3230
11623W        W30477   9.882   3.122  13.766  0.2511 -0.1205  0.1177
11624W        W30478  10.545  12.138   0.639  0.0232 -0.0258 -0.0642
11625W        W30479   6.056   0.147   1.191  0.1451 -0.1948 -0.1228
11626W        W30480  10.928   6.233   2.157 -0.2592 -0.0277  0.0782
11627W        W30481   7.186  14.095  16.346 -0.1168  0.0654 -0.3423
11628W        W30482  12.504  17.149  15.256  0.2932 -0.1533  0.0833
11629W        W30483  12.610   0.583   4.612  0.1842 -0.1094 -0.1982
11630W        W30484  15.657   3.189  14.145 -0.2833  0.2567  0.2885
11631W        W30485   5.808  10.383   4.374 -0.1310  0.1350  0.1275
11632W        W30486  12.076   7.268   4.163 -0.1775 -0.1355  0.1403
11633W        W30487  11.132   0.679   1.542 -0.2293  0.0157  0.2229
11634W        W30488  10.011   5.723   2.248 -0.1509 -0.0532  0.1344
11635W        W30489   8.955  17.228   3.127  0.1413 -0.4952  0.0326
11636W        W30490   5.702  15.727  12.385  0.1050 -0.1522  0.1595
11637W        W30491  13.436  14.024  16.952  0.3333 -0.0252 -0.1164
11638W        W30492  12.129  12.593  12.318 -0.0612 -0.0618  0.2486
11639W        W30493   2.073  11.380  13.614  0.0924 -0.3883  0.1451
11640W        W30494   8.157  15.898   2.094  0.1878 -0.0842 -0.3835
11641W        W30495   4.545  14.893   4.206  0.0263 -0.1476  0.1124
11642W        W30496  10.506  14.917   1.571  0.1659 -0.4368 -0.0978
11643W        W30497   2.337   3.371   3.410 -0.0256  0.2508 -0.0429
11644W        W30498   8.973   2.230   2.998  0.2801  0.0139  0.0618
11645W        W30499  15.341  11.753  16.850 -0.1371  0.1300  0.1202
11646W        W30500   5.341   7.801   0.108 -0.0971  0.1157 -0.1600
11647W        W30501   1.078   3.343   2.753  0.1046  0.0172  0.0446
11648W        W30502   7.409  13.278   2.317  0.1910  0.2468  0.3691
11649W        W30503  14.036   4.021   5.188  0.0505 -0.0742 -0.0904
11650W        W30504   5.138   3.792   0.858  0.0158 -0.2532 -0.0054
11651W        W30505   4.364   2.750   0.091 -0.1098  0.1922  0.1308
11652W        W30506   2.894   5.582   0.735  0.0933 -0.2132 -0.0844
11653W        W30507  14.572   9.132   4.221  0.1959  0.2307 -0.0926
11654W        W30508  16.906  14.665   4.109 -0.1624 -0.0702  0.1419
11655W        W30509  12.735   1.428  16.847 -0.0159 -0.2059  0.4111
11656W        W30510   8.280  13.504  17.051 -0.1035  0.0480 -0.0287
11657W        W30511   0.935   3.545   1.956 -0.2837 -0.2053  0.0454
11658W        W30512  10.124  15.765  16.053  0.0526  0.0985  0.0994
11659W        W30513   9.789   6.239   3.942  0.0541  0.2990 -0.2176
11660W        W30514   9.124   0.600  13.053 -0.2390 -0.1092  0.0097
11661W        W30515  11.101   3.706   4.674 -0.2155  0.4015  0.1471
11662W        W30516   4.016  11.380   4.142  0.2220  0.2116  0.0211
11663W        W30517   3.234  14.758  12.259 -0.1828 -0.1513  0.0158
11664W        W30518   3.373   5.570   0.072  0.0622  0.0695 -0.1177
11665W        W30519  16.625   3.276   4.707 -0.0559  0.0332 -0.1346
11666W        W30520  14.432   5.738   2.218  0.1472 -0.3326 -0.2410
11667W        W30521   4.576   7.566  13.359  0.0935 -0.1785  0.1625
11668W        W30522   3.491   1.451   4.839  0.0155  0.1284 -0.0869
11669W        W30523  15.063   5.656  16.839  0.4933 -0.1915 -0.0769
11670W        W30524   0.115   5.275  12.632  0.1884 -0.2244 -0.0613
11671W        W30525  10.635  14.566  13.566  0.3207  0.2850  0.2291
11672W        W30526  13.474  10.287   2.406 -0.1303 -0.0885 -0.0626
11673W        W30527   3.810   7.114  13.331  0.2221 -0.1119 -0.1408
11674W        W30528   6.245  15.139   4.729  0.1814 -0.0704  0.2082
11675W        W30529   9.614  15.400  17.135 -0.0733 -0.1533  0.1234
11676W        W30530   1.669   9.480  14.150 -0.4099 -0.1894 -0.2563
11677W        W30531  10.763   5.245  14.361  0.5797 -0.0082  0.3667
11678W        W30532  10.433   0.866  16.283  0.0440 -0.0939 -0.1059
11679W        W30533  15.947   3.323   1.102 -0.0633 -0.0198 -0.1040
11680W        W30534  10.174   2.360   4.207  0.0921  0.2068 -0.0187
11681W        W30535  17.241  14.013   3.700 -0.1711  0.1334  0.1037
11682W        W30536   6.689  14.502  14.100 -0.0671 -0.2391  0.3231
11683W        W30537   4.036  13.787  15.199 -0.1752 -0.0688 -0.1382
11684W        W30538   2.095   1.170   4.402 -0.1355  0.1080 -0.0224
11685W        W30539   2.213   1.003  15.814  0.0131  0.0435  0.1425
11686W        W30540   0.506  10.918   0.471  0.2736 -0.2761  0.1069
11687W        W30541   2.536   9.850  13.854 -0.0395 -0.0924 -0.0032
11688W        W30542   2.354  17.442  13.204 -0.1602 -0.0268 -0.0613
11689W        W30543   8.173  11.585  14.401  0.0264 -0.1289 -0.2329
11690W        W30544   8.694   7.843   1.006 -0.0228  0.0350  0.0311
11691W        W30545   7.940   0.590   2.780 -0.1057  0.3167 -0.1097
11692W        W30546  16.087   9.821  11.120 -0.1008  0.1440  0.0164
11693W        W30547  16.695  15.665   3.870  0.0620 -0.0038 -0.3341
11694W        W30548   7.070   2.123   2.454  0.0031  0.1159  0.3603
11695W        W30549   5.334   3.259   2.921  0.1126  0.1644 -0.0205
11696W        W30550   6.336   3.506   3.034 -0.3443  0.1216 -0.2832
11697W        W30551   9.335  14.178   2.123  0.2857  0.0983 -0.1035
11698W        W30552   7.739  13.958  14.819 -0.0267  0.2446 -0.1490
11699W        W30553  15.853   8.300   2.591  0.1232 -0.0678 -0.0806
11700W        W30554  15.761   9.252  12.791  0.0344  0.0419  0.1451
11701W        W30555   8.370  13.625   0.736 -0.4044 -0.5132 -0.2778
11702W        W30556   6.101   6.651  15.419  0.2975 -0.0915 -0.0066
11703W        W30557  13.296  10.950   1.001  0.2603 -0.0422  0.1732
11704W        W30558  15.620  16.692   3.890 -0.1050 -0.0243  0.2208
11705W        W30559  15.812   1.714  15.233 -0.1811  0.1804  0.0106
11706W        W30560   5.567   5.250  13.569 -0.0837  0.0737 -0.0359
11707W        W30561   9.493   6.427   2.056  0.0124  0.1579 -0.0618
11708W        W30562   8.756   6.877  12.865  0.0901  0.3453 -0.0632
11709W        W30563  13.869   8.333  15.005  0.1084 -0.0086  0.3006
11710W        W30564   5.931   0.024   0.702 -0.1650  0.2996 -0.2693
11711W        W30565  14.653   8.027   5.382 -0.1608 -0.0855  0.2018
11712W        W30566   1.271   1.581   2.167  0.1099  0.0998 -0.1298
11713W        W30567  11.686   0.690   4.607  0.0195 -0.2427 -0.2347
11714W        W30568   6.971   9.849   3.524  0.4116 -0.0014 -0.1454
11715W        W30569  16.889  11.734   0.712 -0.0123  0.1990 -0.2630
11716W        W30570   8.070   0.938   0.516 -0.1784 -0.0679  0.0051
11717W        W30571  10.907  13.938   1.772 -0.1462  0.1412 -0.0079
11718W        W30572   6.056  16.554   4.090 -0.0313  0.2397 -0.0111
11719W        W30573  13.285   3.059   4.938 -0.3716 -0.0829  0.0279
11720W        W30574   8.292  11.233  16.629 -0.3467 -0.2696  0.1182
11721W        W30575   2.086  17.176  12.924 -0.1489  0.0806  0.1286
11722W        W30576   4.375  12.360  16.202  0.2641 -0.3807 -0.1279
11723W        W30577   6.660  14.990   0.756 -0.0952 -0.1138  0.1826
11724W        W30578   2.534   6.161   0.837  0.1461 -0.0503 -0.0628
11725W        W30579   8.894  16.480  16.175  0.0248 -0.0553  0.2098
11726W        W30580   6.693   3.327   4.405  0.2037  0.1491 -0.3320
11727W        W30581  13.081   4.579  16.415 -0.0426 -0.0947 -0.0028
11728W        W30582  10.836  16.230  15.578  0.0864 -0.0648 -0.0534
11729W        W30583   3.491   9.062  14.068 -0.2659  0.2123  0.3208
11730W        W30584  12.255  14.125  14.023 -0.0197 -0.0775 -0.0501
11731W        W30585  13.070  10.005   4.456  0.2665 -0.0726 -0.1486
11732W        W30586  14.803   9.691  15.059 -0.0965  0.0727  0.0836
11733W        W30587   1.479   2.951   2.212  0.0410 -0.1188  0.2496
11734W        W30588   8.959  17.339   0.612 -0.2636 -0.1898 -0.0268
11735W        W30589  10.244   0.109  13.108 -0.1131 -0.4607 -0.0661
11736W        W30590  10.616   0.106   5.368 -0.0195  0.0216  0.1575
11737W        W30591   2.038  10.261   5.215 -0.2345  0.2942  0.3240
11738W        W30592  11.489  16.520   0.316 -0.1153 -0.1716  0.1446
11739W        W30593   6.587   1.024  15.275 -0.0494  0.1971 -0.0090
11740W        W30594   4.962  16.353   0.085  0.0193 -0.0187 -0.2346
11741W        W30595  15.604   1.546  12.475  0.0237 -0.1482  0.3236
11742W        W30596  12.231  15.729   2.313 -0.0543 -0.1417 -0.0347
11743W        W30597   8.282   4.541   3.341  0.0253 -0.0421 -0.2044
11744W        W30598   7.513   9.254   5.096 -0.0408  0.2153  0.3431
11745W        W30599   2.548   4.121   3.669 -0.0244 -0.2447 -0.1379
11746W        W30600   0.077  10.789   3.939  0.0897  0.0103  0.2312
11747W        W30601   6.296   3.745  15.807 -0.2251  0.1155 -0.2223
11748W        W30602  15.323   3.693   1.566  0.3559  0.4548  0.2870
11749W        W30603  15.044  11.356   3.516  0.0664  0.0827 -0.2916
11750W        W30604   7.188   7.142  13.423 -0.2284  0.2086 -0.1182
11751W        W30605   4.559   8.671  15.081 -0.1073 -0.0262 -0.1119
11752W        W30606   3.372   8.426  12.372  0.2164  0.1169  0.1912
11753W        W30607   7.413   8.473   2.861 -0.2680  0.0114  0.3049
11754W        W30608  12.096   8.304   1.069 -0.0645 -0.1984 -0.1809
11755W        W30609   0.539   6.156   1.826 -0.3392  0.1271 -0.1278
11756W        W30610   0.442   8.649  15.115  0.2548  0.2649 -0.4035
11757W        W30611  17.325  15.736  15.019  0.1811  0.1450  0.0924
11758W        W30612  14.355   0.431   0.644  0.2539 -0.3248  0.0913
11759W        W30613   6.130  13.478  12.614 -0.1327  0.0784 -0.0174
11760W        W30614   5.102   3.801   1.446 -0.1752  0.0244 -0.0831
11761W        W30615  13.838  16.821  14.298 -0.3424  0.2672  0.1096
11762W        W30616   2.454   2.212  13.127  0.0262 -0.1390 -0.1732
11763W        W30617  14.342   3.171  14.571  0.2612  0.0836  0.1665
11764W        W30618  12.145   9.071  12.990  0.1553 -0.0179 -0.2387
11765W        W30619  15.446  13.389   0.438  0.1257  0.1961  0.2422
11766W        W30620  16.244   8.685   1.764  0.0042  0.0129  0.1943
11767W        W30621  10.921   6.635   5.161  0.3978  0.1889  0.0269
11768W        W30622  15.630   1.679   3.024 -0.0382 -0.1440 -0.1354
11769W        W30623   2.753  13.124  14.232  0.1314  0.0381 -0.3651
11770W        W30624   7.386  10.101   1.637 -0.2893 -0.2280  0.0985
11771W        W30625  11.243  13.798  14.294  0.0806 -0.2468 -0.2011
11772W        W30626  12.513   4.845   1.139  0.3276  0.1917 -0.4187
11773W        W30627  12.910   9.859   1.003 -0.0020 -0.3934 -0.1059
11774W        W30628  16.700   7.559  14.920  0.0814  0.1800  0.0189
11775W        W30629   4.377   6.213   2.344  0.1828  0.0767  0.0927
11776W        W30630  14.286   7.331   0.300  0.0762  0.1178  0.1351
11777W        W30631   6.293   9.806  15.850 -0.0716  0.1634 -0.0775
11778W        W30632  13.018   2.439   0.315  0.1143 -0.1271  0.0583
11779W        W30633  11.354   7.176  13.395 -0.0646 -0.1197  0.0317
11780W        W30634   5.673   9.650   0.891 -0.1169 -0.0421 -0.0812
11781W        W30635   1.333   2.088   4.011  0.0591  0.3427  0.0473
11782W        W30636   2.781  12.005  17.106  0.1253  0.0623 -0.0131
11783W        W30637   9.638   0.419  13.802 -0.0675  0.1033  0.0782
11784W        W30638   1.646  11.585  15.837 -0.0159 -0.1355 -0.1074
11785W        W30639   5.479  12.938  13.125 -0.0135  0.1588 -0.0673
11786W        W30640   7.278   0.258  13.283  0.1517 -0.1142  0.4873
11787W        W30641   0.995   0.884  14.470 -0.2500  0.1806 -0.0052
11788W        W30642  17.209   5.532   3.694 -0.1170  0.2132 -0.0910
11789W        W30643   3.230   3.008  16.074 -0.0359 -0.0865 -0.0651
11790W        W30644  12.555  14.965  16.966 -0.1347 -0.1410  0.1644
11791W        W30645   2.153   3.763   4.828  0.2573  0.1455  0.3371
11792W        W30646   0.189   1.117   4.941 -0.1028 -0.0253  0.1312
11793W        W30647   8.644   8.450  16.559 -0.0055  0.0472 -0.2016
11794W        W30648  12.170   1.602  13.730  0.1849 -0.2880  0.0876
11795W        W30649   8.986  12.128  15.235  0.0110 -0.2636  0.1768
11796W        W30650   7.675  10.533  13.044  0.0182  0.1066 -0.0175
11797W        W30651   4.545  10.589  13.289 -0.5182 -0.2058 -0.2670
11798W        W30652   6.893  13.843   5.257 -0.1179 -0.3270  0.1660
11799W        W30653  10.153  14.285   2.789 -0.0490  0.0144 -0.0545
11800W        W30654   9.644   8.047   1.905 -0.5532  0.2039  0.3104
11801W        W30655   8.651   1.661  17.178 -0.3162  0.5009  0.1299
11802W        W30656   3.345   8.647   2.490 -0.0002 -0.3422 -0.0318
11803W        W30657  11.109   8.318   4.293 -0.0779 -0.0684  0.2167
11804W        W30658   9.977  13.521  12.087 -0.1640  0.2224 -0.0651
11805W        W30659   8.039  14.009  12.729 -0.2333 -0.1858  0.2025
11806W        W30660   0.934   5.541   4.357 -0.0856 -0.0590 -0.0120
11807W        W30661   0.973   5.652  13.197  0.1696 -0.0957 -0.3003
11808W        W30662   8.943  11.357   5.277  0.0438 -0.0628  0.0674
11809W        W30663   8.385  14.249   0.455 -0.2318 -0.1334  0.3679
11810W        W30664  17.330   7.722   0.686  0.0625 -0.0621  0.1024
11811W        W30665  14.254   3.061   0.520 -0.3667  0.1782  0.0611
11812W        W30666  13.929   1.571  15.333  0.0202  0.1618 -0.1062
11813W        W30667   8.880  11.416  14.699 -0.2607  0.3491  0.1652
11814W        W30668  15.771  11.618   6.140 -0.0179  0.0243 -0.1123
11815W        W30669  14.383  10.213  15.947  0.3950  0.1536 -0.3411
11816W        W30670   3.162  14.751  15.706 -0.0013  0.0210  0.0835
11817W        W30671  12.760   4.239  14.776 -0.0042  0.1885  0.0089
11818W        W30672   4.657  12.887   4.866 -0.1199 -0.1317 -0.1614
11819W        W30673  13.071   7.706  12.414  0.1700  0.1429  0.2264
11820W        W30674  16.514  12.284   3.802  0.0421 -0.1622  0.0084
11821W        W30675  10.185   1.778   4.332  0.2896 -0.0104  0.1389
11822W        W30676   2.498   3.029   3.039 -0.3411  0.2074 -0.0121
11823W        W30677  15.667   6.284   3.933 -0.0678  0.1497 -0.3375
11824W        W30678   3.808   1.345   4.439 -0.1868  0.0910 -0.0675
11825W        W30679   4.174   9.138  12.618  0.1422 -0.0918  0.0582
11826W        W30680  16.757   3.907  12.170 -0.3974 -0.5209 -0.0506
11827W        W30681   3.456  10.753  16.757 -0.2808 -0.2567  0.1785
11828W        W30682   0.412   1.414  14.643  0.1139  0.3685  0.0630
11829W        W30683   8.168  14.212   3.662  0.1239  0.1062  0.0881
11830W        W30684   9.071  12.494  13.687  0.0477 -0.1135 -0.0370
11831W        W30685   2.169   9.058   1.080 -0.1989 -0.3619  0.2009
11832W        W30686  10.860   2.648  15.567  0.2719 -0.3253 -0.1931
11833W        W30687  17.198   6.661   3.345 -0.3883  0.1089  0.0204
11834W        W30688  11.905   9.912  13.943  0.1570  0.0165 -0.0920
11835W        W30689   1.453   8.101   1.438  0.4217 -0.1342 -0.2906
11836W        W30690   1.629  10.270  13.680  0.1823 -0.0948 -0.0075
11837W        W30691  10.652   4.534   4.632  0.1040 -0.1770  0.0511
11838W        W30692  15.029  14.861  16.016 -0.0449 -0.2402  0.0264
11839W        W30693   4.188  14.663   2.902 -0.5073 -0.1573 -0.0437
11840W        W30694  16.959   7.487  14.030  0.3382  0.0901  0.2569
11841W        W30695   1.505   4.210  17.012  0.2049 -0.0783 -0.2458
11842W        W30696   4.365   2.081   3.171 -0.0234 -0.2236 -0.1086
11843W        W30697   5.605   8.141   2.290  0.1086 -0.1228 -0.1284
11844W        W30698  14.586  15.006   0.309  0.0915  0.2339 -0.2480
11845W        W30699   6.813  17.137   4.084  0.0605 -0.2891  0.0388
11846W        W30700  17.081   7.836   1.119  0.1150  0.4637  0.1120
11847W        W30701   4.344   7.963   4.726 -0.1225 -0.0376  0.2465
11848W        W30702   8.138  10.694   3.641 -0.3040  0.3814 -0.1006
11849W        W30703  11.559  10.907   3.843 -0.1420 -0.3278  0.1581
11850W        W30704   1.813  10.592  13.313 -0.3076 -0.1633  0.0231
11851W        W30705   3.972   5.881   1.637  0.1182  0.3378  0.0902
11852W        W30706  14.211   9.616  15.260  0.2177  0.2136  0.0146
11853W        W30707   1.861   7.090  14.091 -0.1125 -0.2400 -0.2927
11854W        W30708  12.603   1.377  13.907  0.1311 -0.0715 -0.1129
11855W        W30709   2.836   8.539  14.632 -0.3222  0.2807 -0.2236
11856W        W30710   1.306  16.965   4.055  0.1425 -0.0799 -0.0865
11857W        W30711   1.450   3.561  16.072  0.0602  0.2020 -0.1022
11858W        W30712  13.755   0.046  16.810  0.4442  0.2168 -0.3715
11859W        W30713   5.953   6.680   2.341 -0.2592  0.3457 -0.0227
11860W        W30714  13.598   3.477   1.394 -0.0126  0.3452  0.1002
11861W        W30715   8.406   8.042  12.780  0.0610 -0.0444  0.0153
11862W        W30716  12.852  14.265   1.732  0.2254 -0.0313  0.0184
11863W        W30717  11.324   9.870  15.863  0.0240 -0.2246 -0.0596
11864W        W30718   9.114   4.521   0.332 -0.1185 -0.2613  0.1095
11865W        W30719  12.749   2.923   3.726  0.0868 -0.1040  0.1685
11866W        W30720  14.268   1.183   1.108  0.0276 -0.1393 -0.1742
11867W        W30721  10.420   1.437   1.724 -0.1421 -0.3126 -0.2210
11868W        W30722  13.179  12.251   5.374 -0.1817  0.1122 -0.2093
11869W        W30723   9.333   4.438  13.288  0.1454 -0.0174 -0.1759
11870W        W30724  12.845  14.539  12.868  0.1211  0.0424  0.0772
11871W        W30725  12.326   8.641   2.955 -0.1504 -0.1527  0.1024
11872W        W30726   3.257   1.846  15.331 -0.2022 -0.0436 -0.0502
11873W        W30727   0.247  11.167   1.383  0.5239 -0.1302  0.2858
11874W        W30728   3.865   7.835   1.015 -0.1218  0.0751 -0.0016
11875W        W30729   0.828   5.656  14.785 -0.1058  0.0729  0.1169
11876W        W30730   2.420  16.470  13.473  0.1234 -0.0004 -0.0337
11877W        W30731   0.041  15.257   4.684 -0.1166  0.1388  0.2054
11878W        W30732   8.214   0.476   2.319 -0.2961  0.0579 -0.1232
11879W        W30733   8.698   9.559   4.246  0.1534 -0.2434 -0.0186
11880W        W30734   1.824  11.045  11.888  0.0077  0.0335 -0.0231
11881W        W30735  11.454  17.393  13.802  0.1431  0.2657 -0.1972
11882W        W30736   3.408  12.363   0.892 -0.0343 -0.0724 -0.1432
11883W        W30737   2.423   6.732  13.390  0.1470  0.1736  0.3606
11884W        W30738  13.660   2.473  15.307 -0.2303 -0.4296  0.1061
11885W        W30739  11.557  16.869   4.322 -0.1676  0.1478 -0.0813
11886W        W30740   3.763  10.195  12.419 -0.0858 -0.0866  0.2666
11887W        W30741   4.597   2.576  12.545  0.2283 -0.0151 -0.1142
11888W        W30742   0.773   6.919  14.101 -0.1069  0.1282 -0.0916
11889W        W30743  12.943   2.160  12.356 -0.3232 -0.0612 -0.0773
11890W        W30744  13.365  11.281   4.928 -0.3079  0.2120 -0.0355
11891W        W30745   4.457   6.997   4.666 -0.2915 -0.2445  0.1383
11892W        W30746   0.768   8.176   4.296 -0.0147  0.0944  0.1151
11893W        W30747   8.139  13.049  16.809  0.2085 -0.2937 -0.3485
11894W        W30748   9.916   6.084   0.670  0.3479 -0.2029 -0.1867
11895W        W30749  11.005   4.493  14.954 -0.2853  0.0532  0.0181
11896W        W30750  17.428  10.392   4.227 -0.1444  0.0107  0.0832
11897W        W30751  16.340  14.236   0.134 -0.2767  0.1525 -0.1419
11898W        W30752   3.698   4.389  16.290  0.0023 -0.0221 -0.1385
11899W        W30753  14.045   8.184   2.519 -0.5783  0.2448 -0.1335
11900W        W30754   9.037  16.159   4.480 -0.1828 -0.0108  0.0944
11901W        W30755   4.690   4.059  14.178  0.0797 -0.0985 -0.1091
11902W        W30756   8.574  15.957   1.825  0.1049  0.0850  0.3159
11903W        W30757   9.799  15.143   0.260 -0.2419  0.0636 -0.0365
11904W        W30758  13.180   7.198  16.763 -0.1239 -0.3589 -0.1299
11905W        W30759   0.461  15.305   2.921  0.1763 -0.2365 -0.1353
11906W        W30760   7.245  11.620   1.312 -0.0290  0.0877  0.1110
11907W        W30761  14.041   3.992  12.737 -0.0254  0.2504  0.0771
11908W        W30762   6.052   6.879   1.799  0.0346  0.3316  0.2877
11909W        W30763  17.156   5.918  14.858  0.2381  0.0326  0.1448
11910W        W30764  13.970   7.344  14.003  0.0921  0.2664  0.0806
11911W        W30765   5.032  11.414  15.068  0.2311 -0.0264  0.0082
11912W        W30766  10.476   1.980   3.935  0.1048  0.1457 -0.2928
11913W        W30767   4.254   2.595  12.924  0.2057 -0.2027  0.2379
11914W        W30768   4.031  15.665   4.168 -0.1680 -0.0003  0.0288
11915W        W30769   5.152   9.849   2.597  0.2338  0.2020  0.0137
11916W        W30770  12.381  15.508  14.467  0.1190  0.3031 -0.0096
11917W        W30771   7.552  15.926   0.113  0.0337 -0.1446  0.0649
11918W        W30772  14.346   2.091   2.792 -0.1371  0.5288  0.2520
11919W        W30773   6.058  16.235   0.837 -0.0032 -0.1868 -0.0451
11920W        W30774   5.833   1.422   3.454  0.1299  0.1951 -0.1353
11921W        W30775   9.342   3.232  16.726  0.1885 -0.0501 -0.1297
11922W        W30776  15.355  14.552   0.612 -0.1196 -0.2103  0.4883
11923W        W30777   9.564   8.195  16.740 -0.1080  0.4185  0.0982
11924W        W30778  13.676   9.619   2.254  0.0301 -0.0098 -0.0890
11925W        W30779   7.145  14.957  15.343  0.1173  0.5940  0.0041
11926W        W30780  14.983  10.302  12.198 -0.2267 -0.0067 -0.0211
11927W        W30781  10.428   5.323  14.968  0.2219 -0.1061 -0.0508
11928W        W30782  10.684  10.931  12.966 -0.2450  0.0341 -0.0414
11929W        W30783   5.692   4.661   0.733 -0.3018 -0.0371 -0.1322
11930W        W30784   4.462   4.778  11.980  0.1542  0.1385  0.0826
11931W        W30785   0.712   7.876  14.536 -0.3815  0.0512  0.1492
11932W        W30786  12.288   6.328  15.133 -0.0123 -0.2781 -0.1969
11933W        W30787   5.939   7.489  16.991  0.1244 -0.0355  0.1549
11934W        W30788  13.820  16.908   0.901 -0.1763  0.1976  0.0812
11935W        W30789   6.306   4.650   0.767  0.0498 -0.2857  0.0285
11936W        W30790   3.949   7.763   3.152 -0.1689  0.2636  0.1256
11937W        W30791   9.751   8.260  14.605  0.0316  0.2400 -0.1061
11938W        W30792   5.061  15.088  15.003  0.2314 -0.0094 -0.0067
11939W        W30793  17.213   3.430   3.565  0.1382 -0.0797  0.0295
11940W        W30794   1.819  13.328  13.111 -0.1026  0.1778 -0.1327
11941W        W30795  13.816   2.484   4.707  0.0981 -0.1700 -0.1837
11942W        W30796   4.959   4.193   1.105 -0.2189  0.2310 -0.1234
11943W        W30797  15.840  16.744  16.180 -0.3297  0.2371  0.1833
11944W        W30798  15.090   5.217   1.197 -0.2507 -0.1333  0.1167
11945W        W30799   9.534  14.528   3.584  0.1626 -0.3089  0.0223
11946W        W30800   9.320  13.774  14.446 -0.1718 -0.0166 -0.0797
11947W        W30801   3.256  16.753  13.417 -0.0376 -0.1545  0.0782
11948W        W30802   1.174  11.437  15.983  0.1036  0.2402  0.2642
11949W        W30803   6.780   8.899  17.245  0.2546  0.3261 -0.0813
11950W        W30804   2.723   2.615   2.869  0.0325 -0.0458 -0.1550
11951W        W30805   5.484   8.990  15.825  0.0730 -0.0534 -0.0490
11952W        W30806   6.981  13.050  15.450 -0.0236  0.1632 -0.0406
11953W        W30807  15.984  17.369  16.785  0.3471 -0.2839  0.0016
11954W        W30808  16.426  15.635   4.606  0.0573 -0.0242  0.0505
11955W        W30809   9.285  10.289  14.783 -0.1481  0.1340  0.1749
11956W        W30810   4.430   3.656  14.394  0.2546 -0.1906 -0.3080
11957W        W30811   4.632  15.634   2.396 -0.1801  0.0132  0.0301
11958W        W30812  15.122   2.178  16.121 -0.2634  0.1119  0.1113
11959W        W30813  13.860  10.330   1.219  0.0813 -0.0534 -0.1755
11960W        W30814   1.709   0.475  15.155 -0.3253  0.1369 -0.0593
11961W        W30815   0.810   2.054  15.555  0.0704  0.0424  0.0646
11962W        W30816   4.659   2.100  15.841  0.1121 -0.0316  0.3153
11963W        W30817  11.384   9.253   5.168  0.2069 -0.1538 -0.2268
11964W        W30818  11.215  12.416  12.042  0.0407 -0.2192 -0.2444
11965W        W30819  12.833   1.432  14.764  0.1606 -0.0297 -0.2417
11966W        W30820   5.442   6.443   0.899 -0.2017 -0.0154  0.3284
11967W        W30821   8.058   1.685   3.295  0.1766  0.0181  0.1268
11968W        W30822   6.908   0.328   4.467  0.3439  0.3415 -0.0692
11969W        W30823  13.451  15.284  15.244 -0.0060 -0.1242  0.1114
11970W        W30824  11.837   8.094  13.766 -0.0631 -0.3114 -0.1449
11971W        W30825  11.849  16.700   0.896 -0.0449  0.0552 -0.0156
11972W        W30826  13.709  15.905   0.095  0.2357 -0.0276  0.1334
11973W        W30827   3.263  13.428   4.987 -0.2954 -0.0864 -0.0515
11974W        W30828   1.633  12.096   0.926  0.0739  0.0776 -0.1556
11975W        W30829  11.722   5.728   0.164  0.0110  0.0360 -0.0726
11976W        W30830  11.123  13.952   0.263 -0.3256 -0.2903 -0.1576
11977W        W30831  13.006  17.588   3.759  0.0589 -0.0228 -0.2365
11978W        W30832  10.143  10.288  13.271 -0.0211 -0.0053  0.3094
11979W        W30833   3.649  16.447   0.160  0.1798  0.1126  0.0878
11980W        W30834   1.140   7.001   0.996  0.1700 -0.3505  0.0850
11981W        W30835  11.532  11.672  14.063  0.0726  0.6316 -0.0938
11982W        W30836   6.875  10.099  12.246 -0.1190  0.0259  0.0444
11983W        W30837   7.206  13.904  12.382 -0.0242  0.4213 -0.0724
11984W        W30838   1.687   8.471  17.014 -0.3395 -0.0387  0.1574
11985W        W30839  14.047   2.875   1.884 -0.0373 -0.2955 -0.3004
11986W        W30840   8.426   5.274  13.348 -0.0628  0.0053 -0.1637
11987W        W30841   4.554   2.429   1.362  0.2470  0.2401  0.1419
11988W        W30842   8.494   4.344  16.678 -0.0559 -0.0435  0.0439
11989W        W30843   7.527  10.782   4.341  0.1501 -0.1152 -0.1321
11990W        W30844  14.965   1.637  16.092 -0.0259  0.0981 -0.2036
11991W        W30845  15.377   2.904   3.613 -0.1496  0.0057  0.1086
11992W        W30846  17.062  10.142   2.873 -0.0908  0.1466 -0.1238
11993W        W30847  17.212   6.479  12.414  0.1085  0.0469 -0.2193
11994W        W30848  12.535   5.920  13.532  0.3620  0.0112 -0.1567
11995W        W30849  17.425   6.128  12.826  0.1625  0.0398 -0.1051
11996W        W30850   9.184   7.988   1.056  0.0331  0.0258 -0.2616
11997W        W30851   8.422   3.036   4.860 -0.2242  0.1472  0.2519
11998W        W30852   9.111  10.388   3.908  0.2512  0.1854 -0.0954
11999W        W30853  17.109   7.063   0.519  0.0562  0.1414  0.3036
12000W        W30854   9.748   7.341   0.821 -0.0693  0.0670  0.1840
12001W        W30855  10.759   5.902   1.721 -0.1570 -0.0012  0.0971
12002W        W30856   1.730  15.234  15.796 -0.1734  0.1724  0.0922
12003W        W30857   2.456   5.322   3.102 -0.2532 -0.2046 -0.1342
12004W        W30858   5.544   4.235  16.245  0.1376  0.0223  0.1968
12005W        W30859   0.149   3.794   2.322  0.2231 -0.1237 -0.1164
12006W        W30860  17.135   3.348  16.756  0.1547  0.0765  0.2223
12007W        W30861   2.203   1.696  13.208  0.1335 -0.2289  0.0521
12008W        W30862   0.311  15.576  16.218 -0.0255 -0.0680  0.2222
12009W        W30863   4.111   6.940   1.135 -0.1784  0.2594  0.1858
12010W        W30864  17.296  12.731   2.545 -0.0933  0.1749 -0.2413
12011W        W30865  14.908   2.648   3.057  0.1566 -0.3966  0.0207
12012W        W30866   3.904  15.383   3.234  0.0692  0.2618  0.1024
12013W        W30867  14.968   9.524  13.269  0.1588  0.2680  0.1153
12014W        W30868   4.591  17.216   5.578 -0.2209 -0.0663 -0.3191
12015W        W30869   5.008  13.276  14.440  0.1234  0.2267 -0.3278
12016W        W30870   3.972  14.589   1.853 -0.2806  0.0174  0.1839
12017W        W30871   8.260   9.562   2.828 -0.2637 -0.0893  0.1190
12018W        W30872  12.689   0.605  13.000 -0.3337  0.1718 -0.0965
12019W        W30873  12.548  15.854   4.269  0.0058  0.1425  0.1019
12020W        W30874   1.348   6.243   2.742 -0.0401  0.1835  0.3865
12021W        W30875   8.684  13.058  11.853 -0.4395  0.4473  0.0959
12022W        W30876   7.083  14.331  12.134  0.5458 -0.0319  0.2897
12023W        W30877   8.903   1.457  13.486 -0.0344  0.0453 -0.1386
12024W        W30878   2.160   9.199  14.289  0.1203 -0.1097 -0.1306
12025W        W30879  16.665   2.958  11.527 -0.1104 -0.0689  0.2341
12026W        W30880   1.032  15.458  12.405  0.2161  0.4482 -0.1973
12027W        W30881   5.870   5.059  17.149  0.0772  0.0477  0.2023
12028W        W30882   5.882   5.891  17.106 -0.0489  0.1003  0.1042
12029W        W30883  13.090   2.826   1.450  0.0952 -0.0435  0.0270
12030W        W30884  15.901  11.405  13.417  0.0016 -0.0195  0.3123
12031W        W30885  10.515  14.325  14.836  0.3677 -0.1426  0.3906
12032W        W30886  16.244   3.852  12.327 -0.0161  0.4215  0.2137
12033W        W30887   5.203  12.746  16.591  0.0933 -0.0567  0.1026
12034W        W30888  11.986  10.366  14.197  0.1913 -0.0804 -0.4228
12035W        W30889  15.187  17.530  15.551  0.1102  0.1439  0.1010
12036W        W30890   9.565   3.004   1.971  0.0746  0.1182  0.3135
12037W        W30891   6.135   2.912   2.246 -0.0358  0.0420 -0.1747
12038W        W30892  11.086  15.167  13.270 -0.1065  0.1560 -0.2075
12039W        W30893  15.498  17.596  16.547  0.2215  0.0467 -0.4333
12040W        W30894  11.877   5.288   1.232  0.0793  0.0557  0.0149
12041W        W30895   6.632   8.569   4.356  0.3580  0.2792 -0.1558
12042W        W30896  17.543  12.341  16.283 -0.0705 -0.0389 -0.0347
12043W        W30897   8.508  16.240  12.736  0.4571  0.1554 -0.1795
12044W        W30898   8.901   3.793   4.963 -0.2224  0.2825 -0.0922
12045W        W30899   4.443  10.150  11.983  0.1096 -0.2073 -0.2832
12046W        W30900  13.877   1.822   0.950 -0.0133 -0.1787 -0.1092
12047W        W30901  12.087   0.977  16.940  0.0236 -0.0090 -0.2294
12048W        W30902  10.516  12.102  16.596  0.2091 -0.0487  0.1644
12049W        W30903   8.359  16.681  13.077  0.1673 -0.0656  0.1507
12050W        W30904   0.240  11.951  12.227 -0.0141  0.1621 -0.1661
12051W        W30905  12.678   4.110   3.052 -0.3176  0.0968 -0.1712
12052W        W30906   7.435   1.485   0.248  0.0362 -0.0484 -0.1107
12053W        W30907   0.777   9.569   3.777 -0.1095  0.2035  0.2486
12054W        W30908   6.848   6.866  13.722 -0.1593 -0.0739  0.2511
12055W        W30909   0.000   1.505   1.101  0.3718 -0.1256 -0.1869
12056W        W30910   6.461  16.021  16.127 -0.3371 -0.0401  0.0138
12057W        W30911  14.259   0.899  11.865  0.2259  0.0637 -0.2526
12058W        W30912   0.817   6.479   4.740  0.1094 -0.0862  0.3223
12059W        W30913   2.873  15.462   4.120 -0.5675 -0.0908 -0.1445
12060W        W30914   3.155   9.768  16.791 -0.0680 -0.2545 -0.0890
12061W        W30915  11.052  12.746   2.089 -0.0762  0.0313  0.1679
12062W        W30916   9.930  15.946   2.159 -0.2129  0.2088 -0.1832
12063W        W30917  12.542   7.378  13.839  0.7056 -0.0228 -0.1302
12064W        W30918   1.150   7.903   1.851 -0.2455 -0.1181  0.1534
12065W        W30919   4.844  17.360  14.562  0.1028  0.1276 -0.0826
12066W        W30920  15.914   7.496  12.718  0.1613 -0.2179 -0.1627
12067W        W30921   2.453  11.164   5.197 -0.3424  0.0247 -0.2500
12068W        W30922  17.141  17.442   4.175 -0.0285 -0.0789  0.0126
12069W        W30923   6.297   6.788  15.865 -0.0782  0.3687 -0.0747
12070W        W30924  14.694  10.757   0.401 -0.1882 -0.0427 -0.0369
12071W        W30925   1.777   3.751   0.127 -0.0679 -0.2308 -0.1067
12072W        W30926  16.501   9.678   0.878  0.0398  0.3044 -0.0075
12073W        W30927  17.494   6.632  11.971  0.3705  0.1929 -0.1309
12074W        W30928   3.642  15.988   2.024 -0.1043 -0.1040 -0.0059
12075W        W30929   3.929   9.124   1.182  0.0598  0.1744  0.0583
12076W        W30930   4.185   0.385  16.138 -0.2747  0.1450 -0.2103
12077W        W30931  15.198   8.898   2.187  0.2377  0.1036  0.0265
12078W        W30932   8.581  14.928  12.226 -0.1350  0.0012  0.1818
12079W        W30933   6.302  16.119  12.365 -0.1260 -0.1273 -0.0352
12080W        W30934   7.722   4.999  12.528 -0.2335  0.0002  0.1591
12081W        W30935  14.935   7.736   3.107  0.1457 -0.0752 -0.0206
12082W        W30936  11.730   0.502  13.555 -0.1063  0.0718 -0.0385
12083W        W30937  17.000   3.517  12.039 -0.1230  0.0401 -0.0576
12084W        W30938  11.809   9.118  14.865  0.0300  0.1295 -0.2125
12085W        W30939  10.493  14.541   3.107  0.0205  0.0011 -0.1881
12086W        W30940   3.468   2.355  16.048 -0.1280 -0.2684 -0.2182
12087W        W30941  12.290   3.683   3.758 -0.0523  0.1705  0.0373
12088W        W30942   7.520  16.007   3.511 -0.0556 -0.1763  0.0662
12089W        W30943   5.021  17.475  13.184  0.4494 -0.1260 -0.1018
12090W        W30944   0.249   1.373   2.475 -0.0733 -0.0430 -0.5128
12091W        W30945   7.829   2.061  17.147  0.0366  0.1635  0.2070
12092W        W30946   7.440  12.159   3.044  0.4588  0.0629 -0.1133
12093W        W30947  11.711   6.748  12.694  0.2750  0.2954 -0.0017
12094W        W30948   7.919  14.440  14.526  0.1962  0.0192 -0.1467
12095W        W30949   4.982  15.673  13.941 -0.0302  0.0755  0.1242
12096W        W30950   2.903   5.492  17.060  0.0478  0.1823 -0.0311
12097W        W30951   9.935   4.166  14.257  0.0418 -0.3161 -0.0919
12098W        W30952   0.782   7.245  13.162 -0.0444 -0.3268  0.1931
12099W        W30953   4.985  11.355   2.863 -0.1938 -0.2046  0.0119
12100W        W30954   9.083   8.348   2.966  0.2554  0.2898 -0.2121
12101W        W30955   7.353   0.648  14.217 -0.2272  0.0059  0.2012
12102W        W30956   3.696   0.662  16.849  0.0635  0.0143  0.1046
12103W        W30957   6.891   4.381  16.850 -0.0299 -0.3495  0.0864
12104W        W30958  11.232  15.831  16.829 -0.0710 -0.0950 -0.0936
12105W        W30959  16.052   1.938   0.071 -0.2084 -0.3743 -0.2104
12106W        W30960  15.827  13.396   2.251 -0.0088  0.2353  0.1542
12107W        W30961   1.164   2.150  16.354  0.0866 -0.0078  0.0616
12108W        W30962  15.061   8.958   0.839  0.1211 -0.3034  0.3374
12109W        W30963  10.647  10.252  12.498  0.0409 -0.1754 -0.0673
12110W        W30964   2.436  15.203  14.293 -0.2154  0.0967  0.2848
12111W        W30965  14.100   0.830   3.348  0.1506 -0.1611 -0.1155
12112W        W30966   0.428   9.499   1.898 -0.0663  0.2385  0.1109
12113W        W30967   7.696   4.502   4.022 -0.5993  0.0577 -0.2274
12114W        W30968  17.572  13.482  13.430 -0.0444  0.2878 -0.1364
12115W        W30969   3.419  15.193   1.374  0.2634  0.1995 -0.3720
12116W        W30970   5.358   1.635  12.721  0.0514  0.0248  0.1368
12117W        W30971  13.558   8.937   2.764  0.0371  0.1648  0.0518
12118W        W30972  11.035  15.576   0.887  0.1095  0.1557  0.0917
12119W        W30973   5.332  11.494  16.144 -0.1168  0.0621 -0.1506
12120W        W30974   3.949   9.369   3.643 -0.1387  0.0592  0.4183
12121W        W30975  15.431  10.132  13.821  0.2339 -0.1808 -0.2068
12122W        W30976   2.512   8.692   3.724 -0.2817  0.1501  0.0890
12123W        W30977  14.670  12.092   3.527  0.0738  0.1040 -0.1958
12124W        W30978  16.426  12.149   1.559 -0.1829 -0.0596  0.0094
12125W        W30979  13.257   9.722   1.367 -0.1669 -0.1030  0.1266
12126W        W30980   0.288  15.940  13.352  0.1038  0.1070  0.1640
12127W        W30981   2.876   7.810  12.713  0.2780  0.0605  0.0316
12128W        W30982  10.456   4.764  16.628 -0.1951 -0.1094  0.0825
12129W        W30983  14.619   9.478   3.082 -0.1592  0.1756 -0.1293
12130W        W30984   1.559   0.152  15.584 -0.1924  0.0444  0.1151
12131W        W30985   3.889   9.240  12.978 -0.0736  0.1090  0.1928
12132W        W30986  12.845   9.634   5.352  0.0388  0.0379 -0.0910
12133W        W30987   3.914  12.177   4.444  0.2257 -0.5306 -0.0740
12134W        W30988   5.289   9.709   1.371  0.1805  0.0242  0.0099
12135W        W30989  15.082  12.482   4.791 -0.0627 -0.2860 -0.1775
12136W        W30990  10.964   4.184  14.291  0.1040  0.0865 -0.0125
12137W        W30991  12.006   0.555  15.875  0.1645 -0.0482  0.1811
12138W        W30992  13.116  10.726  15.026 -0.0488 -0.0745  0.1911
12139W        W30993  14.504  16.914  16.451 -0.0719 -0.2782 -0.1875
12140W        W30994  13.287  10.592  13.981  0.2319  0.3706 -0.1008
12141W        W30995  13.216   3.542  10.980  0.1465 -0.0859  0.2030
12142W        W30996   3.494   6.310  14.331  0.0484  0.0038 -0.0561
12143W        W30997  13.856  15.534   3.821  0.6007  0.4263 -0.0856
12144W        W30998   7.911   3.448   0.068  0.1718  0.0717  0.1436
12145W        W30999  10.890   6.681  16.519 -0.3553 -0.0868  0.0928
12146W        W31000   1.131   7.064   4.346 -0.1737 -0.1079  0.2616
12147W        W31001   5.916   4.301  16.636  0.0896  0.0939 -0.1437
12148W        W31002   2.966   3.859   3.460  0.0494 -0.0715 -0.0720
12149W        W31003   0.146   9.527  12.322 -0.0176  0.1198  0.0754
12150W        W31004  10.079   3.136  14.194  0.2372  0.1697 -0.2190
12151W        W31005   1.881   9.174  15.144 -0.3303 -0.1162  0.1769
12152W        W31006   4.566  17.045  15.863 -0.0225  0.0397 -0.1402
12153W        W31007  12.932  15.239   1.415  0.0917  0.2874  0.0873
12154W        W31008   9.257   4.081   3.020 -0.0735  0.0008 -0.0293
12155W        W31009  16.924  11.986  12.856  0.0458  0.2441 -0.3878
12156W        W31010   1.448  11.105  15.783  0.2216  0.0504 -0.3088
12157W        W31011   0.964   5.448   2.495 -0.0955 -0.0302  0.3658
12158W        W31012   9.318  10.043   4.217 -0.1551  0.0277 -0.1706
12159W        W31013  11.962   3.912   2.044  0.1536  0.0711  0.1952
12160W        W31014  15.921  15.357   1.313  0.0410 -0.1014 -0.2667
12161W        W31015   0.413   9.497   5.120 -0.1095  0.0761  0.1726
12162W        W31016   8.297  13.154  15.799 -0.2697 -0.2239 -0.0237
12163W        W31017   6.268   1.042  13.252 -0.0693 -0.1452 -0.3400
12164W        W31018  14.931   7.743  12.314  0.2432 -0.1509 -0.2784
12165W        W31019   4.518   2.981  12.824 -0.0687 -0.0463  0.0278
12166W        W31020   4.028  16.958   3.469  0.1830  0.0528 -0.1232
12167W        W31021   3.028  13.766  12.186  0.0815 -0.1881 -0.2417
12168W        W31022  10.404   2.811   4.505  0.0003 -0.1048  0.0822
12169W        W31023   1.576   4.373  15.213 -0.1970  0.1073 -0.2062
12170W        W31024  10.659   7.585   3.703 -0.1053  0.2329  0.1945
12171W        W31025  13.741  11.093   5.269  0.4551  0.0726  0.0470
12172W        W31026  16.167   6.252  17.070 -0.5554  0.2862 -0.0767
12173W        W31027  14.544   9.823   0.864  0.2314 -0.2997 -0.1936
12174W        W31028  10.309  12.446   3.470 -0.5073  0.1576 -0.2776
12175W        W31029  14.599   4.463   2.429  0.0142  0.1203  0.1308
12176W        W31030  16.613  16.092  12.745 -0.2450  0.0538 -0.0355
12177W        W31031   4.865   2.181  16.665  0.0452  0.1880 -0.1644
12178W        W31032   2.205   7.027  11.884  0.3609 -0.1674  0.0499
12179W        W31033  14.923  12.405  14.202  0.0535 -0.1123 -0.0632
12180W        W31034   1.046   6.613  16.279 -0.1877 -0.2117  0.1650
12181W        W31035   7.128   4.003   3.167  0.0675 -0.2689  0.0061
12182W        W31036  11.790  15.099  12.153 -0.0932  0.0865 -0.1193
12183W        W31037  12.170   5.052   5.108  0.0711  0.1011  0.0237
12184W        W31038   6.129   8.221   2.937 -0.1501 -0.0288 -0.2441
12185W        W31039  17.199   4.495   4.084 -0.0055 -0.0517  0.0468
12186W        W31040  13.128  11.869   1.477 -0.0813 -0.0684 -0.0715
12187W        W31041   7.599  11.443   0.866 -0.5089 -0.3001  0.0557
12188W        W31042  11.154   2.533  17.068 -0.0947  0.0299  0.1463
12189W        W31043  15.906   8.782   3.034 -0.0517  0.2312 -0.1293
12190W        W31044  13.950   9.244   0.514  0.2899 -0.0919 -0.3490
12191W        W31045  15.701  10.611  15.328 -0.0278 -0.0758  0.1884
12192W        W31046   7.758  14.573  15.000  0.0099 -0.1200  0.1459
12193W        W31047   4.127   8.241  16.392  0.4096  0.0577  0.2418
12194W        W31048  11.832  15.895   2.736 -0.1281  0.0197 -0.1095
12195W        W31049   6.062   3.878  16.838  0.3500  0.0938 -0.0317
12196W        W31050   2.386   7.411   2.493  0.4136 -0.2179  0.0041
12197W        W31051   5.415  11.530   4.446 -0.1112 -0.0795 -0.1567
12198W        W31052  15.769  14.857  16.436 -0.1074 -0.0305  0.0731
12199W        W31053  11.165   5.821  13.057  0.1542  0.2041 -0.1785
12200W        W31054  10.834  12.641  12.753  0.3114  0.0007 -0.2518
12201W        W31055  12.545   2.397  13.240 -0.1323 -0.3066  0.0583
12202W        W31056   6.237   6.681   3.244 -0.0187 -0.0760  0.0042
12203W        W31057  16.256  14.891  16.290  0.4646  0.2608  0.2888
12204W        W31058   8.400   8.973  15.940 -0.1618 -0.0973  0.1105
12205W        W31059   1.355   6.302   3.261 -0.2382 -0.1638  0.0127
12206W        W31060   3.583  15.639   3.825 -0.3185  0.0601 -0.1492
12207W        W31061  17.338  15.373   5.069  0.2416 -0.0020 -0.0156
12208W        W31062   4.130  16.042   5.168 -0.0557 -0.0074 -0.0914
12209W        W31063   9.609   5.664  16.933 -0.1350  0.0416  0.2387
12210W        W31064  10.040   0.558  12.872  0.1358 -0.2001 -0.0733
12211W        W31065  10.567   6.821  15.091  0.0587 -0.1184 -0.0697
12212W        W31066   6.669  15.847   1.235  0.0385  0.2044  0.2922
12213W        W31067   0.133   7.958   2.862  0.2157  0.0493 -0.0534
12214W        W31068  10.597   1.488  14.495 -0.0613  0.2606 -0.1258
12215W        W31069   4.652   3.036   2.209  0.0017  0.1658 -0.0260
12216W        W31070   1.201   4.459   2.938 -0.0915 -0.0281  0.1649
12217W        W31071  10.946  10.851   1.899  0.0135  0.3438 -0.1673
12218W        W31072   7.671   3.647   4.681  0.1375  0.1085  0.0033
12219W        W31073   5.544   2.045  15.554 -0.1881 -0.0013 -0.1015
12220W        W31074  16.226  14.268   1.919  0.1525 -0.0775 -0.2557
12221W        W31075  15.900  14.972   2.705 -0.0721  0.3865 -0.0437
12222W        W31076   2.667   1.725  14.095  0.0007 -0.3163  0.0488
12223W        W31077   7.549  15.331  16.179  0.1921 -0.1187  0.0726
12224W        W31078   5.346   6.062  16.644  0.1064  0.0255  0.0618
12225W        W31079   9.525   7.477   5.331 -0.4330  0.3170 -0.2451
12226W        W31080   8.278   4.252  11.494  0.0949 -0.3865  0.3069
12227W        W31081   2.825  15.911  14.551  0.0697  0.4562  0.0845
12228W        W31082   3.713  11.701  15.395  0.0661  0.5011 -0.0098
12229W        W31083  11.525  11.248   0.545 -0.2569  0.1196  0.0233
12230W        W31084   2.037  11.037   4.383 -0.0097  0.0135  0.5527
12231W        W31085   0.765   7.380   4.580 -0.0906 -0.0422  0.0316
12232W        W31086  16.711   7.925  16.749 -0.2148 -0.1565 -0.1707
12233W        W31087  11.795  13.250  14.538  0.2108  0.0233  0.1564
12234W        W31088  13.632  17.008  15.722  0.0831  0.0138 -0.0108
12235W        W31089   4.629   1.539   1.306  0.0525  0.1990  0.3558
12236W        W31090   8.971  15.032  15.331  0.0222 -0.0400  0.2520
12237W        W31091   9.942  12.373  14.858 -0.0540 -0.0250 -0.1028
12238W        W31092   5.682  16.821   2.904  0.0183 -0.1257 -0.1686
12239W        W31093  16.595  12.909   4.027  0.1264  0.0955  0.2528
12240W        W31094   1.129  12.910  16.837  0.1794  0.1736 -0.2889
12241W        W31095   8.439   2.877   3.637  0.2918  0.2382 -0.1188
12242W        W31096   6.558  13.344   0.108 -0.1711  0.2867  0.2478
12243W        W31097  17.569   2.084  15.632  0.1398  0.5363  0.2660
12244W        W31098   8.502   0.278  14.818 -0.1538 -0.3296  0.2546
12245W        W31099  17.343   9.591  11.964 -0.0183 -0.1575  0.2175
12246W        W31100   7.822   1.538  14.005 -0.0439 -0.1871  0.3545
12247W        W31101  17.406   5.555   2.426 -0.1299  0.0765 -0.0494
12248W        W31102  16.294  11.716   3.823 -0.0171 -0.0274  0.0861
12249W        W31103  17.496   9.879   2.546 -0.0158  0.1791 -0.1512
12250W        W31104  11.233  16.328   5.344 -0.4742 -0.2099 -0.4610
12251W        W31105   8.722  11.675   3.070 -0.2540  0.0432 -0.0774
12252W        W31106  15.244  16.246   0.430 -0.0962 -0.0275  0.0315
12253W        W31107  11.450   2.495   2.229 -0.1058 -0.0466 -0.1035
12254W        W31108   7.388   4.988   4.223 -0.0622 -0.0088  0.1912
12255W        W31109   5.889   4.019   1.487  0.1253  0.1745  0.0082
12256W        W31110  15.978   7.891  16.945 -0.0460  0.1307 -0.1777
12257W        W31111   8.382   0.668   4.120 -0.1661  0.1029  0.1926
12258W        W31112   2.260   8.595   4.388  0.0228 -0.3121 -0.0191
12259W        W31113  10.502   7.599   2.460 -0.0444 -0.5022  0.1580
12260W        W31114  17.014   5.865   3.373  0.0776  0.0910  0.0874
12261W        W31115   1.698  16.361  14.553  0.0063  0.0768  0.1609
12262W        W31116   6.544   5.209  12.478  0.0380 -0.1678 -0.0816
12263W        W31117   7.153   6.444  15.864 -0.1951 -0.0556  0.1429
12264W        W31118   8.708   6.136   4.920 -0.1205 -0.1395 -0.3579
12265W        W31119   1.254  16.812  14.605  0.0008 -0.1852  0.0825
12266W        W31120  15.499   4.808   0.119  0.0782 -0.1935  0.3853
12267W        W31121   3.879   7.235   0.776 -0.2475 -0.6253 -0.1015
12268W        W31122   8.806   7.217  13.288  0.1919 -0.0729 -0.0842
12269W        W31123  14.123   5.838  15.634 -0.1178 -0.0326  0.3575
12270W        W31124  11.724   2.262  15.586  0.0815 -0.1231  0.3584
12271W        W31125   2.311   1.993  14.442 -0.1333 -0.0936  0.0576
12272W        W31126   2.107   8.020   0.955 -0.0260  0.0641  0.2476
12273W        W31127  13.612   8.776   3.268 -0.1660 -0.1753  0.2355
12274W        W31128  12.995   4.598  13.433  0.0414  0.4969 -0.0702
12275W        W31129  11.602   8.408  16.975 -0.0938 -0.0805 -0.1630
12276W        W31130   1.928   6.176  12.900  0.0405 -0.1106  0.0306
12277W        W31131  14.260   2.868  14.202  0.1658 -0.0275  0.0365
12278W        W31132  15.137   2.213  17.162 -0.2166  0.2592 -0.4029
12279W        W31133   6.692   5.110   5.476  0.0235 -0.1377  0.0962
12280W        W31134   1.972   5.684   3.370 -0.1416  0.1025 -0.3105
12281W        W31135  11.985  16.887   3.147  0.0172  0.2279  0.1635
12282W        W31136   8.993   1.587  15.120 -0.0400  0.1239  0.0266
12283W        W31137  10.943  17.280  12.204 -0.1818  0.0100  0.0322
12284W        W31138   1.024   1.507   3.280  0.0289 -0.2151 -0.0168
12285W        W31139  15.262  14.525  15.162 -0.2021 -0.2152 -0.2258
12286W        W31140   1.053   5.709   5.041  0.2240 -0.1689 -0.3432
12287W        W31141  16.241   3.856  12.884 -0.2818  0.2613 -0.1031
12288W        W31142   5.367  14.071   4.699  0.0412 -0.3284  0.0450
12289W        W31143   8.370   3.352  15.460  0.1957 -0.0159 -0.0915
12290W        W31144   4.800   1.159  13.488 -0.0989  0.0193  0.0598
12291W        W31145   7.909  14.677   3.684 -0.0690  0.0397  0.1439
12292W        W31146  16.345  10.306  15.333 -0.2044 -0.1802 -0.0189
12293W        W31147  16.395   5.002   1.045 -0.1984  0.2365  0.0771
12294W        W31148   5.133   6.568   1.980 -0.1461  0.1579 -0.4059
12295W        W31149  10.929   5.135  15.505 -0.2722 -0.1374  0.1194
12296W        W31150  15.638  15.759  13.975 -0.1494  0.2121  0.0640
12297W        W31151   6.841   6.006  12.852 -0.1694 -0.0374 -0.0628
12298W        W31152  15.963   8.104  16.439  0.1355 -0.0478  0.0181
12299W        W31153  11.013  16.082  11.930 -0.0361 -0.2764 -0.0032
12300W        W31154   3.503  13.086  12.282 -0.0647 -0.0694  0.0856
12301W        W31155   4.296   8.654  14.220  0.0160  0.0020  0.1779
12302W        W31156   6.555   0.769  12.876 -0.4284  0.3859  0.0450
12303W        W31157  12.592   3.992  16.491 -0.0631 -0.0505 -0.0359
12304W        W31158  17.522   5.680  12.989 -0.0636  0.1674  0.1998
12305W        W31159   4.024  12.323   2.084 -0.0856 -0.2972 -0.1857
12306W        W31160   6.843   7.424   2.130  0.0479  0.0062  0.1908
12307W        W31161  12.988   4.270  15.208 -0.2483 -0.3109 -0.3026
12308W        W31162  10.932  10.361  15.972 -0.0388 -0.1773 -0.0835
12309W        W31163   0.805   9.481  13.190 -0.1876 -0.1384  0.0865
12310W        W31164  10.594  12.400  16.951 -0.1495 -0.2976  0.1016
12311W        W31165   0.954   0.491  13.237  0.0025 -0.0275  0.2185
12312W        W31166   1.110  14.761  13.926  0.0150  0.0421 -0.0476
12313W        W31167  11.248   0.177   1.541  0.0170  0.0450 -0.0827
12314W        W31168  16.848   5.251   2.123  0.0553 -0.0428  0.1303
12315W        W31169   4.930  14.366   2.315  0.0321  0.0750  0.0119
12316W        W31170  15.623   9.484  14.282  0.0771  0.4391  0.1068
12317W        W31171  16.804  13.849   5.469 -0.0274 -0.1679  0.0265
12318W        W31172   7.653   8.984   0.572 -0.1358  0.0062 -0.0126
12319W        W31173   0.489   8.952  14.095  0.1800 -0.1516  0.2167
12320W        W31174   4.705   2.273   4.423  0.2905  0.0036  0.1037
12321W        W31175  15.615  14.715   1.577 -0.2900 -0.0502  0.0309
12322W        W31176  12.179   8.259   4.229  0.1948  0.0861 -0.1767
12323W        W31177  11.925   9.206  16.468  0.2510 -0.0308  0.1382
12324W        W31178   1.691  14.227  13.426 -0.0295  0.1800 -0.1580
12325W        W31179   3.173   8.624  15.082  0.1278 -0.2179  0.0925
12326W        W31180   2.996   1.044  13.166  0.0457  0.2222 -0.4078
12327W        W31181   1.352  10.137  15.845  0.4392 -0.0047  0.2881
12328W        W31182   3.417   9.700   0.061 -0.2161 -0.5530  0.1982
12329W        W31183   4.705  13.630   5.129 -0.2319 -0.1653 -0.0283
12330W        W31184   4.617   7.709   3.997  0.2097  0.0312  0.2318
12331W        W31185   0.583   2.031   4.787 -0.1420 -0.1530  0.0563
12332W        W31186  13.623  13.877  13.023 -0.0355 -0.1254 -0.0519
12333W        W31187   8.895  16.229   4.954 -0.2318 -0.0632  0.1705
12334W        W31188   8.102  10.688   2.209 -0.0308 -0.0754 -0.2864
12335W        W31189  14.284  11.464   0.854  0.0677 -0.2362  0.2064
12336W        W31190  13.855   0.473  17.011 -0.0983 -0.3698  0.0489
12337W        W31191   6.201   5.004   3.413  0.1058 -0.3571 -0.1561
12338W        W31192  13.700   0.611   0.465 -0.0392  0.0386  0.1222
12339W        W31193   5.349   1.252   4.770 -0.1287  0.1001  0.2001
12340W        W31194  12.171   6.213  13.201 -0.1525 -0.0592  0.1044
12341W        W31195   8.030   6.219   1.008  0.0127  0.0220 -0.3219
12342W        W31196   7.013  12.905   2.397  0.1772  0.2887 -0.1719
12343W        W31197   4.517   9.469  12.442  0.4220 -0.1356  0.0299
12344W        W31198  12.633   8.198   6.066  0.0507  0.0554  0.1359
12345W        W31199   1.023  17.067   4.477 -0.0221  0.1505  0.3568
12346W        W31200  11.959  10.302   4.006  0.1946 -0.2558  0.1568
12347W        W31201  15.735  17.583   3.828  0.0243  0.2248  0.2822
12348W        W31202   1.653   6.275  13.299 -0.2338 -0.0013  0.0833
12349W        W31203   3.081   9.075   2.996 -0.0525 -0.0011 -0.3300
12350W        W31204  15.109   5.109   2.816 -0.1343 -0.2631  0.0980
12351W        W31205  11.246   5.919   0.427  0.0212  0.1193  0.1933
12352W        W31206   6.311  17.192   1.305  0.0101 -0.2061  0.1618
12353W        W31207   5.145  12.333   4.001 -0.2078 -0.0370 -0.2005
12354W        W31208   6.719   9.943  14.879  0.0168  0.0055 -0.3223
12355W        W31209   0.700  11.288   1.275 -0.1009  0.2677 -0.0347
12356W        W31210  13.494  12.695  16.089 -0.2637  0.0564  0.2580
12357W        W31211   6.008  16.957  16.298  0.0671 -0.1906 -0.3315
12358W        W31212   3.969  14.505  15.616  0.2129 -0.1423  0.0307
12359W        W31213  14.964  14.540  12.051 -0.0696  0.0757 -0.2872
12360W        W31214   9.264   7.971  15.475  0.0521  0.0522 -0.2033
12361W        W31215   5.647   7.975   2.947  0.0957 -0.1800  0.1082
12362W        W31216  11.509   5.427  15.650 -0.0396  0.2457  0.3745
12363W        W31217  16.848   7.637  17.156  0.0106 -0.0354  0.2286
12364W        W31218  10.276   3.483  13.774  0.0515 -0.1657 -0.1225
12365W        W31219   6.716   1.766  13.088 -0.2346 -0.1276 -0.0841
12366W        W31220  12.942   8.947   1.974  0.2692  0.0426 -0.3118
12367W        W31221   0.896  17.182  12.941  0.2679 -0.1101 -0.2713
12368W        W31222   3.338   4.228   6.303  0.3200 -0.1699  0.0816
12369W        W31223  12.751   1.934   5.621 -0.1725  0.1577  0.0748
12370W        W31224   8.685  10.010  12.107  0.2451 -0.2054 -0.0432
12371W        W31225   0.048   9.641  14.712  0.2458  0.0249  0.0246
12372W        W31226   5.493   3.416  12.266 -0.0006  0.0206 -0.1383
12373W        W31227  14.589   6.028  12.368  0.1362 -0.1388  0.0485
12374W        W31228  16.876  14.542   3.618 -0.1419  0.0319 -0.1241
12375W        W31229  10.848  10.863   1.056  0.0257 -0.0487  0.0313
12376W        W31230  15.305  12.062   3.086  0.3149 -0.1118  0.1772
12377W        W31231   7.623   7.990   2.912 -0.0075  0.1552  0.0630
12378W        W31232   3.561   3.395  17.247 -0.0918 -0.2405 -0.0861
12379W        W31233  11.788   7.229   2.992  0.1479 -0.0066  0.3761
12380W        W31234  14.658   8.502  12.850 -0.0766 -0.2263  0.1767
12381W        W31235  15.806   0.383   4.553 -0.1146 -0.2591  0.3341
12382W        W31236   5.281  10.256   2.866 -0.1052 -0.1138 -0.1619
12383W        W31237  11.051  10.273   3.393  0.2095  0.0907  0.0223
12384W        W31238   2.496  11.466   3.329 -0.2714 -0.0539 -0.1380
12385W        W31239   1.524  12.406  13.468  0.0065  0.0301  0.2797
12386W        W31240   1.322   9.594   2.871 -0.1074  0.1219  0.1223
12387W        W31241   5.709   2.882  12.230  0.0954  0.2326  0.1707
12388W        W31242   9.444  13.560   1.635  0.0391 -0.1267 -0.1722
12389W        W31243   4.772   1.292   3.253  0.2917 -0.2237  0.4141
12390W        W31244   0.355  17.555  13.183  0.0075 -0.1753  0.0114
12391W        W31245   5.745   0.609   0.220 -0.0043 -0.0251 -0.0580
12392W        W31246   9.977   2.022   2.892 -0.1169  0.1216 -0.0134
12393W        W31247   8.252  15.316   4.143  0.0940  0.2131 -0.5349
12394W        W31248  10.349   9.750  16.878  0.0009 -0.0066 -0.0708
12395W        W31249  17.313   5.796   1.117  0.0903  0.2036  0.0938
12396W        W31250   3.244  10.971   1.640  0.1197  0.0614  0.3057
12397W        W31251   5.250   4.738   0.444 -0.0362  0.0050  0.1047
12398W        W31252   8.255   7.416   2.369 -0.0534 -0.2824  0.2633
12399W        W31253   5.649   2.552   2.774  0.0206 -0.1920  0.1067
12400W        W31254   7.222  13.480   0.610  0.2546  0.3167 -0.1054
12401W        W31255   8.147  16.636   2.196  0.0627 -0.0439 -0.0240
12402W        W31256   4.301  12.044   2.391  0.1642 -0.0439 -0.0431
12403W        W31257  10.119   8.494  13.508 -0.0712 -0.0159 -0.0643
12404W        W31258  11.649   5.864   0.730 -0.1342 -0.0960  0.1780
12405W        W31259  15.257  11.800   4.760 -0.4106  0.0512  0.0072
12406W        W31260   4.599   7.397   4.369 -0.2369  0.0912 -0.2883
12407W        W31261   4.123  10.069  17.103  0.0189  0.0500 -0.3317
12408W        W31262   3.639  13.428   4.550 -0.2216 -0.1381  0.1803
12409W        W31263   0.721   0.059  12.904  0.0070 -0.0406  0.0420
12410W        W31264   2.599   3.937   0.685  0.0287 -0.1778  0.1507
12411W        W31265   0.895   7.670  13.524 -0.0460  0.1729  0.1250
12412W        W31266  13.409   9.120  14.810 -0.2841 -0.0259  0.4210
12413W        W31267   0.001   9.656   2.164 -0.1327 -0.0646 -0.1059
12414W        W31268   1.098  16.282   4.939  0.0284 -0.0837 -0.1297
12415W        W31269  10.469   7.925   3.988  0.2186  0.1274 -0.1686
12416W        W31270  11.761   9.913  12.396  0.0649 -0.2254  0.4551
12417W        W31271  12.422   5.251   0.718 -0.2968  0.1391  0.1159
12418W        W31272   9.088   0.723  15.301  0.0737 -0.0597  0.2994
12419W        W31273  16.373   4.188  16.258  0.0031 -0.1602  0.2500
12420W        W31274  11.697   8.935   5.404  0.0316  0.2925 -0.2906
12421W        W31275  14.691   8.827   2.380 -0.0064  0.0750  0.0988
12422W        W31276  17.198   1.626  12.787 -0.0278  0.1051 -0.1202
12423W        W31277  13.676  13.547  15.761 -0.1503 -0.0761 -0.0184
12424W        W31278   6.092  11.307  16.945  0.0769 -0.1432  0.2350
12425W        W31279   8.884  10.470  12.556  0.1125  0.2900 -0.0917
12426W        W31280  12.862  16.714  16.619  0.0880 -0.0989  0.1756
12427W        W31281  12.937   6.878  15.379 -0.1768 -0.0790 -0.2012
12428W        W31282  16.372  13.692   0.536 -0.1422 -0.1990  0.1622
12429W        W31283   0.629  13.035   1.850  0.0071  0.1821 -0.0515
12430W        W31284   9.110   4.678   3.093 -0.0982  0.1718 -0.0754
12431W        W31285  11.162   6.011   6.044  0.2462 -0.0171 -0.1192
12432W        W31286   3.250  11.411  13.639  0.0576 -0.0247 -0.0556
12433W        W31287  16.778  13.937  11.878  0.1574  0.2604 -0.2715
12434W        W31288  15.212  16.712  14.732  0.2687  0.2217 -0.1796
12435W        W31289   4.727  17.038  15.364 -0.0786  0.2668 -0.1455
12436W        W31290   3.084  12.563  13.643 -0.2971 -0.1205  0.1496
12437W        W31291  15.442   2.764   4.849  0.2812 -0.0373 -0.1574
12438W        W31292   4.699   4.878   3.582  0.0384 -0.0306 -0.2997
12439W        W31293   2.378   8.411  12.519  0.1829  0.2139  0.3009
12440W        W31294   6.891   5.046  14.036 -0.2020 -0.2165 -0.1273
12441W        W31295   9.118   0.626   3.420  0.0487  0.3879 -0.2041
12442W        W31296  13.690   5.073   2.767  0.0947  0.1324 -0.0180
12443W        W31297   1.565   9.205  12.358  0.2765 -0.1551  0.0255
12444W        W31298  11.136   4.057   2.260 -0.1125  0.0188 -0.1370
12445W        W31299  17.274  13.892  13.591 -0.2450 -0.1840  0.0313
12446W        W31300   6.332  15.413   0.974 -0.1728 -0.2404  0.1842
12447W        W31301   4.532   3.271   2.666  0.1851 -0.0292  0.1553
12448W        W31302   4.249   4.151   2.890  0.2642 -0.0345  0.0731
12449W        W31303   1.279   9.216   1.489  0.4391 -0.0529 -0.1185
12450W        W31304   3.752   3.898  16.218 -0.2526  0.0834  0.1697
12451W        W31305   3.450   8.569  14.102 -0.0638 -0.0297  0.0646
12452W        W31306   9.512  10.422  16.560  0.0747  0.1542 -0.0043
12453W        W31307  16.628   5.847  13.833  0.2330 -0.1469  0.0033
12454W        W31308  16.762   1.253   4.901  0.1121  0.1978 -0.0188
12455W        W31309  15.534  15.260  12.852 -0.3133  0.4240  0.1761
12456W        W31310   0.408  17.519   0.428 -0.1359  0.0284  0.2154
12457W        W31311  15.218   6.844  13.706  0.2999  0.0947 -0.0394
12458W        W31312  16.627  17.525  13.751 -0.1689 -0.1940 -0.0820
12459W        W31313  14.597   6.422  12.883 -0.2432  0.1461 -0.0913
12460W        W31314   6.771   8.437   5.235 -0.3146 -0.0839 -0.0274
12461W        W31315  15.984   4.231  16.598  0.0615 -0.0741  0.2209
12462W        W31316  15.953  16.720  14.144  0.0745  0.0540  0.3814
12463W        W31317  11.425  13.033  15.807 -0.0011 -0.2407 -0.2890
12464W        W31318   4.479   8.899   1.975 -0.1989  0.0944 -0.2163
12465W        W31319   3.134   9.843   2.671  0.0728 -0.1078  0.0862
12466W        W31320   2.421  15.880   4.288  0.2221 -0.2794 -0.1460
12467W        W31321  16.174  15.093  15.478 -0.1519 -0.1026 -0.0156
12468W        W31322  12.499  15.330   4.947  0.0100  0.2288 -0.2441
12469W        W31323   4.008   6.439   3.620  0.1170 -0.0652 -0.0978
12470W        W31324  17.275   4.611   1.133 -0.3413 -0.1394 -0.0593
12471W        W31325   4.465   8.597   1.515 -0.0521 -0.2590 -0.0251
12472W        W31326   6.382  14.238  16.893  0.1827 -0.1201 -0.4766
12473W        W31327   0.796  12.365   2.097 -0.0063  0.0035 -0.2155
12474W        W31328  11.886  13.840   3.946 -0.0617 -0.1236  0.0401
12475W        W31329   1.342  15.658  14.910  0.3552 -0.1607 -0.0290
12476W        W31330  16.574   3.459  12.358  0.0667 -0.1559  0.3360
12477W        W31331   0.401   9.935   2.391 -0.4384  0.0361 -0.2052
12478W        W31332  13.033   8.517  16.403 -0.2637 -0.0676 -0.1079
12479W        W31333   7.424   7.828   0.406  0.0323 -0.1014 -0.0440
12480W        W31334   8.660   8.133  17.073  0.0386 -0.0842 -0.0683
12481W        W31335   2.672  12.625  15.578 -0.0199 -0.3125  0.0574
12482W        W31336  11.535   7.524  15.830 -0.1490 -0.3189  0.0107
12483W        W31337   8.063   2.724   1.460  0.0416 -0.1748 -0.0297
12484W        W31338  13.482   7.773   0.109  0.0230 -0.2211 -0.2244
12485W        W31339  15.093   5.535   5.036  0.1654 -0.5656  0.1073
12486W        W31340   5.942  12.372   4.774 -0.2993 -0.0620  0.0602
12487W        W31341  13.957   4.487   1.144 -0.1202  0.1766  0.0250
12488W        W31342  14.466   6.884   0.434 -0.0072 -0.0935  0.1053
12489W        W31343   9.110  10.003   1.674  0.0454 -0.0417 -0.0693
12490W        W31344   9.615   4.868  13.220 -0.1447  0.1004 -0.0631
12491W        W31345   7.664  14.831   0.980  0.0907 -0.2495 -0.1506
12492W        W31346   5.837   2.235  13.197 -0.1478  0.0016  0.0476
12493W        W31347  17.056   0.302   3.033  0.0533 -0.1558 -0.0231
12494W        W31348   7.981   6.753   4.092 -0.0032  0.0962  0.1066
12495W        W31349   7.871   9.265  13.004  0.0260  0.1854 -0.3858
12496W        W31350   2.691  10.294   5.542  0.3735  0.2085 -0.3110
12497W        W31351   9.869   1.257  14.996  0.1268 -0.1294  0.2175
12498W        W31352   9.883  14.880  12.212  0.2759 -0.2332  0.0979
12499W        W31353   8.336   8.335   1.838  0.1037  0.4589  0.1708
12500W        W31354   2.455   6.959   3.845 -0.1954  0.1433  0.0012
12501W        W31355  10.803   5.213   0.001 -0.1718 -0.1421  0.1208
12502W        W31356   3.761   5.333   0.252  0.0173  0.0418 -0.1784
12503W        W31357   2.622   3.812  12.942  0.1006  0.2484  0.0419
12504W        W31358  14.922   1.835   3.556 -0.5086  0.1011  0.3029
12505W        W31359   0.929   1.671   0.239  0.0738 -0.1863 -0.3394
12506W        W31360   6.098  12.808  12.664  0.0009  0.2061 -0.2375
12507W        W31361  12.875  12.153  12.553 -0.2162  0.0487  0.3947
12508W        W31362  16.225   6.331  13.696 -0.2247 -0.0051 -0.0341
12509W        W31363  10.685   7.541  12.484  0.2625  0.0948  0.1228
12510W        W31364  17.176   6.795   4.431  0.2775  0.1209 -0.2464
12511W        W31365  12.941   2.428   5.190  0.2144  0.2782 -0.2710
12512W        W31366   5.300   4.926   2.638 -0.1928 -0.0826  0.0076
12513W        W31367   9.774   5.182  15.627 -0.0702 -0.1074  0.2416
12514W        W31368   3.240   0.480   4.167 -0.0035  0.0397  0.0570
12515W        W31369   8.333   8.134   2.323  0.1459 -0.0795  0.1309
12516W        W31370  13.915   1.589   5.071  0.4571  0.0951 -0.1287
12517W        W31371   9.848  14.392   3.198  0.1132  0.0072 -0.2482
12518W        W31372  10.832   0.904  13.822  0.1686 -0.0763  0.3897
12519W        W31373  13.652  10.885  13.592  0.2333 -0.0535  0.2787
12520W        W31374  10.731  13.697   3.367  0.2679 -0.0728  0.1472
12521W        W31375   9.459   4.858   0.166  0.2443 -0.2478  0.0231
12522W        W31376   4.042   2.058  12.439 -0.3712  0.1038 -0.0625
12523W        W31377   8.051  12.975  16.287  0.1058 -0.0981  0.1383
12524W        W31378  16.680  12.244  16.885 -0.0977  0.0095 -0.0249
12525W        W31379   6.543   0.757  12.076  0.0195 -0.2007  0.0567
12526W        W31380   9.802   1.235   4.981 -0.0634  0.2426 -0.1182
12527W        W31381  10.393   1.901   2.611 -0.4018 -0.2939 -0.0639
12528W        W31382  10.714   4.518   5.245  0.0373  0.2822  0.1354
12529W        W31383  12.747  14.104   3.003 -0.0537  0.4962 -0.2657
12530W        W31384   3.307  16.797  17.230 -0.0011  0.0139  0.0627
12531W        W31385  14.529   9.853  13.069 -0.1680  0.0400 -0.0314
12532W        W31386   3.686   0.262   1.184  0.0593  0.2119 -0.0120
12533W        W31387   4.197   7.623   4.275 -0.1341  0.1849 -0.0242
12534W        W31388  14.826  15.632  14.744  0.2883 -0.1241 -0.2231
12535W        W31389  13.083   3.947   1.955 -0.4233 -0.1458 -0.1011
12536W        W31390  16.698   1.507   2.184 -0.1642 -0.3037  0.1203
12537W        W31391  13.588  16.361   0.057 -0.0418  0.0308 -0.0274
12538W        W31392   4.740   8.587   3.021 -0.1277  0.1141 -0.0424
12539W        W31393  10.578  11.143   0.656  0.0642 -0.0770  0.0430
12540W        W31394  13.168  12.260  14.847  0.1774 -0.1039 -0.2835
12541W        W31395  17.104   2.106   4.475 -0.0519 -0.1636  0.0400
12542W        W31396   5.588  11.955  15.411 -0.3202  0.4410 -0.1851
12543W        W31397  15.389  10.112  14.707  0.1387 -0.4154  0.0513
12544W        W31398  13.844   7.080  13.138 -0.0747  0.2429 -0.0904
12545W        W31399   0.083  16.846   3.636 -0.0361  0.2952  0.1879
12546W        W31400  13.775   7.611   1.177  0.0801  0.1990 -0.1587
12547W        W31401  14.270  14.236  16.947 -0.3976 -0.0879 -0.0563
12548W        W31402  13.936   3.344  12.935  0.0217  0.1232 -0.2946
12549W        W31403   7.739   3.118   4.892  0.0360 -0.0159  0.4350
12550W        W31404   1.668  11.956   1.536  0.0470  0.0139 -0.2507
12551W        W31405   9.360  12.610  16.582 -0.0099 -0.2778 -0.0371
12552W        W31406   3.597  17.460  14.548 -0.2308 -0.0931 -0.0838
12553W        W31407  16.113  13.256   0.762  0.0454  0.3394 -0.0354
12554W        W31408   1.805   9.165  16.093 -0.1064  0.1594 -0.1029
12555W        W31409  15.761   9.644  14.862  0.2092  0.1323 -0.0161
12556W        W31410   5.344   6.426   5.062  0.0504  0.1972  0.3237
12557W        W31411  15.796   8.535  15.159  0.1704  0.1343 -0.0402
12558W        W31412   7.312  15.103  13.156  0.1125  0.2047  0.2150
12559W        W31413  15.402   7.904  16.801  0.1372  0.4806 -0.2337
12560W        W31414   9.319   6.880   5.589  0.2153  0.0011 -0.0406
12561W        W31415   7.376   6.047  16.021  0.0974  0.1762  0.0693
12562W        W31416   5.778   3.774  15.692  0.3565 -0.1759 -0.0419
12563W        W31417   4.933  16.091  14.424 -0.1300 -0.1594 -0.0863
12564W        W31418  12.244   6.285   2.719  0.0559 -0.0509  0.0214
12565W        W31419   6.626   6.172   1.464 -0.0215  0.1406  0.0245
12566W        W31420  12.480   9.743   1.971  0.0142  0.1364  0.1803
12567W        W31421   3.402  14.585   2.241 -0.1036  0.3352 -0.0307
12568W        W31422   9.348   3.114   2.969  0.0748 -0.3430  0.3752
12569W        W31423  11.609   3.588   2.841 -0.2580  0.1107  0.0684
12570W        W31424  14.466   9.720  16.209 -0.2750 -0.1311 -0.1829
12571W        W31425  14.829   8.567  13.935  0.1331  0.2299 -0.0471
12572W        W31426   4.555  12.012   1.270  0.1288 -0.2862 -0.2034
12573W        W31427  15.154  11.692   2.022 -0.2824  0.0613 -0.4038
12574W        W31428   0.258  15.064   0.516  0.1016 -0.0728 -0.2113
12575W        W31429   9.503  16.194   4.283 -0.0255  0.1582  0.1205
12576W        W31430  14.562   9.566  14.351 -0.1954 -0.1339 -0.0756
12577W        W31431  12.683   5.118  13.177  0.0503  0.2461  0.1243
12578W        W31432   9.772  17.472  15.434  0.1822  0.0309  0.0303
12579W        W31433   2.675  11.400   4.815 -0.0853 -0.2625 -0.0091
12580W        W31434  12.313   4.559   5.164 -0.0738 -0.0441 -0.0692
12581W        W31435  10.053   5.864  16.858 -0.2656 -0.0822 -0.0270
12582W        W31436  16.307  10.865  16.921 -0.4772  0.1933 -0.0363
12583W        W31437   6.653   0.185  15.249 -0.1395  0.0890 -0.0581
12584W        W31438   4.844   9.651   2.265 -0.1066  0.0496  0.0416
12585W        W31439  13.504   0.248   1.363 -0.1003 -0.2820 -0.1870
12586W        W31440   8.160  17.283  14.772 -0.0437  0.0507 -0.0902
12587W        W31441  15.585   9.902  16.919  0.0622  0.3663 -0.1708
12588W        W31442  14.525  11.103   1.196 -0.2019 -0.0435 -0.1446
12589W        W31443   1.891   5.730   0.709 -0.1009 -0.0567 -0.0476
12590W        W31444  15.320   7.161  16.032  0.2716 -0.1697 -0.0830
12591W        W31445  11.376   3.988  11.272  0.0806  0.1185 -0.0413
12592W        W31446   9.680   9.745  14.078  0.4448  0.1579 -0.0880
12593W        W31447  14.324  15.427   2.102 -0.0301 -0.4674  0.2746
12594W        W31448   0.905   7.833  11.840  0.3663  0.0820  0.0658
12595W        W31449   0.221   6.725   4.412  0.0608  0.2301  0.1509
12596W        W31450  11.234   0.880   3.786  0.0936 -0.2401 -0.2848
12597W        W31451   3.248   1.885   5.141  0.1408  0.6038 -0.0847
12598W        W31452   7.872   9.902   2.502 -0.3231 -0.2991 -0.0051
12599W        W31453   8.904   1.062   1.997  0.0763 -0.0211 -0.0102
12600W        W31454  13.480   2.369   2.724  0.0501 -0.0978 -0.4947
12601W        W31455   1.687  13.486   3.831  0.0615 -0.1110 -0.1595
12602W        W31456   1.209   4.304   0.634 -0.0913 -0.0405  0.0301
12603W        W31457   6.192   0.711  12.481 -0.3355  0.0319  0.1862
12604W        W31458  10.440  14.345  12.493  0.0266 -0.0856 -0.4254
12605W        W31459  12.286   0.969   4.815  0.3327  0.2091 -0.0985
12606W        W31460  11.692   6.259  14.110  0.2937  0.0592 -0.1775
12607W        W31461   6.940   6.748  14.865 -0.1578  0.1700  0.0869
12608W        W31462   9.277  11.686  13.649  0.0126 -0.2945  0.0727
12609W        W31463   5.183  11.719  14.655 -0.3191 -0.0164  0.0061
12610W        W31464   1.589   4.083   3.078  0.0416  0.0446  0.1380
12611W        W31465   8.151   4.591  14.371 -0.2121 -0.2311  0.2160
12612W        W31466   8.138   7.850   0.185 -0.4546  0.1940 -0.0096
12613W        W31467   8.131  10.328   4.003  0.1960 -0.0377  0.4045
12614W        W31468  14.232  14.915  13.101 -0.0158 -0.1876  0.1728
12615W        W31469  13.513  13.789   4.463  0.0538  0.1255  0.4827
12616W        W31470   0.179   5.436  16.822  0.0592 -0.2134 -0.2182
12617W        W31471   7.530  14.094   4.469 -0.0027 -0.2001  0.1241
12618W        W31472   2.970   1.838   6.062 -0.1340  0.1845  0.0298
12619W        W31473  16.977   5.900  15.781 -0.2626  0.1369  0.1017
12620W        W31474   6.380  13.148  13.436 -0.1984 -0.1325 -0.1465
12621W        W31475  15.804   8.107   0.607  0.1271 -0.2439 -0.4892
12622W        W31476   0.380   7.502  14.643 -0.0704 -0.0804  0.0121
12623W        W31477  11.038   8.483   3.532  0.3498 -0.0099 -0.1964
12624W        W31478   2.857   5.984   1.206 -0.2310  0.1555 -0.0324
12625W        W31479  15.919   1.167   2.239  0.0557 -0.2165  0.1961
12626W        W31480  13.066  10.917   2.737 -0.1470  0.0770  0.1625
12627W        W31481   1.481  13.631   3.362 -0.0535 -0.1269  0.2137
12628W        W31482   0.722   7.228   0.932  0.3532  0.1388 -0.2018
12629W        W31483   3.982  13.158   1.046  0.1090 -0.2298  0.3418
12630W        W31484  15.513   8.816  13.279 -0.0274 -0.0099  0.0893
12631W        W31485  14.726   6.916  16.755 -0.0888  0.4423 -0.2566
12632W        W31486   0.713   0.461   5.182  0.0233 -0.1880  0.2933
12633W        W31487   8.061   8.332   3.172 -0.1460 -0.3013 -0.2204
12634W        W31488  15.020  16.536   0.069  0.0370  0.0335  0.0379
12635W        W31489  10.213  15.883   1.462 -0.0048  0.1459 -0.1857
12636W        W31490   9.860   0.926  12.555 -0.2771 -0.1802 -0.3261
12637W        W31491  16.178  12.410  16.840  0.0873  0.2067 -0.1363
12638W        W31492   4.187   8.718  14.759  0.0027  0.1373  0.0559
12639W        W31493   3.199   2.442  14.537  0.0888  0.2973 -0.1988
12640W        W31494   8.686  12.920  13.707  0.1713  0.2018  0.1646
12641W        W31495   1.700  11.129   2.891  0.1052  0.0012  0.1885
12642W        W31496   8.974  12.962   0.919  0.0708 -0.2973  0.2327
12643W        W31497   0.988   3.574  16.784 -0.2297  0.5057 -0.0373
12644W        W31498  10.545   8.905  15.436  0.0380 -0.0621  0.4568
12645W        W31499   3.097   6.153   2.420  0.0342  0.1487  0.1233
12646W        W31500  16.146   0.777  15.711 -0.0801 -0.0379 -0.3473
12647W        W31501  13.329   2.015   0.817 -0.2587 -0.0069 -0.1987
12648W        W31502  16.899   3.030  12.993 -0.2711  0.2484  0.1053
12649W        W31503  15.546  13.122  13.939  0.2138 -0.1726 -0.6292
12650W        W31504   0.965  13.596   0.238 -0.3248 -0.0745 -0.1473
12651W        W31505  17.482  16.811  14.810 -0.0275 -0.0683 -0.0255
12652W        W31506   6.831   1.886  13.639  0.0289 -0.0221 -0.2999
12653W        W31507   1.261  17.219  14.264  0.1001 -0.0696  0.1351
12654W        W31508   3.974   6.165   4.248  0.0856  0.1338 -0.0832
12655W        W31509  11.330  10.587   4.617  0.0812 -0.0616 -0.4496
12656W        W31510   8.649  14.233  13.494 -0.2837 -0.1068  0.1306
12657W        W31511  11.014  16.894  14.351  0.1324 -0.2040 -0.0133
12658W        W31512  14.885   0.808  17.169 -0.0745 -0.1282  0.3190
12659W        W31513   9.859   1.726   0.458 -0.0037 -0.3466 -0.1022
12660W        W31514  14.186   1.147   1.611 -0.0773 -0.1228  0.2116
12661W        W31515  14.324  17.138  17.025 -0.3443 -0.0687  0.0445
12662W        W31516   1.920  13.613   5.004 -0.2470  0.1763 -0.3281
12663W        W31517   6.583   0.619  14.967  0.1697  0.1337 -0.0760
12664W        W31518  17.078  13.905   3.194  0.2329 -0.0784  0.0841
12665W        W31519   0.340  11.355   0.300 -0.1947 -0.1239 -0.1053
12666W        W31520   8.910  16.952   3.557 -0.4083 -0.1888  0.1406
12667W        W31521   6.327   7.665  15.649 -0.1030  0.1094 -0.0400
12668W        W31522   8.738  11.670   2.535  0.1128  0.0236 -0.1367
12669W        W31523   8.005   1.352   4.714 -0.0733 -0.1358 -0.1627
12670W        W31524  16.974   6.462   2.607  0.0774  0.1563 -0.2963
12671W        W31525   9.547   9.225   1.001 -0.0317  0.0349 -0.2633
12672W        W31526   4.299   6.677  16.930 -0.1768 -0.0514  0.0221
12673W        W31527  14.276  15.950   4.509 -0.0862 -0.1039 -0.0397
12674W        W31528  11.253   6.459   2.741  0.4724 -0.0079 -0.3350
12675W        W31529  12.382  16.433  15.465 -0.1436  0.0792  0.1218
12676W        W31530  17.382  11.735  14.047 -0.1608  0.1813  0.0247
12677W        W31531   6.516  13.776  17.073 -0.1657 -0.0367 -0.0030
12678W        W31532  15.440  14.162  14.780 -0.0575 -0.1278  0.0432
12679W        W31533   8.074   3.664   4.261 -0.2873  0.0297 -0.0888
12680W        W31534   2.247   8.115  13.404  0.1864  0.2492 -0.2519
12681W        W31535  14.485   7.501  15.811 -0.1527  0.0165 -0.2137
12682W        W31536  13.486   8.842   5.146 -0.4317  0.0957 -0.1145
12683W        W31537   6.166   2.098   0.683  0.0134  0.1478 -0.1581
12684W        W31538   1.336   1.148   3.808 -0.0115 -0.0893 -0.0056
12685W        W31539   3.623   5.293  13.415 -0.0164  0.3640 -0.1104
12686W        W31540   2.453   6.420  16.801  0.2103 -0.0610 -0.0305
12687W        W31541   9.865  16.066  16.891 -0.0663  0.2356  0.0472
12688W        W31542  14.223  14.964   3.956  0.0672 -0.2968  0.1106
12689W        W31543   5.411   1.821   1.870 -0.1313  0.0274 -0.1009
12690W        W31544  13.273   7.668   1.099  0.0309 -0.0892  0.2052
12691W        W31545  17.304  14.121  16.264  0.1478  0.0197  0.0190
12692W        W31546   7.109   7.491   0.643  0.0625  0.1082 -0.1364
12693W        W31547  14.906  16.917   4.693  0.2205 -0.0956  0.1201
12694W        W31548  11.531   4.638   4.154  0.2232 -0.3896 -0.0389
12695W        W31549  10.777  11.504  14.479  0.1821  0.1049  0.1969
12696W        W31550   8.533  17.152  12.781 -0.2635 -0.0967  0.1659
12697W        W31551  13.343   7.710   3.646  0.1564 -0.1506  0.0946
12698W        W31552  13.971  10.261  12.397  0.4037  0.0914 -0.0795
12699W        W31553  13.273   7.856  16.905  0.1481  0.2939 -0.0677
12700W        W31554  17.117   2.919  16.402 -0.0065 -0.0577 -0.1285
12701W        W31555   8.062  12.169  16.880  0.1488 -0.1481 -0.2575
12702W        W31556  16.375  13.102  15.149  0.1816  0.0963  0.0568
12703W        W31557  17.159   7.863  12.141  0.0091 -0.2002  0.2012
12704W        W31558   8.937  15.691   5.070 -0.0445 -0.2271 -0.2569
12705W        W31559  14.148  11.416  13.075 -0.2146  0.1478 -0.1008
12706W        W31560   2.757  13.498   1.278 -0.0389 -0.0030 -0.1977
12707W        W31561   3.148   8.257   1.533  0.0499 -0.1637 -0.0244
12708W        W31562   1.008  10.988   0.637 -0.1028  0.0288  0.2227
12709W        W31563   9.653  14.192  15.365  0.0423 -0.1064 -0.0781
12710W        W31564  12.722   4.262   5.369  0.1802 -0.0162  0.2199
12711W        W31565   6.016   9.591  13.759 -0.0945  0.0131 -0.1575
12712W        W31566  13.287  14.456   1.375 -0.0832 -0.1256 -0.2777
12713W        W31567   5.936   5.096   1.677  0.0370 -0.2554  0.0352
12714W        W31568   4.910  10.174  14.322  0.4088  0.0523  0.2463
12715W        W31569  14.803   2.858  15.305  0.1058 -0.2661  0.2656
12716W        W31570  10.948  10.961  13.451  0.3635 -0.6107  0.1002
12717W        W31571   2.170   7.731   0.101  0.0950 -0.0500  0.3240
12718W        W31572   4.281   9.541   1.125 -0.1360  0.1354 -0.0012
12719W        W31573   3.776   1.160   5.092 -0.0109  0.3529  0.0703
12720W        W31574   6.330  10.300   3.523  0.2970 -0.0945 -0.1654
12721W        W31575   3.397   7.879  12.539  0.3200  0.0504  0.0719
12722W        W31576  11.438  16.867  14.118 -0.0769 -0.2496 -0.1605
12723W        W31577  14.424  13.751   2.472  0.3450  0.3161 -0.0366
12724W        W31578   8.309  16.956   4.719  0.2552 -0.0859 -0.0729
12725W        W31579   4.138   9.610   0.092  0.2961 -0.0915 -0.2492
12726W        W31580   8.894   0.509   2.802 -0.1684 -0.3144  0.0051
12727W        W31581   5.008  15.668   1.092  0.2715 -0.0879  0.1579
12728W        W31582   5.522  12.160   1.338 -0.0495  0.1467  0.0075
12729W        W31583   2.039  17.214   4.361  0.3688  0.0418  0.0798
12730W        W31584   6.096   6.468  16.243 -0.2352 -0.2424  0.0933
12731W        W31585   2.519  10.487   1.672  0.0005 -0.1170  0.1929
12732W        W31586  13.535  15.453   0.356 -0.1331 -0.0144  0.3517
12733W        W31587   3.410   4.626  15.795 -0.1233  0.3240 -0.3211
12734W        W31588   9.129  14.299  13.489 -0.1380 -0.3036 -0.2759
12735W        W31589  13.467  10.142   2.912 -0.0201 -0.1541 -0.0367
12736W        W31590  17.112   8.784  15.330 -0.2400 -0.1685 -0.0681
12737W        W31591  12.192  15.830  14.020 -0.1061 -0.2657  0.0978
12738W        W31592  10.730  16.631  13.918 -0.0646 -0.0581  0.2845
12739W        W31593   7.726   4.125  15.553 -0.1055 -0.0351  0.2981
12740W        W31594  14.550  13.374  14.067 -0.0072  0.0539  0.0505
12741W        W31595  17.069   4.423   0.707  0.0898 -0.1876  0.3093
12742W        W31596  14.298   8.530   2.137 -0.0769 -0.0792  0.1914
12743W        W31597   3.978  15.089   4.194  0.4790 -0.0742 -0.1190
12744W        W31598   7.486   9.404   2.266 -0.0799  0.1211 -0.0737
12745W        W31599  14.566  12.696   1.515  0.0753  0.1602 -0.0168
12746W        W31600   7.938  15.322   3.094  0.1214  0.2089 -0.2830
12747W        W31601   6.778   3.928   1.226  0.0341  0.1625  0.1646
12748W        W31602   0.044   9.523  16.449 -0.0285 -0.0683 -0.1170
12749W        W31603  17.524   0.809  16.888 -0.0815 -0.0403  0.2776
12750W        W31604  16.679   8.521  14.768 -0.2620 -0.1184  0.2194
12751W        W31605  13.878   1.552  13.007 -0.0038  0.2405  0.0022
12752W        W31606  13.475   5.440   3.574 -0.0610 -0.1509  0.2116
12753W        W31607   6.244  11.157  15.356  0.0218 -0.2005 -0.4922
12754W        W31608  12.367  16.626   0.869 -0.4871  0.1066 -0.1366
12755W        W31609   9.192   3.392  17.184  0.1345  0.1783 -0.1123
12756W        W31610  16.059   1.894   1.026  0.0491 -0.1461 -0.1736
12757W        W31611   1.740  14.810   3.395  0.1229  0.0373  0.0729
12758W        W31612  16.507  16.910   4.337  0.0847 -0.2543  0.1970
12759W        W31613  15.283   4.677   3.924  0.0874 -0.0045 -0.2445
12760W        W31614   3.207   6.997  17.227  0.0747 -0.1281 -0.1913
12761W        W31615   9.256  16.439  15.776 -0.3570  0.2028 -0.0950
12762W        W31616   8.272   9.884  14.122  0.2306  0.2409 -0.0164
12763W        W31617  12.178   1.768   2.368 -0.1180  0.0712  0.0986
12764W        W31618   6.589  17.576   3.693 -0.1274  0.2192 -0.0598
12765W        W31619  15.866   7.588  13.698  0.0664  0.1601 -0.2345
12766W        W31620  16.675   8.346  13.849  0.0001 -0.1335  0.1207
12767W        W31621  12.239   0.561   5.180 -0.0336 -0.2394 -0.0601
12768W        W31622  14.452  13.008   1.004  0.0886 -0.0663 -0.2306
12769W        W31623   0.159   5.096  14.638 -0.0227 -0.1996  0.0198
12770W        W31624  15.874  11.280   3.000 -0.0590 -0.1508 -0.0800
12771W        W31625   8.117   2.520   3.127  0.1665  0.1630 -0.2726
12772W        W31626  13.165  15.734  16.726 -0.1753 -0.1215  0.2418
12773W        W31627   5.709  13.874  16.662 -0.0746 -0.1159  0.4578
12774W        W31628   0.232  12.266   0.356  0.0789 -0.0701 -0.1427
12775W        W31629   6.515  14.763  16.854 -0.5265  0.0205 -0.1359
12776W        W31630   8.635   7.691  13.183 -0.0091  0.0859 -0.0559
12777W        W31631   8.727  10.045   4.050  0.3343  0.0267  0.0404
12778W        W31632  13.185   9.145  12.580 -0.1031 -0.0938 -0.1371
12779W        W31633   2.277   3.154  12.677  0.1044 -0.0968  0.0068
12780W        W31634   3.132   7.606  15.395 -0.0759 -0.1583  0.3397
12781W        W31635  15.081  17.008  17.113  0.1922  0.0322 -0.0409
12782W        W31636   2.160  12.021  12.441 -0.3023  0.0101 -0.0104
12783W        W31637   4.948   9.731  15.938  0.1423 -0.2162 -0.2287
12784W        W31638  14.591  16.886   1.733  0.1817 -0.0437  0.2128
12785W        W31639   8.537  11.595   3.627 -0.1146 -0.0640 -0.0665
12786W        W31640  16.871   4.138   4.823  0.2231  0.1465  0.3208
12787W        W31641   4.130   2.248   0.531 -0.0244 -0.0636  0.0803
12788W        W31642  12.728   3.337   5.649  0.2393 -0.0076 -0.1440
12789W        W31643   7.939   2.078   2.905 -0.0432 -0.0061 -0.1924
12790W        W31644  13.129   2.267  14.464 -0.1030 -0.1954  0.0350
12791W        W31645  12.149  12.096   0.787 -0.0610 -0.1143  0.0471
12792W        W31646  16.506  15.975   3.481 -0.0125 -0.1840 -0.2294
12793W        W31647  16.790   8.215  17.141 -0.2575 -0.2801 -0.0071
12794W        W31648   3.710   8.248   2.347 -0.0815  0.1296 -0.1506
12795W        W31649  13.918   0.074  16.319 -0.1986  0.1243 -0.0954
12796W        W31650   4.814   6.131   3.747 -0.0060  0.3557 -0.5000
12797W        W31651  12.571   4.215   0.718  0.0290 -0.0996  0.2871
12798W        W31652  12.767  15.108   2.905 -0.1400 -0.1661  0.0139
12799W        W31653  14.523   7.933   6.455  0.1896  0.0194 -0.0329
12800W        W31654   5.928   5.591   5.235  0.2400  0.3046  0.2866
12801W        W31655  12.556  14.510  16.744 -0.3660 -0.6471  0.0757
12802W        W31656   1.592   6.137   0.850  0.2074  0.3154 -0.3043
12803W        W31657   9.310   4.234  15.790  0.1229 -0.2140 -0.0686
12804W        W31658   8.574   4.815   3.046  0.2432 -0.2742 -0.1973
12805W        W31659  17.594  12.460  12.294  0.3611 -0.1175 -0.0061
12806W        W31660   3.446   1.960   3.710 -0.1196  0.0632 -0.1458
12807W        W31661  10.899   1.315   1.774 -0.3879  0.0512 -0.2183
12808W        W31662  13.833  17.165   3.167  0.0541  0.0713  0.0363
12809W        W31663  13.841  15.190  14.349  0.0771 -0.2123  0.0538
12810W        W31664   4.509  14.370   4.374 -0.0876  0.0898  0.4107
12811W        W31665   3.857  13.111  14.705  0.3856 -0.2005  0.2645
12812W        W31666  15.994   1.117  15.405 -0.0841 -0.2003 -0.1921
12813W        W31667   6.930   3.042   2.779 -0.0425 -0.0436 -0.1041
12814W        W31668   8.406  12.613  16.768  0.3362 -0.2224  0.0054
12815W        W31669  10.704  10.264   0.507 -0.2559 -0.0735 -0.1727
12816W        W31670   9.082  15.310  17.096  0.2682  0.0597  0.0065
12817W        W31671   8.764  15.655   1.495  0.1214  0.1364  0.0819
12818W        W31672   8.583   6.056   0.327  0.3618  0.0732 -0.1447
12819W        W31673   1.009   3.126   0.897  0.3006 -0.1634 -0.1969
12820W        W31674  15.190  14.197   4.027 -0.1879 -0.0426 -0.1594
12821W        W31675   1.017   3.817   2.569  0.1927  0.0306  0.4266
12822W        W31676  14.840   6.514   5.134 -0.3419 -0.0789 -0.1737
12823W        W31677   9.870  10.676  14.260  0.1761 -0.0619 -0.0397
12824W        W31678  14.093  14.043   4.329 -0.0346  0.0472 -0.3372
12825W        W31679   8.767   1.732   2.719  0.2135 -0.1026 -0.3604
12826W        W31680  14.975   5.043   1.706  0.2145  0.0726  0.1166
12827W        W31681   5.745  14.424   1.199  0.0285 -0.0591  0.0578
12828W        W31682   4.618   7.580  16.702 -0.3856  0.0497  0.2295
12829W        W31683   9.690   0.813   2.598  0.2887 -0.1681  0.0622
12830W        W31684   8.931  11.378   1.249  0.1490 -0.3208  0.0923
12831W        W31685   9.866   6.561   3.583  0.3303  0.0351  0.1301
12832W        W31686  16.666   4.477  15.872  0.0140  0.0883  0.2062
12833W        W31687  16.630  11.681   2.673 -0.2039 -0.1139  0.2145
12834W        W31688   5.819  10.388  15.165  0.1164  0.1747  0.1680
12835W        W31689  13.867   3.589   4.348 -0.0015  0.0442  0.0729
12836W        W31690   5.713   8.883  14.416  0.0147 -0.0582 -0.0530
12837W        W31691   9.513   0.530  13.311  0.0576  0.0987 -0.3095
12838W        W31692   0.880  10.628   0.213 -0.0386 -0.0928  0.3007
12839W        W31693   4.218  10.082  13.305  0.2459  0.0763  0.0829
12840W        W31694  16.599   5.653   1.899  0.3891 -0.1624  0.2541
12841W        W31695  12.742   9.238  12.748 -0.1881  0.1196 -0.1234
12842W        W31696   2.285   0.157   0.325  0.0889 -0.2156 -0.0418
12843W        W31697   2.004   4.493   4.131 -0.2927 -0.2836 -0.1238
12844W        W31698  11.236   1.132  12.272  0.0706  0.0979  0.0742
12845W        W31699   7.438   4.584   1.431  0.0368 -0.2842  0.2281
12846W        W31700  13.299  13.141  16.063 -0.4209 -0.3207 -0.2196
12847W        W31701   6.851  16.821   1.414 -0.2546 -0.0828 -0.0767
12848W        W31702   4.517  12.610  13.357  0.0894  0.2049  0.0424
12849W        W31703  16.776   0.240  12.247 -0.2309 -0.0462  0.0805
12850W        W31704   3.318   6.801   4.311 -0.0453 -0.1966 -0.0145
12851W        W31705   0.427   4.365   3.129  0.0789  0.0280  0.1248
12852W        W31706   1.722   7.936  13.646  0.0816  0.2980  0.1990
12853W        W31707  13.062  10.451   2.913  0.0854 -0.0730 -0.3004
12854W        W31708  16.566   2.832   0.396 -0.1502 -0.3380  0.2849
12855W        W31709  10.342   7.525  16.490  0.1422  0.1326 -0.0609
12856W        W31710  15.446   0.725   4.728 -0.1792  0.1194 -0.2620
12857W        W31711  15.429  10.166  15.509 -0.1391 -0.0144 -0.1105
12858W        W31712   8.607  10.390   1.614  0.2317 -0.2527 -0.0108
12859W        W31713   6.963   8.368   1.907 -0.0348  0.0633 -0.1409
12860W        W31714  12.615   1.989   2.497 -0.1242  0.1664  0.1340
12861W        W31715  11.872  14.471  14.840  0.3332  0.0422  0.1196
12862W        W31716  10.844  15.799  12.570  0.0272  0.1399  0.0071
12863W        W31717   6.182   6.133   1.240  0.2875  0.2120  0.0626
12864W        W31718  13.037   3.358  14.120  0.2579 -0.0412 -0.3849
12865W        W31719  16.126   9.347   2.354 -0.0245 -0.1107 -0.1512
12866W        W31720  12.164   1.621  14.680 -0.2876  0.1272  0.1419
12867W        W31721  14.946  14.351  13.622 -0.0582  0.0897  0.1538
12868W        W31722   0.718  13.699  15.508 -0.1745  0.0061 -0.0346
12869W        W31723   5.212  13.557  15.823  0.2071 -0.0238 -0.0951
12870W        W31724  14.821   9.290  14.710 -0.1693 -0.0174 -0.0668
12871W        W31725   8.499  10.509  12.228  0.1030 -0.1098  0.0870
12872W        W31726  15.853  10.610  17.034  0.1052  0.0956 -0.3717
12873W        W31727  17.126  11.067   0.672 -0.0424 -0.4170  0.1380
12874W        W31728   4.517   3.199  14.183 -0.0844  0.0982 -0.1670
12875W        W31729  15.207  15.036  15.292  0.2545  0.1747 -0.0632
12876W        W31730  15.000  15.740  15.992  0.0599  0.1170 -0.1442
12877W        W31731  16.271   6.444   0.291 -0.1345 -0.4285  0.1133
12878W        W31732  14.233   3.106  12.061  0.2269 -0.2256 -0.1810
12879W        W31733   0.277   7.270  12.404  0.2138 -0.0591  0.0214
12880W        W31734   5.657  13.992  15.187  0.1125 -0.1445  0.0002
12881W        W31735   4.789   1.599   0.316  0.2530  0.1208  0.3072
12882W        W31736   6.633  17.560   2.106  0.1891  0.0064  0.0086
12883W        W31737   4.937   1.996   2.555  0.0009 -0.1320 -0.3045
12884W        W31738  10.683  13.102  13.599 -0.0417  0.1660  0.0410
12885W        W31739  10.308   1.512   1.170  0.0278 -0.0254  0.3520
12886W        W31740   8.503  15.846   3.325 -0.1699 -0.0385 -0.1565
12887W        W31741   3.587   7.445  12.253 -0.1259  0.1973  0.1138
12888W        W31742   5.492  10.662  13.221 -0.0997 -0.1846  0.2933
12889W        W31743   3.207   0.790  16.053  0.1786  0.0441  0.0568
12890W        W31744   5.354  12.886  13.637 -0.3460  0.1430  0.0827
12891W        W31745   7.508  10.049  13.008  0.0412  0.1301  0.0787
12892W        W31746   8.275  16.245  12.281  0.2749 -0.4190  0.1212
12893W        W31747  14.366   1.633   2.635 -0.1269  0.2060  0.0313
12894W        W31748   9.811  11.003  15.791  0.0064  0.1457  0.1747
12895W        W31749  11.053   8.870  14.564  0.0395  0.1282  0.2524
12896W        W31750   0.866   7.310  11.739  0.0798  0.0203  0.3670
12897W        W31751  15.566  14.744   4.953  0.3872 -0.1446  0.0854
12898W        W31752  15.211  10.763  13.029 -0.1133  0.0810 -0.2893
12899W        W31753  15.250   4.024  13.279 -0.0906 -0.1875  0.2807
12900W        W31754   8.950   3.998  14.615 -0.0650 -0.1062 -0.1335
12901W        W31755   3.981   3.233  15.494 -0.1626 -0.3200 -0.4590
12902W        W31756  14.591   5.496  12.044  0.0830 -0.0412  0.1584
12903W        W31757  14.781  13.442  13.646  0.0292 -0.0336 -0.1391
12904W        W31758   5.305  14.500  16.369 -0.0192 -0.0504  0.2500
12905W        W31759  12.832   1.271   3.557 -0.0262 -0.1939  0.2085
12906W        W31760   0.985   9.756  15.475 -0.0671 -0.1425 -0.2132
12907W        W31761   0.895   6.501  12.675  0.1313 -0.3669  0.1372
12908W        W31762   5.123  12.625   0.076  0.1601 -0.1290  0.0381
12909W        W31763   2.353   7.668   0.641 -0.0310 -0.0795 -0.0843
12910W        W31764  11.080   5.508   2.877 -0.0922  0.3367 -0.0267
12911W        W31765   9.183   1.440  17.195 -0.0803 -0.1949 -0.1481
12912W        W31766   6.575   4.504  11.946 -0.3906  0.0355 -0.1125
12913W        W31767   5.625   4.273  13.618 -0.1103 -0.1332 -0.2883
12914W        W31768  12.131   1.090  13.734 -0.2675 -0.1305  0.1192
12915W        W31769  15.577  12.134  11.204 -0.1675  0.1071 -0.3432
12916W        W31770  12.265   4.259  14.685  0.2796 -0.0019  0.4670
12917W        W31771   1.195  11.285  12.963  0.1760 -0.1269  0.2083
12918W        W31772   6.631   5.910   4.781  0.0284 -0.1902  0.0706
12919W        W31773  14.220   6.216   4.423 -0.2143 -0.2290  0.1568
12920W        W31774   0.653   6.968  12.739  0.0621 -0.1871  0.3518
12921W        W31775   5.096  13.950   3.893 -0.0085  0.2141 -0.1136
12922W        W31776   7.250   3.273  11.897  0.2940 -0.2928 -0.0019
12923W        W31777  10.738   2.710   3.002 -0.0427 -0.1256  0.2527
12924W        W31778   7.380   3.102   0.466 -0.0959  0.1487  0.4341
12925W        W31779  14.737   5.171   4.777 -0.1014 -0.0379 -0.1490
12926W        W31780   3.868   3.468  13.582  0.1745 -0.0094  0.0928
12927W        W31781   7.869   4.602   3.587  0.2464 -0.2861  0.1062
12928W        W31782   8.492   2.199  16.085  0.2347 -0.4719  0.1774
12929W        W31783   3.473  14.704  15.226 -0.0619 -0.0292 -0.0618
12930W        W31784  15.891  14.753  14.511  0.1611 -0.1903  0.1845
12931W        W31785   4.896  11.551   4.432  0.2285  0.0640  0.1574
12932W        W31786   8.392   7.107   1.980 -0.1712 -0.3390  0.0340
12933W        W31787   3.303  13.233  16.639  0.0194 -0.4676 -0.3457
12934W        W31788   5.083  14.938   2.451 -0.1273  0.0297 -0.1064
12935W        W31789   5.563  12.680  14.802  0.0059 -0.0360 -0.0273
12936W        W31790   1.435   6.268   0.342  0.3202  0.2141 -0.1387
12937W        W31791  15.134   3.820  16.451  0.3074  0.2017 -0.0098
12938W        W31792  10.212   0.448   4.591 -0.2540  0.1616 -0.0302
12939W        W31793  13.375  14.462  12.806 -0.2688  0.2741 -0.0802
12940W        W31794  15.532  16.882  14.262  0.1637 -0.1244 -0.1067
12941W        W31795   4.119   7.557   2.731 -0.0677  0.1663 -0.3182
12942W        W31796   1.030  15.185   0.351  0.1426  0.0612  0.1901
12943W        W31797   8.555  12.570  13.331 -0.1854 -0.1629  0.0326
12944W        W31798  16.259  10.286  12.699 -0.1628  0.1316  0.0902
12945W        W31799  13.265   4.167  14.774 -0.1983  0.1336  0.2911
12946W        W31800  14.567   2.587  12.521 -0.1028 -0.0698  0.3112
12947W        W31801  16.369  13.695  16.746  0.0394 -0.0897  0.5270
12948W        W31802   3.072   6.397   5.284 -0.2708  0.2310 -0.0336
12949W        W31803   7.812   7.163  12.675 -0.0060 -0.1364 -0.0871
12950W        W31804   7.605   9.207   4.296  0.0868 -0.1961  0.0684
12951W        W31805  13.818  15.483  15.499 -0.0356 -0.1701 -0.1284
12952W        W31806   0.745   0.868  15.360  0.0658 -0.2142 -0.0453
12953W        W31807  13.026  15.687  12.211  0.3686  0.0590  0.1739
12954W        W31808   3.464  14.865   3.518 -0.0215 -0.1073  0.0338
12955W        W31809   9.455  11.423  16.056 -0.1082 -0.1500 -0.1388
12956W        W31810  10.700   0.959   5.059 -0.1114  0.0769  0.0314
12957W        W31811   7.971  11.932  16.012 -0.1982  0.0449 -0.0408
12958W        W31812  12.919   3.091  12.729  0.0407 -0.3277  0.1526
12959W        W31813   6.704   5.970  12.164 -0.0279  0.2799  0.1281
12960W        W31814  11.726  13.332  14.024  0.2395  0.0476 -0.2204
12961W        W31815  17.276  15.749  13.166 -0.0090 -0.2231  0.3051
12962W        W31816   3.951   6.961  12.857 -0.1279  0.0299 -0.1623
12963W        W31817   4.330   8.178   1.731 -0.0515 -0.0423 -0.2999
12964W        W31818  11.334  13.563   2.494  0.1324  0.0731  0.0824
12965W        W31819   6.235   6.035  12.375 -0.1066 -0.0674 -0.0439
12966W        W31820  10.183   8.792   1.743 -0.0501 -0.0178  0.1429
12967W        W31821   2.810   6.008   0.364 -0.0038 -0.0510 -0.0084
12968W        W31822   9.570   8.558   3.952  0.0667 -0.2865 -0.0415
12969W        W31823   2.291  12.097   0.359 -0.1269 -0.2130 -0.3250
12970W        W31824  14.558  12.753  12.396  0.1231 -0.0154 -0.0181
12971W        W31825   3.406   4.910   4.402  0.0550  0.0056 -0.1547
12972W        W31826  10.472   1.056   4.280 -0.1481  0.1848  0.0999
12973W        W31827   8.767  11.218   3.284  0.0936 -0.0309  0.0934
12974W        W31828   6.900  14.306  14.605  0.2248 -0.0507 -0.2225
12975W        W31829   5.965   4.329   2.830 -0.0594 -0.0305  0.1493
12976W        W31830  11.934   3.061  16.873 -0.1047 -0.3426 -0.0986
12977W        W31831   0.647   9.822  11.972  0.2090 -0.0961 -0.1859
12978W        W31832   5.813   7.008  15.694 -0.2489 -0.1877 -0.1124
12979W        W31833  17.225   9.806   4.682 -0.2206 -0.0075 -0.2200
12980W        W31834   9.831  14.426   1.381 -0.1597  0.1397 -0.2850
12981W        W31835   8.647   7.764   2.318 -0.0493  0.2599 -0.2062
12982W        W31836  16.098  11.049   0.599 -0.3633 -0.3311  0.1075
12983W        W31837   9.470  15.236  15.283  0.1531 -0.1200  0.2205
12984W        W31838   8.646   9.217   1.223  0.0127 -0.1879 -0.3164
12985W        W31839   5.508   2.697   4.730  0.2286  0.1982  0.2347
12986W        W31840  10.620   9.808  13.804  0.0985 -0.0247  0.2210
12987W        W31841   0.069   9.969   4.256  0.0920 -0.0333 -0.5895
12988W        W31842  12.392  12.070  12.682  0.1184  0.0539 -0.2936
12989W        W31843   7.971  10.264  13.378  0.1395  0.0210 -0.1280
12990W        W31844   1.263  12.396   4.349 -0.0567 -0.3072  0.0317
12991W        W31845  15.407   1.245   4.561  0.0950  0.2009 -0.3594
12992W        W31846  17.292   7.369  13.172 -0.2510  0.1785 -0.3717
12993W        W31847   7.054  14.739   5.056 -0.2112  0.3340 -0.5135
12994W        W31848   2.183   4.742  15.857  0.4542 -0.3045  0.0840
12995W        W31849  11.816  15.635   0.761  0.2078  0.3147  0.1823
12996W        W31850   9.790   0.328  16.187 -0.0904  0.2459  0.0260
12997W        W31851  12.091  12.590   2.356  0.1652 -0.2578  0.1777
12998W        W31852  12.721  14.075  12.731 -0.0340  0.1961  0.1652
12999W        W31853   6.117   9.349   3.697 -0.0646 -0.1317  0.0142
13000W        W31854  15.754   0.598  13.315 -0.1973  0.0301 -0.0494
13001W        W31855   3.053   6.493   2.090  0.1941  0.1403  0.1127
13002W        W31856   4.122  13.827   5.037 -0.1327 -0.0592  0.1278
13003W        W31857   3.903   0.263  15.660 -0.2491 -0.2430  0.3660
13004W        W31858   5.729  10.267   0.968 -0.1151 -0.0868  0.0048
13005W        W31859   8.330   7.368  13.458  0.0555  0.0019 -0.1834
13006W        W31860   6.768   3.428  16.336 -0.0380  0.2198 -0.0697
13007W        W31861  12.662   3.526  16.195 -0.0692  0.1363  0.0971
13008W        W31862   6.773  12.617  14.139  0.1431 -0.2032  0.1185
13009W        W31863   0.423   0.704  16.987 -0.4261 -0.2334 -0.1943
13010W        W31864   4.224  13.759  16.449 -0.1414  0.0071 -0.0207
13011W        W31865  13.322   5.207  14.521  0.3071  0.1389  0.2153
13012W        W31866  15.094  10.516  13.886 -0.0322  0.4146 -0.2382
13013W        W31867  15.033  13.649   0.721  0.0673 -0.1070 -0.0538
13014W        W31868   0.194   1.147   1.850 -0.1251  0.1291  0.2007
13015W        W31869   0.165  14.963  12.788  0.2749  0.1420  0.3252
13016W        W31870   2.151   4.890  13.178  0.2116 -0.0163 -0.1082
13017W        W31871   9.131   6.449   2.461 -0.2210  0.4005  0.0665
13018W        W31872   3.759   8.586  17.175  0.0315  0.1089  0.0622
13019W        W31873   2.078  15.356  15.389 -0.0377  0.1770  0.0114
13020W        W31874  14.947  10.498   2.009 -0.2720  0.0886 -0.0478
13021W        W31875  10.994   5.552   1.385  0.0671  0.1266 -0.2466
13022W        W31876   7.794   0.542   4.576 -0.0020  0.1299  0.0245
13023W        W31877   6.382   0.539   4.965 -0.0518 -0.1895  0.0977
13024W        W31878   1.403   7.274  16.225  0.0103 -0.1642 -0.0669
13025W        W31879   4.996   2.699  15.931  0.0506  0.0631  0.2876
13026W        W31880  14.728   8.889  15.327  0.1938  0.2406  0.1759
13027W        W31881   9.314   2.773   1.595 -0.1871  0.0077  0.1645
13028W        W31882  16.451   8.894   0.608 -0.1570 -0.1089  0.0595
13029W        W31883   3.482   5.714   3.228 -0.1320 -0.0305 -0.2193
13030W        W31884   8.861  14.151   1.650 -0.1663 -0.5387 -0.3666
13031W        W31885   2.538   9.317  15.662 -0.1114 -0.1535  0.1528
13032W        W31886  14.352  14.386  14.852  0.0062  0.0583 -0.2347
13033W        W31887  12.916  10.404  12.201  0.2148  0.2381 -0.1217
13034W        W31888   4.376  16.621   4.437  0.0578  0.0843  0.2196
13035W        W31889   9.450   5.438   2.295  0.0583 -0.0427 -0.2534
13036W        W31890   3.455   1.469  16.356 -0.1161 -0.0028  0.1201
13037W        W31891  10.399   9.511   3.438 -0.0365  0.2012  0.2071
13038W        W31892   2.206   5.220  12.861 -0.1568  0.0418  0.0819
13039W        W31893  14.398   6.239  13.349  0.0484 -0.0192 -0.1881
13040W        W31894   3.367  17.258  15.484 -0.3576  0.0390  0.3464
13041W        W31895  15.408   7.881  15.021  0.1311 -0.2433  0.1346
13042W        W31896   4.858   3.996  12.092  0.1022  0.2499 -0.1770
13043W        W31897  16.742   0.274   3.557 -0.2289  0.0949 -0.1951
13044W        W31898  13.317   0.448   1.944 -0.0854  0.1295  0.2373
13045W        W31899  12.315   4.552  12.399 -0.2432 -0.0769 -0.0286
13046W        W31900   1.608   1.586   3.929  0.0554  0.1625 -0.1405
13047W        W31901   9.432  10.368  15.782  0.1642 -0.2780 -0.0967
13048W        W31902  13.700   4.800  16.969  0.1192 -0.2170  0.2375
13049W        W31903  14.970   8.293  12.440  0.2966  0.0462  0.1465
13050W        W31904   5.623   4.909  15.321 -0.0344  0.1913  0.1523
13051W        W31905  12.574   4.336   1.261  0.2058  0.2945  0.2965
13052W        W31906  12.422   8.293   2.026  0.2413  0.0093 -0.2785
13053W        W31907   7.491   8.686  13.895  0.1218  0.0444  0.0968
13054W        W31908  16.894  14.782   3.090 -0.0751  0.2486 -0.1064
13055W        W31909  12.055   6.517   4.818 -0.0079  0.0721 -0.0384
13056W        W31910  13.223  13.952  13.497 -0.1980 -0.0996 -0.0808
13057W        W31911  13.537   7.335  14.213 -0.0151 -0.0647  0.1124
13058W        W31912   0.254  10.560   0.765 -0.0086 -0.0498 -0.0450
13059W        W31913   8.519   3.442   3.800 -0.1461  0.1199 -0.2492
13060W        W31914  10.993   0.365  12.949  0.2872 -0.1722  0.1069
13061W        W31915  17.324  12.585   1.296 -0.0898  0.2090 -0.0329
13062W        W31916   1.119  12.936  12.692  0.1830  0.1137 -0.0971
13063W        W31917   4.281  15.963  14.205 -0.1398  0.2392 -0.1520
13064W        W31918  15.390  12.684   1.219 -0.3826 -0.1036 -0.2349
13065W        W31919  15.895   8.748  16.423  0.1243  0.0120 -0.1730
13066W        W31920  11.190  13.808  15.183  0.1104 -0.0163 -0.3703
13067W        W31921  17.230  13.486   3.213  0.0279 -0.2264  0.0834
13068W        W31922   4.185  10.915   3.914  0.0434  0.0704  0.1804
13069W        W31923   4.381  15.169  11.761  0.1834  0.0175  0.0971
13070W        W31924  13.770  11.372   0.650 -0.2534  0.1649  0.0236
13071W        W31925   5.688   2.514  12.577 -0.3397  0.0534  0.3780
13072W        W31926   0.628  11.976  12.985  0.2275  0.2812  0.2114
13073W        W31927   6.920   8.458  16.083  0.1852  0.0571 -0.2554
13074W        W31928   8.965   8.904  16.688  0.1774 -0.3462 -0.1328
13075W        W31929  15.866  16.658   5.056  0.5044 -0.2787 -0.0624
13076W        W31930   5.896  13.650   3.902 -0.0770  0.1654  0.0313
13077W        W31931   1.115   0.589  14.087 -0.1552 -0.0983 -0.2063
13078W        W31932   1.160   0.375  13.676  0.1084 -0.4136 -0.0434
13079W        W31933  15.353  12.021   0.577 -0.0459  0.2659 -0.0018
13080W        W31934   9.832   0.425   0.442  0.0818  0.2798 -0.0737
13081W        W31935  10.272  16.062  12.537  0.0297  0.2202 -0.1324
13082W        W31936   4.294   1.872  17.229  0.1564 -0.0787  0.4536
13083W        W31937   0.218   6.639  16.706  0.1409 -0.0240  0.0241
13084W        W31938  12.613  14.354  14.363  0.1429  0.3025 -0.0053
13085W        W31939  10.022   7.750   4.103  0.0626  0.0428 -0.0200
13086W        W31940   7.201   3.715  12.523  0.0305 -0.0170 -0.1807
13087W        W31941   0.104   0.733  13.880  0.2543 -0.0158  0.3422
13088W        W31942   0.162  14.770   5.090  0.2940 -0.4621  0.0546
13089W        W31943   0.370  10.105   0.961 -0.1025  0.0161  0.1824
13090W        W31944  11.644  13.451   3.614  0.2807 -0.2679  0.2137
13091W        W31945  13.097   2.241  13.964 -0.0487 -0.0224  0.1970
13092W        W31946  17.238  13.541  16.942 -0.1603  0.0386 -0.1333
13093W        W31947   9.321   6.595  14.419 -0.0953 -0.0550  0.0342
13094W        W31948   5.506   8.413   4.725  0.1135  0.4469  0.0473
13095W        W31949  12.771   0.244   4.134  0.0385 -0.1662 -0.2989
13096W        W31950   6.197   8.946   4.483  0.1372  0.0258 -0.0104
13097W        W31951  11.768  14.764  13.562 -0.0562 -0.4012  0.0074
13098W        W31952   2.458   2.297   0.137 -0.1215  0.3288 -0.2209
13099W        W31953  16.377   3.185  15.343 -0.4118 -0.0069 -0.1745
13100W        W31954  16.701   1.435   0.700  0.0509  0.3418 -0.1499
13101W        W31955   8.040  10.639   1.689 -0.0651 -0.2021 -0.1440
13102W        W31956   1.141  16.391  16.491 -0.0491  0.2183  0.0123
13103W        W31957   4.468   1.317   4.695 -0.0268 -0.1574  0.0604
13104W        W31958   0.906   0.579  14.970  0.2344 -0.1549  0.2675
13105W        W31959  13.043   3.708   4.332  0.0256 -0.1705  0.0482
13106W        W31960   7.599  17.178   0.871 -0.3294  0.0635 -0.3476
13107W        W31961   1.627   6.068   4.215 -0.1037 -0.2329  0.1664
13108W        W31962  15.606   9.517   5.258 -0.2341 -0.1717 -0.1169
13109W        W31963   1.107   7.966   0.592  0.0758  0.1961 -0.4059
13110W        W31964   3.648  17.536   4.522 -0.3032  0.1541  0.1982
13111W        W31965  12.615   5.612  13.979 -0.2420 -0.1938  0.0889
13112W        W31966   7.983   3.519  14.674 -0.1202  0.1033 -0.2001
13113W        W31967   5.590  16.162  15.598 -0.0126  0.2370  0.0251
13114W        W31968  10.190   0.925   4.716  0.0801 -0.0147 -0.1278
13115W        W31969   7.487  16.884   4.153 -0.1399  0.1541 -0.1035
13116W        W31970   4.631  14.633  13.727  0.3581 -0.2642 -0.2516
13117W        W31971   8.242   8.654   2.315 -0.0706  0.1247  0.1972
13118W        W31972   3.501   7.522  14.543  0.2965  0.3311 -0.0065
13119W        W31973   0.129  13.068   2.528 -0.0847 -0.0705 -0.3101
13120W        W31974  16.824   4.021  15.863 -0.0150  0.2338 -0.3706
13121W        W31975   0.619   3.602   1.573  0.1515  0.1988 -0.0187
13122W        W31976  10.343  11.718  15.854  0.1539 -0.1029  0.1738
13123W        W31977  13.323  14.450   2.428  0.2186 -0.0395  0.0200
13124W        W31978   5.233   6.670   4.063  0.5640 -0.1795  0.0566
13125W        W31979   6.779   4.642   5.765 -0.1492  0.2157  0.2424
13126W        W31980   8.444  13.890  13.157 -0.1416  0.0760  0.2926
13127W        W31981  11.768   8.057  16.120 -0.1951 -0.0594 -0.0921
13128W        W31982  10.668  11.446   0.150 -0.0556  0.1439  0.0316
13129W        W31983  10.324  12.920  14.562  0.1863 -0.1829  0.0342
13130W        W31984   5.626  12.546  15.499  0.3313 -0.1337  0.1236
13131W        W31985   1.417  10.865  13.141  0.3446 -0.1660 -0.0938
13132W        W31986  14.956  12.023   1.088  0.0233  0.1833 -0.3037
13133W        W31987   3.740   3.602  16.655 -0.3327 -0.0776 -0.0389
13134W        W31988   8.082  15.000  16.990  0.0862  0.0277  0.3969
13135W        W31989  10.682   2.012   4.412  0.0918  0.1766 -0.2895
13136W        W31990   4.634   4.830  12.542  0.3848 -0.0408  0.3225
13137W        W31991  13.394   7.261   3.938  0.0131 -0.0170  0.2224
13138W        W31992   6.037   2.379  14.639  0.0488 -0.1162 -0.2505
13139W        W31993  10.715   5.414   4.287  0.2823  0.1233  0.0695
13140W        W31994   3.007  15.414  14.095  0.0560 -0.0890  0.0531
13141W        W31995  12.692   8.805  15.502  0.0391  0.0171 -0.2355
13142W        W31996  14.916   9.244   2.516 -0.0615  0.0590 -0.1572
13143W        W31997   6.369  15.749  13.492 -0.2198 -0.1649 -0.2476
13144W        W31998   0.299   1.844  14.425  0.0993  0.1304 -0.1127
13145W        W31999  13.065  17.468  14.459 -0.0408 -0.0964  0.2294
13146W        W32000  12.779   3.040   3.206  0.8152 -0.1133  0.3143
13147W        W32001   1.714  13.532  14.221  0.1221 -0.0461 -0.4471
13148W        W32002   3.407  14.939   1.824 -0.0061  0.1534 -0.1686
13149W        W32003  12.806   9.399  13.299  0.0047  0.4068 -0.2683
13150W        W32004   9.302  14.898  14.945  0.0256  0.1642  0.1987
13151W        W32005   7.158   4.071   4.327 -0.0545  0.3425  0.1951
13152W        W32006   4.229   4.929   4.865  0.0279  0.0485 -0.1651
13153W        W32007  12.223  13.266  14.958 -0.0222  0.0323 -0.0422
13154W        W32008  15.639   9.012   0.108 -0.0433 -0.3744  0.2733
13155W        W32009  15.202  16.868  12.354 -0.3668 -0.0985  0.2709
13156W        W32010   1.315  14.644  15.253  0.4193 -0.0035  0.0616
13157W        W32011  14.208   1.356  16.732  0.0021 -0.0363 -0.0569
13158W        W32012  14.070  16.544   1.144 -0.1146 -0.1979  0.3662
13159W        W32013   9.504   5.158  16.897  0.2418  0.0467  0.2007
13160W        W32014   2.092  14.264   2.159 -0.1096  0.0265 -0.0662
13161W        W32015  12.259  17.562  16.555 -0.1398 -0.0454 -0.1286
13162W        W32016   0.772  16.150   0.035 -0.1595 -0.1945 -0.0068
13163W        W32017  14.120   7.673  15.424 -0.1051  0.1719 -0.2352
13164W        W32018   1.326  10.408  13.015 -0.3818 -0.1637 -0.2799
13165W        W32019   2.597   4.415   2.859 -0.0136 -0.1158 -0.0012
13166W        W32020  16.685   3.883  13.186  0.0877 -0.0435 -0.0207
13167W        W32021   2.458   9.832   1.417  0.1922  0.0421  0.1278
13168W        W32022  13.866   4.733  13.996  0.2347 -0.1290 -0.1233
13169W        W32023   9.062  11.959   2.823 -0.0734  0.2881 -0.1736
13170W        W32024  10.471  16.863  16.362 -0.0079  0.1269 -0.1164
13171W        W32025   8.829   3.090   2.898  0.2816  0.0999 -0.2255
13172W        W32026   9.533  15.492   4.178  0.1729 -0.1123  0.0793
13173W        W32027  14.319   0.615   1.651 -0.1602 -0.2035  0.0944
13174W        W32028   5.749   7.049   3.402 -0.1075 -0.3551 -0.0933
13175W        W32029   5.445   4.549  14.378  0.1093  0.0665  0.3574
13176W        W32030   4.529  11.699   3.618 -0.2399 -0.1285  0.0385
13177W        W32031  11.928  17.328   0.400 -0.1356  0.0320 -0.2671
13178W        W32032  17.581  17.600   4.156 -0.0553 -0.1475  0.1032
13179W        W32033   5.915   5.559   3.541  0.1727 -0.0041 -0.0586
13180W        W32034  10.026  10.190  16.640 -0.1165  0.0841  0.1901
13181W        W32035  17.037   6.229   3.046 -0.0937 -0.0039 -0.0926
13182W        W32036   0.671   4.087  17.006 -0.1525  0.0909 -0.0302
13183W        W32037   8.217   6.496   3.514  0.0296  0.1874  0.0305
13184W        W32038  13.345  10.929  12.242 -0.0914  0.2806 -0.0949
13185W        W32039   6.424   1.568  15.228 -0.0536  0.0367  0.1810
13186W        W32040   7.741  13.461  14.992 -0.1765 -0.2071 -0.2599
13187W        W32041   4.946   5.103  16.526  0.0474 -0.1795 -0.2471
13188W        W32042  16.014  13.186  13.812  0.0044 -0.0104  0.1789
13189W        W32043   1.336  15.009  16.887 -0.1653  0.1148  0.0988
13190W        W32044  16.200  11.757   2.423 -0.0827  0.1798 -0.3774
13191W        W32045   3.091   3.444   1.446  0.1414  0.2097  0.0393
13192W        W32046   3.926  15.217   4.639  0.2305  0.2021  0.0601
13193W        W32047  12.311   5.156  11.801  0.0103  0.2015  0.2174
13194W        W32048   5.832   6.870   2.943  0.1423  0.2566 -0.4353
13195W        W32049   3.809   0.815   3.239  0.3550  0.1518  0.0983
13196W        W32050   5.535   0.759  13.118 -0.0679  0.0542  0.0539
13197W        W32051   2.710   7.782   1.599  0.0686  0.1402 -0.1486
13198W        W32052   9.325  11.856  15.760  0.0485 -0.0654 -0.0146
13199W        W32053   5.823   1.213  15.932 -0.3398 -0.0183 -0.1075
13200W        W32054  13.744   7.206  15.643 -0.2127  0.1129  0.0875
13201W        W32055  16.094   3.325   2.507  0.1335  0.1877  0.1805
13202W        W32056   9.521  17.565   1.104 -0.4062 -0.0381  0.0215
13203W        W32057   7.351  16.015  14.187  0.1547 -0.3245  0.1769
13204W        W32058   8.548   4.303  13.781 -0.2361 -0.1576 -0.0696
13205W        W32059   2.176  14.427  15.727 -0.1471  0.0128 -0.1887
13206W        W32060   8.540  14.778   0.571 -0.1533 -0.0574 -0.2928
13207W        W32061   9.644   6.928   3.354 -0.0291  0.0796  0.1643
13208W        W32062   4.569   9.414  13.962 -0.4286 -0.0080 -0.1394
13209W        W32063   4.530  10.418   0.564  0.2691 -0.1504  0.0181
13210W        W32064   7.481   5.948  12.017 -0.3077  0.1232 -0.0442
13211W        W32065  11.191  13.528   5.147 -0.0687  0.2326 -0.0803
13212W        W32066  14.696   4.868  12.094 -0.0884 -0.2407  0.1074
13213W        W32067  14.462  10.243   4.752  0.0261 -0.1768 -0.2661
13214W        W32068   9.015  11.132  16.847  0.3264  0.2857  0.0900
13215W        W32069   1.166   9.462   0.845 -0.0252 -0.2543  0.5240
13216W        W32070   0.614   1.083   2.402  0.2314 -0.0435 -0.2767
13217W        W32071  15.141  15.778  16.481 -0.1392  0.2714  0.1789
13218W        W32072  12.976  16.653  11.226  0.2169 -0.1342  0.0278
13219W        W32073  11.795  11.728  12.580 -0.0656  0.1777 -0.3195
13220W        W32074  11.237   5.455  12.657 -0.1774 -0.0090 -0.0256
13221W        W32075  15.499  16.556  12.589 -0.0261  0.1471 -0.0222
13222W        W32076  12.411   2.833  15.421  0.2309 -0.1410  0.0192
13223W        W32077  13.545   0.752   4.570  0.0129  0.1365 -0.0196
13224W        W32078  16.298   9.979   1.175  0.4335  0.0018 -0.1482
13225W        W32079  11.201   9.402  15.785 -0.1381  0.0395 -0.0082
13226W        W32080  11.619  14.034  14.895 -0.1968  0.4319  0.2804
13227W        W32081  10.864   6.715   2.289  0.1378  0.1649 -0.1894
13228W        W32082   7.736   0.688  12.419 -0.5244 -0.2544 -0.2952
13229W        W32083  10.665   6.454   0.502 -0.1836 -0.2645 -0.2340
13230W        W32084   3.612  13.444  14.336 -0.1080  0.1206 -0.0479
13231W        W32085  14.292   4.122   2.691 -0.1179 -0.2154 -0.3024
13232W        W32086   6.258   2.566  12.988 -0.1643  0.4977 -0.4404
13233W        W32087  13.589   8.973   4.638 -0.0079 -0.0697 -0.0442
13234W        W32088   7.503   1.782  13.710  0.0077  0.1272 -0.2522
13235W        W32089  10.895  10.717   0.469  0.2612  0.1000  0.0586
13236W        W32090  12.369  11.934   0.268  0.0152  0.0254  0.0814
13237W        W32091  14.012   6.724   0.322 -0.0886 -0.0087  0.2915
13238W        W32092   1.261   0.583   3.659  0.1011 -0.0381 -0.3365
13239W        W32093   0.929   6.639  15.689 -0.3028  0.0426  0.0094
13240W        W32094   2.483  10.162   0.200  0.0044  0.0000 -0.1503
13241W        W32095  16.452   4.894  14.146  0.0837 -0.0925  0.3802
13242W        W32096   4.184  13.981   4.276 -0.1348 -0.0331 -0.0155
13243W        W32097   3.176   0.478  14.820  0.2329  0.0801  0.1143
13244W        W32098   0.384   3.327   4.112  0.4309 -0.2306  0.0128
13245W        W32099   4.203   8.708   1.038  0.4059  0.1402  0.0825
13246W        W32100   5.489  10.809  14.581 -0.0526  0.0843  0.2672
13247W        W32101  15.679  15.118  11.874 -0.1617 -0.1873 -0.6294
13248W        W32102  16.404  16.844   1.159 -0.0261  0.0326 -0.1684
13249W        W32103   1.092  14.454  16.208 -0.1139 -0.0206 -0.2413
13250W        W32104   9.701  12.303   3.783  0.2070 -0.3442 -0.0199
13251W        W32105   8.412   7.824   4.862  0.0292 -0.0021 -0.2563
13252W        W32106  11.274   6.452  17.078  0.0681 -0.1044 -0.1473
13253W        W32107   9.524   6.121   2.732 -0.0351 -0.0084 -0.0602
13254W        W32108  15.330  10.387  13.375  0.1048 -0.1813 -0.1483
13255W        W32109  16.918   1.388  14.624  0.1816  0.0763  0.2428
13256W        W32110   2.657   9.328  16.116 -0.1979 -0.1053 -0.0753
13257W        W32111  15.897  16.750   1.140  0.1982 -0.1343  0.0163
13258W        W32112  13.742  10.545  12.092 -0.1489  0.1251  0.1378
13259W        W32113   5.818   9.410  16.060 -0.2745 -0.0393 -0.5228
13260W        W32114   9.231  17.345  15.205  0.1944 -0.2189  0.1447
13261W        W32115  14.769  11.077  13.710  0.0791 -0.2192  0.0877
13262W        W32116   7.710   8.184  11.836  0.1334  0.0396 -0.1300
13263W        W32117   4.635  14.760   0.653  0.2961  0.0342  0.0375
13264W        W32118   4.773  12.267  11.703  0.0957 -0.1647  0.1735
13265W        W32119  13.947   1.975   0.180  0.3503  0.0802  0.0609
13266W        W32120   3.512  16.141   1.047 -0.1752  0.0384  0.1337
13267W        W32121   7.129   1.489   3.042 -0.2683 -0.0708  0.2774
13268W        W32122  17.059  17.524   0.515  0.0383  0.0151 -0.0681
13269W        W32123  11.463  10.869  16.389 -0.2282  0.0935  0.2705
13270W        W32124  14.126  11.762  13.516  0.0015  0.0390  0.1056
13271W        W32125  16.645  16.194  11.204  0.3668  0.1205 -0.1521
13272W        W32126   0.218   4.005  16.718 -0.0366 -0.1873 -0.0313
13273W        W32127   6.406  16.777   1.623  0.0423  0.1337 -0.1080
13274W        W32128  10.273   7.297  12.239  0.1655 -0.0427 -0.0098
13275W        W32129  11.268  10.321  15.610  0.0324 -0.1208  0.1437
13276W        W32130  10.697   3.720  15.106 -0.3360 -0.1456 -0.2005
13277W        W32131  11.303  16.232   4.506  0.1762 -0.3076 -0.0570
13278W        W32132   3.120   9.725   1.580 -0.3282  0.1219  0.0864
13279W        W32133   0.228   6.644   0.413  0.2208  0.3204 -0.2813
13280W        W32134   4.154  16.203   1.737 -0.0036 -0.1710  0.2520
13281W        W32135  14.318  16.626  14.342 -0.1862  0.1089  0.2657
13282W        W32136   0.664   0.375   1.224  0.1219 -0.1208  0.0301
13283W        W32137   9.138   4.043   1.282  0.0996 -0.1360 -0.1835
13284W        W32138   1.604  10.486  15.094  0.2221  0.2211 -0.1936
13285W        W32139   0.617   9.304   4.156  0.1298 -0.1769  0.0121
13286W        W32140   2.912  12.594   3.645  0.3050 -0.3514 -0.0904
13287W        W32141   4.179  10.848  13.795 -0.0691 -0.0813 -0.0423
13288W        W32142   4.012  17.509   3.910 -0.0325  0.2521 -0.3577
13289W        W32143   6.678   2.042   1.941  0.0208  0.0971  0.1539
13290W        W32144   8.278   3.527   2.330  0.2444 -0.1746  0.4999
13291W        W32145  16.337   3.006   3.289 -0.0987 -0.2360  0.2513
13292W        W32146   1.554   3.773  15.595 -0.3114 -0.3342  0.1312
13293W        W32147   1.266   7.347   3.975  0.3673 -0.1162 -0.1610
13294W        W32148   2.610   5.061  13.232 -0.0689 -0.4438  0.0352
13295W        W32149  13.534   0.922  12.635  0.0536  0.2078 -0.2719
13296W        W32150  15.906  16.496  13.369 -0.1015  0.1457 -0.0767
13297W        W32151  16.193   6.909  12.451 -0.1051 -0.3463 -0.2453
13298W        W32152  15.528   7.244  13.829  0.0618 -0.0263 -0.0881
13299W        W32153   8.512   9.364   0.374  0.0577 -0.3736  0.2154
13300W        W32154  14.677   4.450  12.793 -0.0502 -0.0604  0.0567
13301W        W32155   9.726   9.902  14.751 -0.1593 -0.0941  0.0771
13302W        W32156   1.880   2.118   4.775  0.0238 -0.0092  0.1513
13303W        W32157  10.174  14.581   3.474 -0.3541 -0.1285 -0.4052
13304W        W32158  15.853  10.327   3.415 -0.1831 -0.1698  0.2285
13305W        W32159  15.439   7.998  14.500 -0.1230 -0.1900  0.0909
13306W        W32160   3.165   6.906   0.498 -0.1236 -0.0371  0.2888
13307W        W32161  10.636   4.311   4.178  0.0780 -0.2198 -0.0119
13308W        W32162  15.810  15.672   2.740 -0.0809  0.0589 -0.3875
13309W        W32163   9.692  13.500   4.917  0.0720 -0.2280  0.0946
13310W        W32164  12.147   9.886  14.448 -0.0228  0.2402 -0.0530
13311W        W32165   3.335   5.813  16.794 -0.1958  0.0923  0.1123
13312W        W32166  11.528  10.534  14.352  0.1986  0.3199 -0.1313
13313W        W32167   8.794  14.939  14.847  0.2278  0.1104 -0.0197
13314W        W32168   3.971  15.642  12.797  0.1689  0.0410 -0.1667
13315W        W32169  16.024  13.373  15.531 -0.0458  0.0354  0.1224
13316W        W32170   6.786  12.749   2.898  0.1826 -0.2393 -0.2882
13317W        W32171   3.696   4.160  15.794  0.0105  0.1097  0.5466
13318W        W32172   0.304  15.675   2.023  0.0066 -0.2248 -0.0268
13319W        W32173   0.065   6.286   1.855  0.1250 -0.0519 -0.2796
13320W        W32174   2.208   7.967  15.643 -0.4000 -0.4228 -0.1741
13321W        W32175  15.343   4.982  16.273 -0.1632  0.0981  0.1482
13322W        W32176  11.585  14.736  14.051 -0.0311  0.1889 -0.2196
13323W        W32177   3.035  16.348  12.190 -0.3349  0.1158 -0.0738
13324W        W32178  15.503  11.080   2.713 -0.0839 -0.0454  0.0906
13325W        W32179   5.936  11.069  12.545  0.1847 -0.1125  0.0245
13326W        W32180  14.561  16.948  15.921 -0.2042 -0.1598 -0.1802
13327W        W32181  15.299   7.942   3.415 -0.0828 -0.1861 -0.0152
13328W        W32182   4.718   3.780   2.829 -0.1557 -0.0586  0.2762
13329W        W32183  16.644   7.383   5.692 -0.1907 -0.1577  0.0479
13330W        W32184   6.466   2.608   6.030  0.0680  0.1791 -0.0166
13331W        W32185  16.919  10.406  16.405 -0.0282 -0.2132  0.2273
13332W        W32186   4.572   4.526   3.924 -0.0612  0.4093 -0.1408
13333W        W32187   2.079   4.147   1.474  0.0302  0.2854  0.2281
13334W        W32188   1.552  12.532   4.723 -0.0948 -0.2473  0.2635
13335W        W32189   6.082   8.036  12.569 -0.3268 -0.1606 -0.1623
13336W        W32190  15.691   2.757   0.610 -0.3025 -0.1377 -0.1579
13337W        W32191   4.047   2.903  14.030  0.1097 -0.0144  0.2170
13338W        W32192  16.852   2.514  13.822  0.1148 -0.0208  0.0528
13339W        W32193   8.712   2.073   5.825  0.1165  0.0771 -0.2523
13340W        W32194   6.095   9.893   4.266 -0.5935 -0.1686  0.0762
13341W        W32195   8.890  12.724  14.151  0.0772  0.1883 -0.0642
13342W        W32196   0.237  13.226  14.269 -0.0275  0.0161 -0.0767
13343W        W32197   4.492  17.476  16.315 -0.3897 -0.0012  0.3519
13344W        W32198   0.658   3.915  16.387  0.0336  0.0196 -0.0732
13345W        W32199  11.302  10.213  17.001  0.3425 -0.0150 -0.1995
13346W        W32200   0.337   4.448  12.117  0.0534 -0.2698 -0.0314
13347W        W32201   3.937   7.467   5.507  0.0567  0.1540  0.4890
13348W        W32202  15.346  13.365   4.872 -0.1294  0.0242  0.0242
13349W        W32203   4.178  12.593  16.668  0.0355  0.1609  0.2776
13350W        W32204   6.621   6.173   2.942 -0.0057 -0.0911 -0.2009
13351W        W32205   0.405  16.445   0.248 -0.0170 -0.0907 -0.2847
13352W        W32206  11.962   1.315   5.136 -0.0096 -0.2159 -0.0797
13353W        W32207  10.215  10.782  16.129 -0.2756 -0.0401 -0.2234
13354W        W32208   7.736   4.631   1.869  0.0115 -0.0259  0.1800
13355W        W32209  15.275  15.332   1.919 -0.2448 -0.2844  0.1598
13356W        W32210  16.519  15.256  15.037 -0.1388  0.0695  0.2480
13357W        W32211   4.513   9.006   2.879 -0.4231  0.1769  0.2129
13358W        W32212  13.460   4.124   2.426  0.3563 -0.2441  0.2152
13359W        W32213  16.150   0.973   3.101  0.3344  0.0485  0.1754
13360W        W32214   1.890  11.714  12.765 -0.0792 -0.2497 -0.1970
13361W        W32215  13.469  16.298   4.118 -0.2162  0.0943 -0.1002
13362W        W32216   2.772   7.917   0.330  0.0731  0.1741 -0.1572
13363W        W32217   0.795  13.433  12.760 -0.0212 -0.0801  0.2111
13364W        W32218   5.259   1.254   4.218  0.1243  0.1933  0.0374
13365W        W32219   0.825   8.664  14.463 -0.1489  0.2889 -0.1295
13366W        W32220  14.110   4.277  15.985  0.0789  0.0033  0.3615
13367W        W32221   1.429   0.114  11.800 -0.0720 -0.0049 -0.1157
13368W        W32222   5.399  13.381  14.155  0.1084  0.2374 -0.3033
13369W        W32223   3.415   3.766  15.856 -0.2769  0.0625 -0.1778
13370W        W32224   9.250  17.300  13.205 -0.0398  0.0991  0.1450
13371W        W32225  12.472   0.128   4.926  0.0394  0.2024 -0.2560
13372W        W32226   3.531  12.034  12.262  0.0428  0.0219  0.3243
13373W        W32227   4.950  10.374  13.852 -0.0465 -0.0175 -0.1007
13374W        W32228  10.420  17.524  16.352  0.0343  0.2354  0.3673
13375W        W32229  17.154  12.262  16.617  0.3131 -0.1166  0.1245
13376W        W32230   2.729  10.547   3.336 -0.0610  0.0036  0.0165
13377W        W32231   8.973   5.259  12.523 -0.5625 -0.0325 -0.0888
13378W        W32232   2.593  10.993  15.597  0.0222 -0.2730 -0.0605
13379W        W32233  12.594  13.514   1.570  0.0031  0.1094 -0.0943
13380W        W32234  11.164   9.023   1.401 -0.0350 -0.0018  0.2796
13381W        W32235   1.127   1.942  14.280 -0.1712 -0.0138 -0.2320
13382W        W32236  11.361   6.250  16.626 -0.2216 -0.2442 -0.1440
13383W        W32237  10.030  12.863   0.261  0.2697 -0.0975  0.0372
13384W        W32238   9.194   2.872  13.194  0.1113  0.2013  0.0875
13385W        W32239  10.778  14.206   5.390  0.1505  0.0131  0.1295
13386W        W32240  13.478   6.787  13.391 -0.1278 -0.2231  0.1428
13387W        W32241  12.727   5.384  14.581 -0.1788 -0.0179  0.0655
13388W        W32242  10.308   0.852  15.408 -0.0841 -0.0222  0.4260
13389W        W32243  16.387   2.653  13.152  0.3853  0.0320  0.1446
13390W        W32244   9.695  17.220  16.965 -0.0326 -0.2275  0.1478
13391W        W32245   0.052  15.603   2.842  0.1725  0.0578  0.0514
13392W        W32246   4.742  15.190  16.246  0.0472 -0.2527  0.1153
13393W        W32247   8.549  12.670   0.825  0.1184 -0.0425  0.1048
13394W        W32248  13.728   9.827  12.694  0.1370  0.0907  0.4145
13395W        W32249   0.412   2.195   4.157  0.3435 -0.1849 -0.2526
13396W        W32250   7.094   4.558  11.946  0.0736  0.1518  0.0508
13397W        W32251  14.277   2.137  15.612  0.3699  0.1673  0.2804
13398W        W32252  15.885  12.232   2.636 -0.2315  0.3773  0.0997
13399W        W32253  14.766   8.952   1.231  0.0500 -0.2144  0.0776
13400W        W32254   0.271  17.542  14.255 -0.1915  0.0721 -0.0686
13401W        W32255   2.422  11.603  16.724  0.2523  0.2087 -0.4227
13402W        W32256   0.010   3.537  14.233 -0.0152 -0.3068 -0.0282
13403W        W32257  16.218  10.051   2.180  0.0340 -0.0090 -0.0740
13404W        W32258  13.444   0.558   0.047 -0.0127  0.0208  0.0857
13405W        W32259   1.297   3.497   2.332 -0.0265  0.0447  0.0671
13406W        W32260   9.444   6.744   0.493  0.0652 -0.1878  0.1029
13407W        W32261   2.900   6.261   3.830 -0.0074  0.1491  0.2974
13408W        W32262  14.370  10.143   1.277  0.1664 -0.2864 -0.2979
13409W        W32263  13.466   9.632  14.069 -0.0703  0.1431  0.1567
13410W        W32264   8.216   1.527  16.570 -0.2681 -0.0022  0.2157
13411W        W32265   6.826  17.213  16.610  0.1872  0.0308  0.2883
13412W        W32266  14.874  10.340  12.688  0.0874 -0.3001  0.1010
13413W        W32267   6.658   9.054   2.858  0.1093  0.2275  0.1633
13414W        W32268  16.280   9.811  15.172  0.0630 -0.0367 -0.0314
13415W        W32269  13.425   7.541   2.688 -0.0706 -0.1394 -0.0898
13416W        W32270   4.639   2.281  15.092  0.1085  0.0715 -0.0939
13417W        W32271   1.600  10.680  16.062 -0.1994 -0.0600 -0.3052
13418W        W32272   0.820   9.855  16.478 -0.3485  0.0156  0.1789
13419W        W32273  14.100   8.751  15.237 -0.3307 -0.3473  0.1400
13420W        W32274  13.305  10.106  16.591 -0.2611 -0.3089 -0.3182
13421W        W32275   6.172   0.373  14.022 -0.1017 -0.1776 -0.1285
13422W        W32276  10.526  10.199   3.286  0.2951  0.1648 -0.2337
13423W        W32277   5.645  11.040  13.512 -0.4250  0.4298 -0.2174
13424W        W32278   7.271   6.794   4.815  0.1999 -0.0196 -0.3440
13425W        W32279  12.109   7.644   3.845  0.0037  0.1657 -0.0824
13426W        W32280  12.056   0.428  12.482  0.1116  0.1292  0.1452
13427W        W32281   7.821  15.235  15.636 -0.1831 -0.2806 -0.1512
13428W        W32282   2.121  12.657   1.662 -0.1980  0.1988 -0.0981
13429W        W32283  14.306  15.023  16.701 -0.1609  0.2092  0.5187
13430W        W32284   3.520   6.944  12.395  0.1440  0.1234 -0.3878
13431W        W32285   2.858  13.059  16.877  0.1275 -0.0143 -0.3289
13432W        W32286  14.066   0.522  16.143  0.0693  0.1483  0.3056
13433W        W32287  15.672   9.093   2.161  0.2502 -0.2968 -0.0150
13434W        W32288  12.077  14.919  15.856 -0.0785 -0.2577  0.1968
13435W        W32289   7.490  15.047  12.678 -0.1377  0.0604 -0.3257
13436W        W32290  13.957   3.669  15.163  0.2722  0.2466  0.2047
13437W        W32291   5.173   2.193   4.455  0.2075 -0.5093  0.0530
13438W        W32292   2.756   8.227   3.635  0.3524 -0.3072  0.0208
13439W        W32293   0.677   2.183  16.555 -0.0982 -0.0633  0.3438
13440W        W32294  16.036  12.473   5.110  0.0676  0.3668 -0.1040
13441W        W32295   8.055  10.188   5.150 -0.1028  0.2701 -0.1023
13442W        W32296   0.734   6.806  16.606 -0.1918  0.1271 -0.0330
13443W        W32297  11.707  16.388   1.861 -0.1454  0.1090  0.4093
13444W        W32298   9.130   8.419  16.594 -0.1585  0.2872 -0.1261
13445W        W32299  17.582   7.529  15.022 -0.2017  0.0240 -0.0163
13446W        W32300   1.336   2.434   0.370  0.4337 -0.2256 -0.0796
13447W        W32301  14.425   4.381  15.220  0.0870  0.2801  0.2343
13448W        W32302   2.632  11.476  14.896  0.0256 -0.1751 -0.0543
13449W        W32303   3.765  12.388  14.107 -0.3808  0.1001  0.0527
13450W        W32304   3.842  13.378   5.066  0.1197  0.0985 -0.0292
13451W        W32305  10.586   4.770  15.132  0.0933 -0.1753  0.2737
13452W        W32306   5.338   2.169  12.432 -0.1783  0.2119  0.0381
13453W        W32307   7.054  10.915   2.817  0.0437 -0.0627  0.1872
13454W        W32308  17.490   5.450  14.898  0.1303  0.3785  0.0591
13455W        W32309  16.719   1.350  17.034  0.1990 -0.0573 -0.1290
13456W        W32310   1.273   2.754  16.297 -0.1595 -0.2754 -0.2473
13457W        W32311   7.179  11.430  15.679  0.0125  0.0578 -0.2496
13458W        W32312   8.243  11.529  16.263 -0.0582 -0.0883  0.4786
13459W        W32313   7.624   2.646  14.957 -0.0738 -0.0925  0.0642
13460W        W32314   6.466   8.363   3.899  0.1762  0.3505 -0.1895
13461W        W32315  17.565   1.395  13.757 -0.2129  0.0142 -0.2586
13462W        W32316   2.762  13.533  16.746 -0.0088  0.2048 -0.2442
13463W        W32317   2.004   7.152   4.995 -0.0631 -0.0010 -0.0150
13464W        W32318   5.397  11.540   3.553  0.1245  0.0383 -0.2173
13465W        W32319   6.252   2.573   0.498  0.2489 -0.2960  0.1733
13466W        W32320   6.912  16.360  14.176 -0.0332 -0.0737  0.0016
13467W        W32321   2.158  15.074  13.844 -0.1483  0.1580  0.4053
13468W        W32322  15.543  12.723   5.082 -0.1050 -0.0706 -0.0444
13469W        W32323  13.297  16.434  13.418 -0.0935  0.0714  0.0539
13470W        W32324  12.414   0.427   0.304  0.2243 -0.3704 -0.2654
13471W        W32325   9.514  12.325  16.993  0.1209 -0.1289  0.1680
13472W        W32326   9.668   2.447  13.201 -0.2339 -0.2148  0.2294
13473W        W32327   5.064  16.364   2.907  0.2681  0.5184  0.0378
13474W        W32328  16.550   3.357  12.877  0.0944 -0.1144 -0.0748
13475W        W32329  14.212   4.081   1.000 -0.0291 -0.1153 -0.0967
13476W        W32330  14.492   8.362   4.008 -0.1273  0.1743  0.1039
13477W        W32331   9.115   5.139  16.547  0.1131  0.0873 -0.1117
13478W        W32332   2.822  15.438   5.001  0.2862 -0.2934 -0.0500
13479W        W32333  10.472  13.074   1.687  0.3415  0.0605  0.1042
13480W        W32334   6.201  12.181  13.129  0.3179  0.2071  0.0104
13481W        W32335  15.726   6.853  13.420 -0.1971  0.1347  0.1868
13482W        W32336  16.417  16.933   0.393 -0.1933  0.0480  0.0842
13483W        W32337   8.471  14.238  14.437  0.2602  0.1801 -0.4989
13484W        W32338  10.039  13.698  16.827 -0.0228 -0.0608  0.0673
13485W        W32339   8.984  17.019  16.313  0.1882 -0.0260 -0.4722
13486W        W32340  16.309  10.537  16.355 -0.2249  0.2292 -0.2712
13487W        W32341   6.725   2.208  14.331  0.2003 -0.4311  0.1889
13488W        W32342   2.721  15.212   3.701 -0.1904 -0.2308  0.0573
13489W        W32343   9.983  12.977  12.939 -0.3684  0.0678  0.0094
13490W        W32344  12.704   0.608   5.139 -0.0940  0.0014 -0.0033
13491W        W32345   2.731  16.852  13.564  0.0245 -0.2249 -0.0594
13492W        W32346   7.385   7.896   4.174  0.1244  0.2005  0.0736
13493W        W32347   7.585   3.483  14.405  0.1371  0.2355 -0.0622
13494W        W32348   9.801  11.759   0.455 -0.0866  0.2343  0.1508
13495W        W32349   6.759  12.756   0.822 -0.0042  0.1329 -0.3208
13496W        W32350  15.479  12.324   3.956 -0.0093  0.0007  0.1578
13497W        W32351   2.574   4.320  12.831  0.0595 -0.0896  0.4909
13498W        W32352   3.918   9.778   2.036  0.0306 -0.0454  0.0165
13499W        W32353   8.822  13.522   1.373  0.0836 -0.1905 -0.2889
13500W        W32354  10.581  10.355   1.771  0.2686  0.0093  0.0341
13501W        W32355  10.030   9.553  14.418  0.0166  0.2114 -0.0759
13502W        W32356   6.139   0.599  17.108 -0.1139 -0.0756 -0.3099
13503W        W32357  15.163   6.013  17.238 -0.0530 -0.0789 -0.2134
13504W        W32358  15.825  11.953   0.347  0.1442 -0.1330 -0.0771
13505W        W32359  13.176  13.308   1.672 -0.2124 -0.2372 -0.1870
13506W        W32360  11.438  12.741   1.689 -0.0409  0.1543 -0.3735
13507W        W32361   0.235   4.457   2.580  0.5963 -0.2153  0.0557
13508W        W32362   8.255  16.930   1.297  0.1985 -0.0351 -0.2657
13509W        W32363   1.115   2.033  13.193 -0.1931 -0.0110 -0.0488
13510W        W32364   4.761   5.174   2.603 -0.1319 -0.1651  0.1813
13511W        W32365   8.790   1.020   5.795 -0.0316  0.1820  0.2536
13512W        W32366  12.853   3.894   5.671 -0.1479  0.0281 -0.0735
13513W        W32367   4.040   4.692   3.172 -0.0501  0.1025  0.1643
13514W        W32368   1.798   5.213  15.085  0.1785  0.1209 -0.2015
13515W        W32369   8.830  15.463  14.979  0.3435  0.1462 -0.1514
13516W        W32370   7.826  15.442   0.965 -0.0867  0.0127  0.0005
13517W        W32371   0.087   0.653   0.146 -0.1007  0.0120 -0.0595
13518W        W32372   7.591   9.897  17.127  0.0675  0.0606  0.1014
13519W        W32373   3.059  16.206   4.544  0.1178  0.1569 -0.3320
13520W        W32374   2.616  15.908  16.435  0.3132  0.1729  0.0115
13521W        W32375   0.429   9.994  15.615  0.2008 -0.3083 -0.0378
13522W        W32376  10.900  16.039   2.896 -0.0756 -0.1260 -0.2716
13523W        W32377  10.232   8.038  15.587  0.0574 -0.2010  0.1573
13524W        W32378  11.716   1.351  13.877 -0.0401 -0.4216 -0.0667
13525W        W32379   8.108   6.251   2.680  0.3438 -0.0988  0.2692
13526W        W32380   8.436  12.952  14.161 -0.2519 -0.1550  0.1017
13527W        W32381   4.592   5.475   1.528  0.0996  0.2045 -0.3622
13528W        W32382   1.803  11.968  14.911 -0.3497 -0.1513 -0.0026
13529W        W32383  15.008   7.762   4.524 -0.1433  0.0931  0.0556
13530W        W32384  13.088   6.364  14.665 -0.1213 -0.1237 -0.2381
13531W        W32385  10.340   9.058  17.121  0.2791  0.0987  0.0457
13532W        W32386   4.683  10.533  12.141  0.1860 -0.2076 -0.2620
13533W        W32387  12.288   7.595  16.761  0.0317  0.0210 -0.2296
13534W        W32388   5.838  12.280   4.046  0.0065  0.1136  0.0435
13535W        W32389   7.654  10.273  16.745 -0.2267 -0.3383 -0.0074
13536W        W32390  10.375   2.328  13.912  0.2612 -0.1677 -0.1048
13537W        W32391  13.563   0.906  16.700 -0.0288 -0.0509 -0.0256
13538W        W32392   5.873   0.479   1.570  0.2954  0.0786 -0.1921
13539W        W32393   9.899  11.768   4.591  0.2580 -0.2906 -0.2176
13540W        W32394   3.275  12.677  16.883 -0.1261  0.0781  0.0096
13541W        W32395   8.218  11.912  15.483 -0.2632  0.0862 -0.1577
13542W        W32396   8.042  13.253   0.967  0.1250 -0.0817  0.0345
13543W        W32397  16.661  10.353  14.490 -0.1165  0.0683 -0.0406
13544W        W32398  12.231   6.949   4.638 -0.1458  0.1261 -0.1002
13545W        W32399  14.172   5.254  14.089 -0.2140  0.2080  0.1642
13546W        W32400  17.337   7.996  12.672 -0.0777  0.1742  0.2762
13547W        W32401  15.269   0.720   2.809  0.0533  0.1451  0.2067
13548W        W32402   9.283  13.983  13.999 -0.3023  0.3490  0.0983
13549W        W32403  17.056   1.409   0.339  0.0318  0.1256  0.0492
13550W        W32404  16.407  14.678  17.158 -0.0835  0.1486 -0.1362
13551W        W32405   6.507   4.331   2.785 -0.1473  0.0035 -0.1289
13552W        W32406  11.251   5.406   0.099 -0.1240  0.1136  0.0465
13553W        W32407  14.785  13.065   3.343 -0.1145  0.0838  0.0953
13554W        W32408  15.911   8.503  17.204 -0.3109  0.1040 -0.0127
13555W        W32409   9.541  15.997  14.701 -0.2016 -0.3096  0.0801
13556W        W32410  12.748   7.725   0.841  0.1117  0.3138 -0.2489
13557W        W32411  13.912  16.777  15.144  0.0485 -0.2548  0.1752
13558W        W32412  14.415  13.060   3.636  0.0078  0.0382 -0.1197
13559W        W32413   1.705  12.671  15.819 -0.2821 -0.0242 -0.1393
13560W        W32414  10.622  16.553  15.914  0.0790 -0.3319 -0.0906
13561W        W32415   2.230   3.825  14.838 -0.0169  0.0300 -0.1373
13562W        W32416   1.624  13.228  15.529 -0.2140  0.0229 -0.1279
13563W        W32417  12.826  11.186   1.645  0.0805 -0.2282 -0.1546
13564W        W32418   7.333  13.408  12.691 -0.0607 -0.2689  0.4686
13565W        W32419  12.511   9.747  15.503 -0.3306  0.2947 -0.2137
13566W        W32420   2.693  17.368   2.848  0.1260 -0.3540  0.0976
13567W        W32421   6.266   3.474  13.237  0.2145 -0.0485  0.1980
13568W        W32422   9.677  10.855  15.330 -0.0815 -0.1803 -0.0483
13569W        W32423  16.437   2.304   3.982  0.0685 -0.1318 -0.2006
13570W        W32424  14.670  11.604  12.136  0.1517  0.0960 -0.0525
13571W        W32425   5.653   2.399  14.362 -0.0983 -0.1536  0.0615
13572W        W32426  11.556  14.149   2.156 -0.1914  0.1661 -0.1181
13573W        W32427  15.432   9.700   1.655 -0.0701 -0.3110 -0.1077
13574W        W32428   0.481  13.768  16.716  0.2806  0.3355  0.4019
13575W        W32429   7.182  10.497   1.983  0.3211 -0.1238  0.1932
13576W        W32430   6.010  11.657  15.433  0.1283 -0.0659  0.0248
13577W        W32431   0.685  10.819   1.526 -0.2254 -0.0393 -0.2722
13578W        W32432   5.262   1.707   0.195 -0.3143 -0.1773 -0.0537
13579W        W32433  10.009   0.735   1.091  0.1728  0.0554 -0.0727
13580W        W32434   2.859  15.317  14.572  0.0764 -0.1053 -0.0374
13581W        W32435   6.161   1.325   6.112  0.2780 -0.0348 -0.1056
13582W        W32436   1.708   2.068  13.611 -0.0908  0.0425 -0.1299
13583W        W32437   4.392  10.490  16.740  0.0791 -0.1123  0.2446
13584W        W32438  16.294   2.115  14.132  0.2361 -0.2456  0.2549
13585W        W32439   3.435  14.167   3.560 -0.0674 -0.0656 -0.0597
13586W        W32440  14.313  12.362  16.272  0.4336 -0.0025  0.1033
13587W        W32441   0.287   2.133   3.643  0.0972 -0.3200  0.0343
13588W        W32442  13.172   2.658   2.390 -0.1473  0.0431  0.0587
13589W        W32443   4.986   0.824   2.501  0.1797 -0.2470  0.3735
13590W        W32444  13.746   0.922  16.188  0.1049  0.1951 -0.0435
13591W        W32445  16.878  13.713  16.631 -0.2526 -0.0737 -0.3261
13592W        W32446  16.877  16.535  13.887 -0.3285 -0.1510  0.0707
13593W        W32447   2.105   0.911   4.911 -0.0649  0.0311 -0.0168
13594W        W32448   8.410   3.839  14.547 -0.0033  0.1051  0.0156
13595W        W32449  10.192  11.267   1.600  0.1773  0.2158  0.0776
13596W        W32450  17.532   7.476  12.764  0.0942 -0.0603  0.0651
13597W        W32451   1.314   8.931   0.992  0.1283  0.2918  0.0175
13598W        W32452  15.846   1.299   3.767 -0.0697  0.3024  0.0853
13599W        W32453  11.731   5.069  14.001 -0.0762  0.2037 -0.2961
13600W        W32454   7.081  12.859  14.552 -0.1331  0.0418 -0.2594
13601W        W32455   0.928  12.052  16.535 -0.2208 -0.0511 -0.1759
13602W        W32456   3.127   4.577  16.998  0.0771 -0.1481  0.2438
13603W        W32457  13.361   1.642   5.096 -0.1218 -0.0862  0.0231
13604W        W32458  14.151   6.787  12.754  0.1893  0.0672 -0.0100
13605W        W32459   4.409   3.518   3.703 -0.3208 -0.3029  0.1750
13606W        W32460  15.767  11.409  11.954  0.4534 -0.0862  0.1344
13607W        W32461   6.720  17.218   3.175  0.0801 -0.1095  0.1406
13608W        W32462  14.846  15.929   0.258 -0.2804  0.0982  0.1701
13609W        W32463   8.802  16.915   0.944  0.0117  0.1350 -0.2122
13610W        W32464   5.571  16.569   2.066  0.0511  0.1200  0.0302
13611W        W32465   4.476   1.781  14.238  0.1097  0.0048  0.1886
13612W        W32466  14.802   3.052   4.845 -0.0627  0.0176  0.0566
13613W        W32467   5.120  16.727  16.131  0.1668 -0.1163  0.1582
13614W        W32468  15.009   0.567  12.428 -0.0753 -0.3052 -0.1273
13615W        W32469  16.230  13.077  14.647 -0.2704  0.0370  0.3652
13616W        W32470  10.073  12.779  15.642 -0.0759  0.1312  0.3285
13617W        W32471   6.348  16.969   4.257  0.0162 -0.5303  0.2992
13618W        W32472   7.289   5.790  16.907 -0.2816 -0.2971 -0.0785
13619W        W32473   0.505   8.728   3.316  0.1008 -0.0282 -0.0232
13620W        W32474  13.993  12.458   4.927  0.0280 -0.0283 -0.0105
13621W        W32475   2.807   9.177  16.581 -0.1374 -0.0468 -0.0040
13622W        W32476  10.843   4.559   3.075 -0.0907 -0.1386  0.2399
13623W        W32477  11.075   0.805   2.005 -0.0472 -0.0198  0.0555
13624W        W32478   2.754   0.476  14.547 -0.4458 -0.0805 -0.0800
13625W        W32479  10.918   3.044  12.453  0.0699 -0.4356 -0.1107
13626W        W32480   5.613  10.998  16.147 -0.0497  0.4502  0.1640
13627W        W32481  17.293  14.890   3.468 -0.0623  0.2978  0.1493
13628W        W32482   5.936   0.026  13.677 -0.0479 -0.1375  0.3121
13629W        W32483  14.700   7.124   3.927 -0.0576 -0.1229  0.0886
13630W        W32484  14.735  15.549  12.691  0.3280  0.2076  0.0631
13631W        W32485  17.016   0.480   0.632  0.0314  0.1550 -0.1210
13632W        W32486   9.402  11.595   3.166 -0.1954  0.0729  0.1158
13633W        W32487  15.478  11.834   4.148 -0.2192 -0.0173  0.0348
13634W        W32488  14.981  11.811   4.328  0.0018 -0.0306 -0.1886
13635W        W32489   5.597   3.786  13.879  0.2027  0.1808 -0.1738
13636W        W32490   5.570   4.617  11.855  0.5732  0.0116 -0.1319
13637W        W32491  14.544  10.126  13.576 -0.2812 -0.0773 -0.1207
13638W        W32492   5.425   4.990  13.127 -0.1684 -0.1174 -0.3218
13639W        W32493  16.520   4.092   1.831  0.0251 -0.1119 -0.0636
13640W        W32494  15.154   6.518  12.899 -0.0076 -0.1417 -0.0858
13641W        W32495   2.954   9.131   4.676 -0.1066 -0.1992 -0.0466
13642W        W32496   5.625   6.410   1.927  0.2977 -0.0494 -0.1615
13643W        W32497  12.898  11.966  16.237  0.0052  0.2015 -0.1135
13644W        W32498  11.012  16.751   5.177 -0.1232  0.1276 -0.1357
13645W        W32499  15.593  10.066   4.462  0.1954  0.0849 -0.0105
13646W        W32500  14.631   7.632  15.288 -0.4604 -0.1043  0.0940
13647W        W32501   9.293   7.792   3.106 -0.1615  0.3075 -0.1998
13648W        W32502   7.614  17.410  12.846  0.2140  0.0238 -0.3892
13649W        W32503  14.853  16.009   0.786 -0.1223 -0.0366  0.0138
13650W        W32504   0.945   0.643   2.329 -0.2818 -0.1358  0.2020
13651W        W32505   8.447   4.514  12.290 -0.1506  0.0875 -0.2837
13652W        W32506  15.110   3.666   2.043 -0.1559  0.2697 -0.0808
13653W        W32507   4.524  14.570  15.652  0.0694 -0.2217 -0.0963
13654W        W32508   1.643   8.803  13.312 -0.0142  0.2021  0.0145
13655W        W32509   8.837  10.911   1.500 -0.0373 -0.0071  0.1406
13656W        W32510  13.055   8.020   2.931  0.0682  0.1052 -0.2713
13657W        W32511  14.259  11.937   0.183 -0.1095  0.0851 -0.0007
13658W        W32512  10.544  13.713  16.823  0.2162 -0.0329 -0.0169
13659W        W32513  12.021  12.172  15.290 -0.0167 -0.0906  0.2929
13660W        W32514   1.404   0.535  15.928 -0.0898  0.3026  0.1054
13661W        W32515   5.994  17.516   4.479 -0.0182 -0.1508 -0.0151
13662W        W32516   8.173   7.547  15.041  0.0183  0.0557 -0.0225
13663W        W32517   4.626  15.748   1.452 -0.0024 -0.1682 -0.3878
13664W        W32518  16.841   7.679   4.637  0.0348 -0.0433  0.0646
13665W        W32519   1.583  12.727  16.666  0.2761  0.5075  0.1788
13666W        W32520  16.621  10.720  12.472  0.1117 -0.1551  0.2453
13667W        W32521   2.021  16.049  12.791 -0.1068 -0.1307 -0.2539
13668W        W32522   2.319   0.046  12.796  0.0673 -0.1976 -0.0171
13669W        W32523   1.395  10.821  13.686  0.2372 -0.0223  0.1990
13670W        W32524   8.168   4.959  12.185  0.2390  0.1785  0.2585
13671W        W32525  13.652   3.326  13.921  0.3470  0.0178 -0.1413
13672W        W32526   0.679  15.201   4.859 -0.0964  0.1062  0.0302
13673W        W32527   2.026  11.749   1.159 -0.1202  0.0736 -0.0830
13674W        W32528   4.948  11.001  11.495 -0.0799 -0.0968 -0.0703
13675W        W32529  16.456   9.711  13.824 -0.1745 -0.2157  0.0759
13676W        W32530  12.691  14.790  13.504 -0.0490  0.1408 -0.0050
13677W        W32531   0.583  13.413  16.360 -0.0250  0.1611  0.0384
13678W        W32532   2.140  15.435   2.016 -0.0021  0.1243  0.1989
13679W        W32533   0.149  14.094  16.819 -0.1882 -0.2565  0.3262
13680W        W32534  10.135   8.313  12.580  0.4317  0.0146 -0.1652
13681W        W32535  16.394  13.589   1.062 -0.1252 -0.0310  0.1472
13682W        W32536   7.772   4.237  16.490 -0.1591 -0.1806  0.0059
13683W        W32537  11.691   9.558  15.674 -0.1313  0.0236  0.1756
13684W        W32538  11.282   3.786  12.111  0.0242 -0.2355  0.3236
13685W        W32539   7.149  15.957   3.189 -0.3254 -0.0074  0.1422
13686W        W32540   4.390  16.892   2.528 -0.2468 -0.2141  0.2176
13687W        W32541   1.617   5.133  14.231 -0.2827  0.0886 -0.0813
13688W        W32542   3.778   8.677   5.364  0.1169  0.1510 -0.2355
13689W        W32543   2.055   7.736   4.393  0.2457 -0.0774  0.2015
13690W        W32544   1.404  15.132  12.159 -0.1590 -0.1219 -0.2783
13691W        W32545   8.898   3.783   4.017  0.1404 -0.0943 -0.2611
13692W        W32546   5.571  12.808  12.606 -0.0903 -0.0677  0.1380
13693W        W32547  13.626  14.263   4.224  0.0514 -0.1680 -0.1054
13694W        W32548   5.126  13.342   3.806 -0.1565 -0.1579  0.2128
13695W        W32549  14.886   9.833   1.251  0.1486  0.0564 -0.2000
13696W        W32550   9.460   5.648   0.649  0.1824 -0.0792 -0.1492
13697W        W32551  12.653  11.173  16.147 -0.2194  0.0791  0.1508
13698W        W32552  10.744   3.268  13.807  0.3086  0.0973  0.0018
13699W        W32553  17.029   7.806  15.664 -0.0217 -0.0827 -0.0576
13700W        W32554   5.322  16.715   2.616 -0.0391 -0.0151 -0.0429
13701W        W32555  15.012  10.986  12.617 -0.1755  0.2045  0.3926
13702W        W32556   8.636   1.405   0.791 -0.0285 -0.1775 -0.3230
13703W        W32557   6.937  11.843   1.681  0.1541 -0.3354  0.1397
13704W        W32558   0.540   9.362   0.766  0.0070 -0.3369  0.2833
13705W        W32559   1.281   3.493  13.152  0.2219 -0.1806  0.4656
13706W        W32560  11.753  12.586   1.320 -0.1143  0.0378 -0.0601
13707W        W32561  12.285  14.196   2.632  0.0229 -0.1616  0.3526
13708W        W32562   1.543   2.592   1.739  0.0583 -0.2634  0.3090
13709W        W32563   8.120   9.319   5.150  0.0760  0.0042  0.2047
13710W        W32564   6.506   7.506  17.042  0.1521  0.0106 -0.0965
13711W        W32565   1.663   4.638  12.226  0.1187 -0.3756 -0.0593
13712W        W32566  16.305   9.111   3.252  0.0557 -0.1917  0.1073
13713W        W32567   4.914  14.746  12.928  0.0148 -0.0315 -0.2083
13714W        W32568   2.936   5.176   2.599  0.1418  0.0153  0.0962
13715W        W32569   6.436  11.610  16.685 -0.0122  0.0636 -0.4949
13716W        W32570   9.168   0.125  13.876 -0.0248  0.1239 -0.0996
13717W        W32571  11.542  16.047  14.241  0.1970  0.1756 -0.0226
13718W        W32572  10.032   6.120   2.840 -0.1898 -0.1543 -0.0230
13719W        W32573   3.220  13.021   4.716  0.1347 -0.1122  0.1640
13720W        W32574  11.640   3.687   4.864  0.3336  0.3145 -0.2019
13721W        W32575   2.572   0.977  14.683  0.2236  0.1226  0.1934
13722W        W32576   4.742  13.848  16.343  0.0146 -0.0010 -0.1296
13723W        W32577   7.744  14.496   4.686  0.0735 -0.1326 -0.2182
13724W        W32578   4.445   6.266   3.411 -0.0151  0.1146  0.1254
13725W        W32579  14.827   1.846  12.512 -0.3182 -0.0633 -0.1025
13726W        W32580   9.010  12.716  12.276  0.0252  0.0761  0.1728
13727W        W32581  13.001   3.072   2.021 -0.0112  0.2993 -0.2040
13728W        W32582  10.000   1.210   0.383 -0.0642 -0.2775  0.3777
13729W        W32583  16.892  11.191   4.188 -0.3144 -0.3435 -0.2458
13730W        W32584  17.197   8.508  12.881 -0.0693  0.1320  0.0665
13731W        W32585   3.400  15.555  16.848 -0.0277  0.2988  0.0172
13732W        W32586   6.452   9.986   1.407 -0.2290 -0.1044  0.0457
13733W        W32587   7.891  11.716  12.266  0.1594 -0.2236  0.2732
13734W        W32588  16.880   1.466   2.986  0.2116 -0.0982 -0.3047
13735W        W32589   7.731  16.193  15.537  0.1071  0.1061 -0.1934
13736W        W32590   1.489   8.214   2.024  0.0627  0.1303  0.1285
13737W        W32591  16.595   0.654   3.934  0.1704 -0.2076 -0.1658
13738W        W32592  14.188   5.439  13.620 -0.0445  0.1795 -0.0543
13739W        W32593   6.151   7.177   3.110 -0.3170  0.1595 -0.3007
13740W        W32594   1.170   6.995  16.605  0.1823 -0.0463  0.1579
13741W        W32595  13.300  13.816   3.585  0.1363 -0.3050  0.0701
13742W        W32596  13.438   2.341  15.964 -0.2132  0.1200  0.0351
13743W        W32597  12.694  10.684   3.690  0.0801  0.1264 -0.2153
13744W        W32598   0.290   1.525   3.063  0.1861  0.3478 -0.2663
13745W        W32599  11.256  12.203   0.939 -0.1680 -0.1332  0.0220
13746W        W32600   7.654  12.030   2.155  0.1855 -0.1067 -0.1230
13747W        W32601   9.473  15.357   1.819 -0.0583  0.0412 -0.0215
13748W        W32602   0.364  15.925  12.791 -0.1711  0.3720  0.0955
13749W        W32603   6.663   6.059  16.906  0.1443 -0.2829  0.3534
13750W        W32604  17.531   9.285   5.464 -0.0763 -0.2571  0.0124
13751W        W32605  15.990   1.120   1.207  0.1930 -0.1049 -0.3075
13752W        W32606  15.792  15.838  15.156 -0.3220 -0.3626 -0.0462
13753W        W32607  14.014   3.715  15.971 -0.1154 -0.1447  0.0561
13754W        W32608   2.214   7.267   4.188 -0.0700  0.0763  0.3414
13755W        W32609  16.262  12.956   5.113  0.0657 -0.4339  0.0986
13756W        W32610   7.344  16.971  12.844  0.0619 -0.0774 -0.5488
13757W        W32611   2.400   3.901   2.682  0.0386 -0.1858  0.2421
13758W        W32612   6.151   9.196   1.295 -0.1268  0.0236 -0.0840
13759W        W32613   8.153   9.942  14.652 -0.0054 -0.1004 -0.0915
13760W        W32614  10.853  16.019   2.082 -0.3352  0.1647 -0.3905
13761W        W32615   4.804  13.064  12.240  0.0605  0.3040 -0.1800
13762W        W32616  17.311   9.678  15.640  0.3015 -0.3883 -0.2204
13763W        W32617   5.600   5.375   4.902 -0.0331  0.2505  0.0361
13764W        W32618  15.571   3.607  14.464 -0.3123  0.4204  0.1441
13765W        W32619   6.732   9.545   0.258  0.0840  0.1081  0.0597
13766W        W32620  13.323  10.317  15.309  0.0670  0.0906  0.0309
13767W        W32621   9.119   4.240   1.848  0.3442 -0.1113  0.2881
13768W        W32622  14.508   2.181  14.915 -0.0954  0.2159 -0.0216
13769W        W32623  15.466   1.896   0.274 -0.0874 -0.2475  0.0604
13770W        W32624  17.546   3.338   4.590  0.0899  0.0579  0.0106
13771W        W32625  10.202  11.995   4.189  0.3581 -0.0067  0.0943
13772W        W32626   8.023   3.007  15.101 -0.0538  0.0685  0.0487
13773W        W32627   1.005   9.888  12.307  0.1327  0.1440 -0.1052
13774W        W32628   4.497   8.324   0.390  0.0623  0.1189  0.1076
13775W        W32629  12.247  15.997   2.999 -0.0597 -0.1473  0.1335
13776W        W32630   0.743   9.662  13.776 -0.0113  0.1257 -0.1016
13777W        W32631   8.807  10.784  16.060 -0.0774 -0.2534 -0.2463
13778W        W32632  11.380  16.395  17.077  0.1895 -0.3276  0.1076
13779W        W32633   0.566  13.151  12.402 -0.0397  0.1741  0.1559
13780W        W32634  11.269   6.666  16.253 -0.2986 -0.0427 -0.0829
13781W        W32635  16.061   0.787   0.315 -0.0105  0.2024 -0.1800
13782W        W32636  16.857   0.825  15.057  0.3623  0.1268 -0.1251
13783W        W32637  14.761  12.289   4.468 -0.0725 -0.0226 -0.3627
13784W        W32638   3.079   8.017  17.186  0.0000  0.0024 -0.0257
13785W        W32639   1.322   0.141   0.607  0.0424  0.0807  0.0945
13786W        W32640   8.406  13.798   1.633 -0.3056  0.1044  0.1359
13787W        W32641   6.078   5.126  15.117  0.2471 -0.4850 -0.0821
13788W        W32642  11.634   9.824   2.367 -0.0425  0.0069 -0.0501
13789W        W32643  14.600   1.932   4.602 -0.0337 -0.2711 -0.3194
13790W        W32644   5.776  12.585   0.988 -0.0547 -0.0048  0.0188
13791W        W32645   5.025  10.699  13.392 -0.3906 -0.1589  0.0774
13792W        W32646  16.011  11.976   1.424 -0.4859  0.1818 -0.0562
13793W        W32647   0.879  16.862   0.915  0.0332  0.0729  0.0358
13794W        W32648   8.671   3.405  13.081  0.1636  0.1075  0.1006
13795W        W32649   5.662   0.257   3.335  0.1084  0.1523  0.2489
13796W        W32650   8.039  10.332  17.140  0.3837  0.0335  0.1029
13797W        W32651   0.852   5.234  15.103 -0.0934 -0.0934  0.0970
13798W        W32652   3.409  11.209   3.498  0.0472 -0.3362  0.0076
13799W        W32653   8.212   8.354   0.797  0.0145 -0.1614  0.2824
13800W        W32654   3.941   2.318  16.231  0.1984 -0.4624 -0.0973
13801W        W32655  15.727   2.368  14.275 -0.1992  0.3288 -0.2517
13802W        W32656  10.205   8.903  12.299  0.3183 -0.2014 -0.0901
13803W        W32657  15.701  16.964  12.407 -0.0508  0.0227  0.1848
13804W        W32658  13.942  17.078  13.252 -0.0027  0.0817  0.1135
13805W        W32659   1.788   6.458   0.038  0.1561 -0.0466  0.0567
13806W        W32660  14.865  16.261  16.133  0.0164  0.1116 -0.1200
13807W        W32661   1.123  14.701  12.212 -0.3121 -0.1129 -0.2186
13808W        W32662  10.142   6.603   2.676 -0.1116 -0.1116  0.2682
13809W        W32663   9.341  16.502  16.315 -0.2513 -0.0401  0.1078
13810W        W32664   9.919   4.208   0.685 -0.0005 -0.2450  0.0837
13811W        W32665   3.181   5.043   4.876  0.0013  0.1231 -0.0257
13812W        W32666  10.787   2.171   1.169  0.3336 -0.3051  0.2323
13813W        W32667   0.020   9.444  15.957 -0.2547  0.2514 -0.0722
13814W        W32668   1.158   0.022   4.472  0.4142  0.2524 -0.0899
13815W        W32669  10.548   8.143  14.749 -0.1833  0.4100 -0.0334
13816W        W32670  13.712   7.233   4.831  0.1311 -0.1846 -0.2891
13817W        W32671  14.349   6.535   5.012 -0.1499  0.0191 -0.2184
13818W        W32672   1.480   1.057   1.876  0.0752  0.2285 -0.1196
13819W        W32673  12.189  16.512   2.747 -0.3402 -0.2337 -0.1344
13820W        W32674  15.966   4.259  15.516 -0.0648  0.1814  0.2468
13821W        W32675   5.860   7.857   0.464  0.0052  0.1798 -0.0977
13822W        W32676   4.249   5.448  17.240 -0.2990 -0.3610  0.0571
13823W        W32677   8.849   9.396   3.543  0.2760  0.1994 -0.2324
13824W        W32678  17.194   5.110   0.090 -0.1097  0.1901  0.0273
13825W        W32679  13.169   8.998   3.441  0.0671  0.0842 -0.0330
13826W        W32680  10.410   7.072   1.932 -0.0219  0.4067 -0.1010
13827W        W32681  10.428   6.824  16.019 -0.3526 -0.3931  0.0339
13828W        W32682   7.015  15.498   4.510  0.0143  0.1024  0.0690
13829W        W32683  10.714   8.407  16.694 -0.1140 -0.1396  0.1286
13830W        W32684  12.330   4.352   4.560 -0.0872 -0.0322  0.1218
13831W        W32685   8.513   0.802   0.082 -0.3731 -0.0607  0.0703
13832W        W32686  15.662  14.775   3.572 -0.0027 -0.0504 -0.0639
13833W        W32687  12.533  12.425  16.347  0.3322 -0.1551  0.2034
13834W        W32688  15.518   6.804   4.106  0.1379 -0.0482 -0.1154
13835W        W32689   1.148   4.907   2.111  0.2133  0.2219  0.3423
13836W        W32690  11.063   7.062  15.212  0.3066 -0.1809  0.1966
13837W        W32691  17.380   7.791   3.199 -0.3292  0.0112  0.0212
13838W        W32692  17.386   3.492  10.857  0.1470 -0.2240 -0.1479
13839W        W32693   0.357  13.988   0.672  0.0812  0.5648 -0.0075
13840W        W32694  12.803  13.488   2.029  0.0892 -0.2538 -0.0558
13841W        W32695   3.519   1.736   1.613  0.0949  0.1272  0.0876
13842W        W32696   8.863  10.478  13.586  0.2305  0.5220  0.2130
13843W        W32697   7.405   7.814  14.574 -0.2951 -0.2313 -0.1032
13844W        W32698  10.216  12.195   1.967  0.1288  0.1346 -0.0869
13845W        W32699  17.592  16.206  12.983  0.4282 -0.0283 -0.1534
13846W        W32700   0.432   4.633   2.203  0.1524  0.0804  0.1553
13847W        W32701   2.073   8.991  15.645  0.0425  0.2802  0.0201
13848W        W32702   8.263  13.210  12.671 -0.2247  0.0827  0.0172
13849W        W32703   5.196   1.637  13.299 -0.0336 -0.0756  0.2598
13850W        W32704   9.917  15.707   0.162 -0.2361  0.2685 -0.0619
13851W        W32705  11.445   8.137   0.430  0.0916  0.2037  0.0153
13852W        W32706  12.788   6.848  13.401 -0.2670 -0.3668  0.1188
13853W        W32707   9.199   3.257   0.678  0.0386  0.1046 -0.1562
13854W        W32708  13.604   5.412   5.089 -0.1571 -0.3150  0.3704
13855W        W32709   1.867   3.804   1.185 -0.0642 -0.1716 -0.0766
13856W        W32710   5.952   5.184   0.669 -0.1535  0.0583 -0.1684
13857W        W32711  10.737  15.599   1.674 -0.0455 -0.2679 -0.0669
13858W        W32712   2.055  11.580  16.329 -0.1100 -0.3301  0.1392
13859W        W32713   9.288   0.439  14.826 -0.0521  0.0879  0.1287
13860W        W32714  16.359  15.144  17.185 -0.2145 -0.2707  0.1223
13861W        W32715  11.899  13.140   1.210 -0.2036 -0.0354  0.0573
13862W        W32716  10.172  17.380   2.941 -0.0420 -0.1094 -0.3345
13863W        W32717   5.839   3.267  15.009  0.4045  0.1433 -0.1134
13864W        W32718   8.554  12.148   1.165 -0.0774 -0.2891 -0.2430
13865W        W32719  13.881   9.341  14.615  0.0508 -0.1104  0.0865
13866W        W32720   5.459  14.210   2.248 -0.4553  0.2339 -0.0391
13867W        W32721  11.924  12.493   1.815  0.2245  0.0151  0.0239
13868W        W32722  11.855  16.212   3.372 -0.0799 -0.2439  0.0041
13869W        W32723  13.561  11.327  16.949 -0.1561  0.1983  0.0478
13870W        W32724   6.543   8.379  17.116  0.2626 -0.0581  0.0919
13871W        W32725  15.399  10.594  14.860 -0.0083  0.1151 -0.2093
13872W        W32726   2.564  12.425   0.721  0.1700  0.3312  0.0890
13873W        W32727  17.297   2.176  12.899  0.0991 -0.1518 -0.0718
13874W        W32728   8.332   1.065   1.533 -0.0897 -0.0351  0.0374
13875W        W32729   0.507  12.572   1.748  0.1293  0.2079  0.1697
13876W        W32730   7.388  16.176  15.158 -0.0543  0.2525  0.0603
13877W        W32731  17.551   7.263  12.031  0.2859  0.1352  0.0571
13878W        W32732   1.672   5.721  16.574 -0.3404 -0.0808 -0.1050
13879W        W32733   2.164   4.596   3.590  0.2479 -0.0312 -0.1237
13880W        W32734   7.852   6.363  13.677 -0.1457 -0.3912  0.1774
13881W        W32735  12.895   5.212  16.850 -0.0476 -0.3109 -0.1820
13882W        W32736   8.153   6.172  14.359 -0.0471  0.2765 -0.0082
13883W        W32737   7.266   2.173  16.655 -0.0162 -0.3010 -0.3150
13884W        W32738   7.272   6.932   3.891  0.0070 -0.1931 -0.0704
13885W        W32739  14.585  13.961  14.761  0.0447  0.2687 -0.3361
13886W        W32740   9.186  12.302  13.206 -0.2577 -0.1491 -0.2114
13887W        W32741   6.539   4.051  15.061  0.0428  0.1023 -0.1067
13888W        W32742   0.838   6.471   1.513 -0.2183  0.0005 -0.1130
13889W        W32743  15.234   1.494  14.495  0.1870  0.0952  0.1007
13890W        W32744  15.901   4.852   1.133 -0.1840  0.1858  0.3263
13891W        W32745  12.551  14.270  14.850 -0.1291  0.1352 -0.0280
13892W        W32746   5.601  13.534  13.190 -0.1664  0.1691 -0.2769
13893W        W32747   7.511   3.209  16.514 -0.1728  0.4828 -0.0098
13894W        W32748   4.797  15.276   2.746  0.1485 -0.1156  0.1526
13895W        W32749   2.074   2.676  13.078  0.0023  0.0641  0.0605
13896W        W32750   9.433   1.543  14.957 -0.4387 -0.5490  0.1455
13897W        W32751  13.208  14.047  12.532 -0.1213  0.0879 -0.2427
13898W        W32752   6.515   1.862   4.289 -0.2186  0.0772 -0.0996
13899W        W32753  15.550  11.966   1.796 -0.0641  0.0830  0.0767
13900W        W32754   5.416   0.033   0.760 -0.0262  0.0897 -0.1081
13901W        W32755  12.363   6.820  15.660  0.0588  0.1580  0.1318
13902W        W32756   0.083  13.781   2.608 -0.2524  0.1782 -0.1458
13903W        W32757   9.035   6.009   3.500  0.0809  0.2983  0.2196
13904W        W32758  14.434  15.961   0.524  0.0918 -0.1495  0.1292
13905W        W32759  13.517   6.549   0.236  0.1834 -0.0500 -0.1578
13906W        W32760  10.139   1.412  15.375  0.1938 -0.0689 -0.4255
13907W        W32761   6.228   7.367  16.518 -0.1448 -0.1676  0.1541
13908W        W32762   3.419  11.748   2.277  0.2603  0.2861  0.0816
13909W        W32763  13.851  17.146   3.699 -0.1254 -0.1729 -0.1224
13910W        W32764  12.844  15.685   0.990 -0.0244  0.0635  0.0382
13911W        W32765  15.271   1.392   1.011 -0.0507  0.1599 -0.0852
13912W        W32766  16.026  16.684  12.136 -0.0924 -0.0652 -0.1137
13913W        W32767  12.046   9.896  15.349  0.0373 -0.1163  0.0618
13914W        W32768   5.546  16.608   3.714 -0.2310  0.0972 -0.3554
13915W        W32769  16.685   0.253  16.226 -0.2397 -0.1428 -0.1668
13916W        W32770  15.893  16.639   3.361 -0.0694 -0.0409  0.0442
13917W        W32771   8.166   3.952  17.215  0.2522 -0.2064  0.1020
13918W        W32772  16.457   1.000   2.274  0.2874  0.0806  0.1254
13919W        W32773   8.390   9.890   4.823  0.1730  0.2616 -0.1293
13920W        W32774   1.163  16.605  13.746 -0.0583 -0.0760 -0.1316
13921W        W32775  15.304   9.763   2.839  0.1491  0.0101  0.0426
13922W        W32776   6.568   5.133  16.824  0.0027 -0.0898  0.0723
13923W        W32777   0.694  17.576   3.744  0.0780 -0.1093  0.0287
13924W        W32778  11.447   0.366  12.611  0.1116  0.1330 -0.1784
13925W        W32779  12.267   1.399  16.701  0.3502 -0.1256 -0.3012
13926W        W32780   2.551   8.981   2.009  0.2740  0.0936 -0.3136
13927W        W32781   7.328   2.056  15.096  0.1631  0.0861 -0.0534
13928W        W32782  15.544   4.397   3.506 -0.0079  0.1189  0.1902
13929W        W32783   0.849   3.810  14.003  0.4368 -0.1373  0.1442
13930W        W32784  16.103   6.100  12.922 -0.2596  0.0146 -0.1139
13931W        W32785   4.412   2.603  14.844 -0.0032 -0.1714 -0.1456
13932W        W32786  13.364   6.147  16.458  0.1166 -0.2933  0.1070
13933W        W32787   6.375  11.680  13.309 -0.2602 -0.0461  0.2844
13934W        W32788  11.190   5.111   2.435 -0.2357  0.1548  0.0127
13935W        W32789  17.128  14.321   2.297 -0.1307  0.1213 -0.2105
13936W        W32790   5.550  17.488  15.794  0.0278 -0.3754 -0.1671
13937W        W32791  16.249   2.590   3.563 -0.0143  0.2657 -0.0132
13938W        W32792  17.519   1.713  16.492  0.0508  0.2362 -0.0560
13939W        W32793   9.541   7.307   2.443 -0.2044 -0.0271  0.0573
13940W        W32794   2.325  14.672   4.682  0.1887 -0.1494  0.0077
13941W        W32795  16.837  14.641   0.891  0.0704 -0.1189 -0.1538
13942W        W32796   8.124   2.782  12.637  0.4945 -0.0307 -0.0834
13943W        W32797  16.052  13.510  16.431 -0.3304  0.2335  0.1435
13944W        W32798  11.961  16.933  13.028  0.3480  0.1937  0.0951
13945W        W32799  12.656  11.831  17.164 -0.0640  0.2641 -0.3650
13946W        W32800   0.164  14.576  16.719 -0.0545  0.1717 -0.2802
13947W        W32801  16.247  16.084  15.685 -0.0627  0.1109  0.0379
13948W        W32802  10.222   6.257   4.702 -0.0434 -0.1070 -0.0675
13949W        W32803  16.119  13.008  12.456  0.0205 -0.0669 -0.2524
13950W        W32804   6.507  13.957  15.510 -0.1666  0.4562  0.0736
13951W        W32805  10.441   0.498   0.822 -0.0470 -0.2598  0.2597
13952W        W32806  12.943   1.882   0.542  0.1489  0.0978  0.3970
13953W        W32807  11.736   1.815  12.349 -0.1598  0.2111 -0.4044
13954W        W32808  11.583  14.216   0.308 -0.0809  0.0831 -0.2879
13955W        W32809  13.805   5.167  13.746  0.0744 -0.0330  0.2729
13956W        W32810  13.236   0.417  15.517  0.0684 -0.1388  0.2434
13957W        W32811   5.530   2.309  16.574  0.0240 -0.0274  0.0155
13958W        W32812   8.717   1.546  16.660  0.1625 -0.0260  0.0441
13959W        W32813  15.283   6.681  12.109  0.1349  0.0969 -0.0853
13960W        W32814  13.902   4.980   5.088 -0.1223 -0.2033  0.3441
13961W        W32815  12.899  15.328   2.004 -0.1826  0.2708  0.1060
13962W        W32816   6.015   4.222  15.894 -0.3133  0.4588  0.3090
13963W        W32817   8.777   9.623  13.060 -0.0296  0.2150 -0.0706
13964W        W32818   7.658   7.727  14.143  0.3554 -0.0818 -0.2204
13965W        W32819  17.467   1.892  13.282  0.0983  0.1313 -0.0902
13966W        W32820   5.483  11.075   2.597  0.0844 -0.0721  0.2944
13967W        W32821  13.559   7.052   0.338 -0.2717 -0.1418  0.1631
13968W        W32822  16.826  10.602   5.106 -0.1428  0.3059  0.0917
13969W        W32823   2.004  11.749   0.613 -0.1435  0.0567  0.0362
13970W        W32824  12.649  11.451  16.591  0.2303  0.0110  0.2444
13971W        W32825   3.705  17.068  13.585  0.0291  0.1410 -0.2183
13972W        W32826   3.096   3.659   5.559 -0.1033 -0.1562 -0.2026
13973W        W32827   1.807   8.755   1.128  0.2131  0.0265 -0.0956
13974W        W32828  11.915   3.992   2.780 -0.1145  0.1696  0.1496
13975W        W32829   4.846  11.755   1.538 -0.0528 -0.3190 -0.1366
13976W        W32830  11.155   8.800  14.087 -0.3003 -0.0857 -0.0514
13977W        W32831   5.772  13.855   4.421 -0.1742 -0.0692 -0.1084
13978W        W32832   6.431  12.020   2.839  0.2157  0.2033  0.3586
13979W        W32833   0.839   6.194   3.130 -0.3106 -0.1391  0.3320
13980W        W32834  14.310  11.410   4.678  0.1785 -0.2210  0.5528
13981W        W32835  13.743   1.626  13.939 -0.0202  0.2561  0.0085
13982W        W32836   6.486   7.496   2.912  0.1341 -0.2761  0.0694
13983W        W32837   7.758   4.531  13.131  0.1305  0.3246 -0.3757
13984W        W32838  16.022  13.644  15.944  0.2380 -0.3751  0.1556
13985W        W32839   8.563   2.214  14.750  0.1413 -0.1114  0.2401
13986W        W32840   4.748  15.235  13.082 -0.1402 -0.1036  0.3787
13987W        W32841   3.469   4.209   0.806  0.0189 -0.1362 -0.0728
13988W        W32842   7.182  10.219   0.900 -0.2187  0.3152 -0.1679
13989W        W32843   5.433  13.711   2.364  0.0060  0.2437  0.0968
13990W        W32844   6.715  10.289  14.068 -0.0147  0.0084 -0.2293
13991W        W32845   6.764   4.405   1.005  0.0619 -0.1636 -0.1031
13992W        W32846  11.120  14.347  14.134 -0.2214 -0.0513 -0.0750
13993W        W32847  11.003  11.964  15.757  0.3454 -0.0378 -0.0504
13994W        W32848   4.615  14.256   2.709 -0.1516 -0.4892  0.1703
13995W        W32849   4.360   0.330  13.458 -0.0202  0.1417 -0.1461
13996W        W32850   2.285   4.058   4.142  0.0344  0.1550  0.0784
13997W        W32851   5.296   3.882  12.398 -0.0976 -0.0848 -0.2365
13998W        W32852   7.045  15.086  13.606 -0.3134 -0.2849  0.0981
13999W        W32853  14.643   4.318   3.423 -0.1473  0.0484 -0.3387
14000W        W32854  10.100   1.315  14.503 -0.0534 -0.1678  0.0289
14001W        W32855   6.345  17.053   3.648  0.1709  0.0436 -0.2242
14002W        W32856  11.096   0.509  15.788  0.2809  0.0035  0.1814
14003W        W32857   7.945  15.417   1.956  0.0315  0.0613  0.1825
14004W        W32858   1.495   2.389  17.152  0.0069  0.0771  0.1096
14005W        W32859   2.200  17.306  14.577  0.1368  0.2420  0.1302
14006W        W32860  13.788   1.163  13.399  0.0809  0.3855 -0.1681
14007W        W32861  10.821  12.670   0.629 -0.0029  0.4131  0.0255
14008W        W32862   5.010   7.289  12.397  0.0908  0.0173 -0.1393
14009W        W32863   3.826   5.724  14.823 -0.1379  0.2017 -0.0275
14010W        W32864  13.172  13.630  16.220  0.1942  0.4172  0.0601
14011W        W32865  14.451  12.474   2.748  0.0576 -0.2228 -0.0094
14012W        W32866  12.116   6.850  12.479  0.0456 -0.1876 -0.1283
14013W        W32867  12.485  13.801  16.820  0.1501 -0.2480  0.0560
14014W        W32868   8.438  10.982  12.226 -0.2056  0.1067 -0.1041
14015W        W32869   0.162  17.043  15.154  0.0225 -0.1665 -0.2712
14016W        W32870  13.426   0.463   2.446 -0.2989 -0.2059 -0.0509
14017W        W32871   2.214   9.092   3.602 -0.2792 -0.1553 -0.2003
14018W        W32872   8.141   5.356   3.615 -0.1297 -0.0372  0.1909
14019W        W32873   9.204   8.698   0.218 -0.0016  0.1758  0.1288
14020W        W32874  16.534   7.000  14.800 -0.0709 -0.2442 -0.2256
14021W        W32875   3.897  17.269   2.459  0.1226  0.0874 -0.0032
14022W        W32876   0.881   7.004   2.720  0.1060  0.0236  0.3239
14023W        W32877  15.533  13.970   4.369  0.2679  0.1161  0.0260
14024W        W32878   8.777  13.719   3.810 -0.0345 -0.0277  0.3405
14025W        W32879   8.654   5.551  16.691  0.1530  0.0425  0.1093
14026W        W32880  16.390   2.861   1.970  0.2170  0.0712  0.1575
14027W        W32881   4.722   0.649   2.114  0.0990 -0.0869  0.2456
14028W        W32882   0.344  16.513  12.624 -0.1421 -0.2134 -0.0712
14029W        W32883  10.808   8.684   1.813 -0.3421 -0.1575  0.0660
14030W        W32884   9.764  16.346   3.817  0.0633  0.1678 -0.0152
14031W        W32885  14.138   3.900   5.752  0.1900  0.1307  0.0162
14032W        W32886   1.744  10.660  12.825 -0.2432 -0.1660  0.0306
14033W        W32887   9.330   7.527  16.873  0.1881  0.4006  0.1474
14034W        W32888   9.103   7.949  16.786  0.3045  0.1185  0.0149
14035W        W32889  11.900  15.636   1.866  0.1122 -0.0073  0.3519
14036W        W32890   8.141  12.028  14.225  0.0480 -0.1006 -0.1958
14037W        W32891  16.434   2.219  13.648  0.0615  0.0792 -0.0355
14038W        W32892   6.072   9.085  15.829 -0.2326 -0.1164  0.1257
14039W        W32893   9.724   4.098   2.823  0.1462 -0.2537  0.0913
14040W        W32894  16.145   8.059  12.288 -0.3156 -0.0974 -0.1431
14041W        W32895   8.709   5.635  12.433  0.1502  0.0829  0.1780
14042W        W32896   2.386   9.879   0.889 -0.1814  0.2115  0.3360
14043W        W32897  15.681   2.137  12.834  0.1176  0.2416  0.0314
14044W        W32898   2.932   5.333  14.515 -0.1052  0.1699 -0.1852
14045W        W32899   1.344  11.851  16.838 -0.0082  0.0296 -0.0996
14046W        W32900   6.726  16.471  13.418 -0.3506 -0.0240 -0.0674
14047W        W32901  11.330   8.547   1.777 -0.1692 -0.1399 -0.0908
14048W        W32902   7.149  15.592  16.036 -0.0357  0.1255 -0.0851
14049W        W32903  11.387   6.696  15.303  0.2242 -0.2189 -0.1909
14050W        W32904   2.322   2.500   1.026  0.1328 -0.4039  0.3191
14051W        W32905   1.975  15.779   0.749  0.0125 -0.1205 -0.0652
14052W        W32906  13.572   5.359   1.464  0.0099 -0.2281 -0.2864
14053W        W32907   3.295   0.125  15.629  0.0331  0.0517 -0.2171
14054W        W32908  14.272  13.660  13.777  0.0390 -0.0113 -0.2042
14055W        W32909   5.945   8.017   3.495  0.1800  0.0238 -0.3377
14056W        W32910  15.751  15.576  14.750 -0.0621  0.2526  0.3638
14057W        W32911   7.430   5.402   5.141 -0.1146  0.2187  0.0792
14058W        W32912  16.405  14.479  16.716  0.0049 -0.1645 -0.3948
14059W        W32913   7.094  13.515  16.283 -0.0874 -0.1026 -0.0442
14060W        W32914   2.466   8.559   5.272 -0.3987  0.3288 -0.1213
14061W        W32915   4.490   0.529  17.126 -0.1093  0.0977  0.1324
14062W        W32916   2.729   3.706  15.019  0.0801  0.0064 -0.0380
14063W        W32917  17.357   5.379  14.403 -0.1422 -0.0174 -0.2334
14064W        W32918   5.621  16.801  13.481  0.2659 -0.1108  0.3333
14065W        W32919   2.951  14.235   2.213 -0.3491  0.0025  0.0011
14066W        W32920  14.482  12.666   0.572 -0.0001 -0.0716 -0.0376
14067W        W32921   6.631  16.621   0.214  0.2776 -0.1960  0.0448
14068W        W32922  10.418  16.231   2.318  0.0919 -0.1122 -0.0913
14069W        W32923   1.627  14.072   3.550 -0.2581  0.1943 -0.0417
14070W        W32924   4.738   3.045   4.826 -0.0557  0.1826  0.0433
14071W        W32925  12.827  12.560   3.005  0.0100  0.0801  0.3243
14072W        W32926   5.572  12.331  12.350  0.1305 -0.1469  0.1923
14073W        W32927   2.272   7.416  12.398  0.2165  0.2732 -0.0659
14074W        W32928   6.559   8.186   2.201 -0.1594 -0.1830 -0.2590
14075W        W32929  16.654  16.328   0.506  0.0480 -0.0470  0.1441
14076W        W32930   6.322  13.319  13.898  0.3135 -0.0304  0.1223
14077W        W32931   4.958  10.163  15.645 -0.0784  0.2147  0.0885
14078W        W32932  11.087  12.461  13.575  0.1834 -0.0390  0.3759
14079W        W32933   2.732  14.160  15.418  0.1973  0.0408 -0.2565
14080W        W32934   7.599   2.611   3.179  0.2644 -0.0291  0.1676
14081W        W32935   7.878  11.780   2.530  0.2132  0.1137  0.1937
14082W        W32936   5.516  15.554   1.953  0.0575 -0.3388  0.2712
14083W        W32937   8.926  10.505   3.447 -0.0452  0.0003  0.0811
14084W        W32938  10.973   3.597  15.561 -0.1969 -0.1339  0.0849
14085W        W32939  12.229   2.713  12.341 -0.0906  0.2920  0.3742
14086W        W32940   4.873   2.027   4.789 -0.0159 -0.0171  0.0633
14087W        W32941  15.925  11.549  14.017  0.1961  0.0379 -0.1944
14088W        W32942   8.571   8.669  12.330  0.0736  0.2137  0.3476
14089W        W32943  15.247  12.383   0.886 -0.0714 -0.0966  0.3102
14090W        W32944  10.231   0.381  16.561  0.1776  0.3056  0.1387
14091W        W32945  17.073   8.833   4.681  0.1647 -0.3325 -0.0791
14092W        W32946  12.411   7.367  16.269 -0.0907  0.0381 -0.0001
14093W        W32947   4.317  16.689  16.692  0.0237  0.1458  0.0195
14094W        W32948   9.594   4.271   2.343 -0.2096  0.0096 -0.0292
14095W        W32949  11.772  11.737  15.449  0.0122 -0.0444 -0.0612
14096W        W32950  11.308   7.550   2.044 -0.1203 -0.0315  0.2572
14097W        W32951   8.010   1.632  12.480 -0.0083  0.3106 -0.1312
14098W        W32952  13.058   5.394  14.089 -0.0741 -0.1031 -0.3168
14099W        W32953   8.442  15.910   0.660  0.1628  0.1842 -0.4819
14100W        W32954  16.432   7.168   4.964 -0.1253  0.2653 -0.1623
14101W        W32955   1.158  12.170  13.147  0.2063  0.0199  0.1169
14102W        W32956  15.628  13.225  15.863 -0.0240  0.0563  0.1209
14103W        W32957   3.226  15.770   2.036  0.0622  0.0663  0.0035
14104W        W32958   4.286  12.104  14.911  0.1014  0.0299  0.0717
14105W        W32959  16.987   3.555   4.937 -0.1391 -0.0649  0.1993
14106W        W32960   0.080   4.670   4.753 -0.0360 -0.0134 -0.1669
14107W        W32961   6.029   1.409   2.967 -0.0574 -0.1340  0.2425
14108W        W32962  14.652  13.187   5.090  0.0046  0.0372 -0.2704
14109W        W32963   8.646  10.967  13.754 -0.0418  0.3114  0.2489
14110W        W32964  13.280   1.238   1.992 -0.1320  0.3003  0.0232
14111W        W32965   7.494   2.126   0.286 -0.1470  0.1619 -0.0225
14112W        W32966   6.244   9.358   0.482  0.2723 -0.0596 -0.2088
14113W        W32967  13.759   7.810  16.661 -0.2702 -0.3523 -0.1190
14114W        W32968  10.739   9.392  16.941 -0.0681  0.0038 -0.1261
14115W        W32969  11.717  13.461  13.479 -0.1138 -0.1316 -0.0379
14116W        W32970   2.613  12.181  16.689  0.0196 -0.3013  0.1851
14117W        W32971   1.542  15.631  14.033 -0.2718  0.1229 -0.0560
14118W        W32972  14.033   9.853   0.998  0.1947 -0.1654  0.1460
14119W        W32973  14.435  16.914   1.233 -0.0531 -0.3307 -0.1140
14120W        W32974   5.611   7.075  15.218  0.2513 -0.2704  0.4303
14121W        W32975   0.472   0.186   6.021  0.1501 -0.0649  0.0097
14122W        W32976   0.834   6.543  12.180 -0.0363  0.1597 -0.1366
14123W        W32977   8.129   7.623   4.518 -0.3309 -0.0781 -0.1819
14124W        W32978   8.438  10.575   0.013  0.2373 -0.2303 -0.0459
14125W        W32979  15.748  10.786  12.259 -0.1434 -0.0768  0.0778
14126W        W32980   3.235   8.001  15.734  0.0137 -0.0233 -0.2389
14127W        W32981  14.239   2.237  16.981  0.2154 -0.1704  0.2342
14128W        W32982   3.152  16.026   3.279  0.2069  0.0729  0.0965
14129W        W32983  14.803   1.904   2.652  0.1409  0.0260  0.1751
14130W        W32984   6.411   3.767   0.527  0.4199  0.3053 -0.1743
14131W        W32985   8.499  13.254   1.823  0.1318 -0.0351 -0.1654
14132W        W32986   0.023  12.431   4.911  0.2410 -0.0417 -0.1555
14133W        W32987   9.623   3.674  14.179  0.2073  0.0311  0.1213
14134W        W32988   5.307  11.841  12.965  0.2019  0.3760  0.2079
14135W        W32989   8.511  13.225  14.555  0.1044 -0.3530  0.0072
14136W        W32990   9.877   0.263   4.277  0.0625  0.1620  0.0476
14137W        W32991   8.905   4.337   4.714 -0.0555  0.0328  0.2452
14138W        W32992  16.109  12.507   0.454  0.2078 -0.0204  0.1116
14139W        W32993   3.093   0.175  12.170  0.1209  0.1333 -0.0157
14140W        W32994   4.985   8.043  14.086 -0.1065 -0.1436  0.0714
14141W        W32995  11.157   5.223   4.519  0.2192  0.3333  0.0617
14142W        W32996   2.470   1.064   0.250  0.0022  0.0095  0.0255
14143W        W32997  10.890   7.080  16.888 -0.0133  0.1024  0.2231
14144W        W32998  11.208   7.936   4.947 -0.2456 -0.0200 -0.0892
14145W        W32999  15.875  16.388  16.499  0.0463 -0.0427 -0.0913
14146W        W33000  13.274   5.879   3.748  0.0468 -0.2865 -0.0605
14147W        W33001  10.454   8.671   0.625 -0.0016  0.1971 -0.2752
14148W        W33002   8.760   9.180  16.190  0.2674 -0.0623 -0.1692
14149W        W33003  14.510   6.372   3.579  0.0608 -0.0791  0.1422
14150W        W33004  12.233   8.772  13.440  0.0631 -0.2825  0.3098
14151W        W33005  15.371   2.446  14.961  0.0670 -0.0707  0.3887
14152W        W33006   8.652   5.028   0.776  0.2234  0.1142  0.0471
14153W        W33007  15.374   6.982  15.226  0.1072 -0.0072 -0.3010
14154W        W33008   2.939   1.063   2.228 -0.1120  0.2244 -0.4386
14155W        W33009  13.719   5.333  13.266 -0.0787  0.0668 -0.2054
14156W        W33010   5.654  10.022  16.675  0.0932 -0.1162  0.1564
14157W        W33011  14.575   6.450  16.660  0.1496 -0.1526  0.1147
14158W        W33012   8.175  15.964  15.827 -0.2813  0.1392  0.0080
14159W        W33013   5.373   8.771  12.341 -0.1286  0.0304 -0.2837
14160W        W33014  10.836   4.256  12.775 -0.2213  0.1838  0.0970
14161W        W33015   8.465  12.476   1.551  0.0526 -0.0797 -0.0522
14162W        W33016   8.490   0.284  16.541  0.0576 -0.1097 -0.0060
14163W        W33017   5.695   5.578   0.563 -0.0015 -0.1591  0.0609
14164W        W33018   3.834  13.210   3.275  0.0366 -0.0374 -0.1118
14165W        W33019  17.418  14.455  13.706 -0.1183 -0.2275  0.1406
14166W        W33020   7.087  14.217  13.237  0.2704  0.1144 -0.1215
14167W        W33021  17.490  12.992  16.939  0.0202  0.2157  0.3779
14168W        W33022  11.546  15.259  15.874 -0.2028 -0.3360 -0.0204
14169W        W33023   1.517  13.215  16.612 -0.1497 -0.0076  0.1307
14170W        W33024  16.405  14.713  15.722 -0.2850 -0.2373 -0.3126
14171W        W33025   5.920   4.629  14.987  0.1849  0.0172  0.0669
14172W        W33026   6.622  14.484  12.958  0.1258  0.2256 -0.0361
14173W        W33027  12.866   2.694  17.129 -0.0798  0.0132 -0.0937
14174W        W33028   3.247   0.149   4.640  0.2266 -0.0420  0.0624
14175W        W33029  14.158  15.485  14.732 -0.1057 -0.0566  0.2494
14176W        W33030   4.771   5.205  15.559  0.0342 -0.3547  0.0643
14177W        W33031   6.071   2.643   3.135 -0.0056 -0.0120 -0.0169
14178W        W33032   3.632   9.958   4.452  0.2139 -0.1933 -0.0878
14179W        W33033   0.612   4.877   1.764 -0.1105  0.0684  0.3575
14180W        W33034   7.589   5.406   2.279 -0.0670  0.0823  0.3722
14181W        W33035  14.830   5.194   3.635 -0.0885 -0.2856 -0.2275
14182W        W33036   2.158   4.379  15.201  0.0348 -0.2425  0.3129
14183W        W33037   9.785   3.280   0.345 -0.2309 -0.0982  0.2301
14184W        W33038   4.218  17.052  13.551  0.0557  0.1925  0.3455
14185W        W33039   8.476  10.720  12.711 -0.3438  0.2364  0.3203
14186W        W33040   1.234  16.813  12.929 -0.0785  0.0774  0.2434
14187W        W33041   5.605  11.506  12.716 -0.2814 -0.0989 -0.4327
14188W        W33042   8.297   8.925   4.938 -0.1741  0.3411 -0.1000
14189W        W33043  11.089  14.419  15.067  0.0886 -0.0613  0.2049
14190W        W33044  14.024  14.140  13.966 -0.1019  0.0780 -0.1845
14191W        W33045  11.046  10.077   2.832 -0.0036 -0.3830 -0.1900
14192W        W33046   3.504   0.524  14.364 -0.1474  0.1463  0.1810
14193W        W33047   4.324  12.570   1.334  0.1431 -0.3084  0.0493
14194W        W33048  15.425  10.633   1.948 -0.0690 -0.2812 -0.2538
14195W        W33049  12.620  14.439   4.767  0.0737  0.2910  0.0316
14196W        W33050   8.123   0.607   4.968 -0.2599 -0.0894  0.0121
14197W        W33051  10.009  10.492  15.686 -0.1390  0.3350  0.1629
14198W        W33052  14.688  12.858  15.490  0.3325  0.1286  0.2078
14199W        W33053  14.347   9.154  15.427 -0.0807 -0.1166 -0.1036
14200W        W33054   3.883   6.527  13.061  0.1369  0.3180  0.2477
14201W        W33055   1.374   5.724  12.946 -0.1436  0.0592 -0.0355
14202W        W33056   2.119   7.366   2.095  0.0973  0.1587 -0.0243
14203W        W33057   5.764   0.300   2.552 -0.0442  0.0990 -0.3593
14204W        W33058   5.368  12.257  13.316 -0.0797  0.1938  0.1660
14205W        W33059  14.700   2.198  12.946 -0.1222 -0.0830 -0.3353
14206W        W33060   2.975   0.911   4.062 -0.0682 -0.1620 -0.1042
14207W        W33061   8.347  15.651   1.128 -0.1219  0.1864 -0.1809
14208W        W33062   1.803   3.666   2.544  0.1200  0.0000  0.0885
14209W        W33063   8.428  17.292   1.005 -0.1941  0.0765  0.3471
14210W        W33064   5.276   4.548   5.143  0.0299  0.0660 -0.0442
14211W        W33065   2.773  11.401  15.396  0.0457  0.0090  0.0621
14212W        W33066   2.563   9.839   2.152  0.2232  0.1732 -0.0481
14213W        W33067   8.632  11.844  14.518 -0.1510 -0.0577 -0.0841
14214W        W33068   3.619   4.708  14.919  0.1531  0.2609 -0.0042
14215W        W33069   4.680   6.410  12.672  0.1537 -0.1945 -0.0590
14216W        W33070  14.247   7.534  14.948  0.1543 -0.1983 -0.1203
14217W        W33071  12.814  12.404  13.922 -0.0497 -0.0600  0.3944
14218W        W33072  10.587   6.113  15.590  0.2518 -0.1461 -0.1117
14219W        W33073  14.003  10.892  15.685 -0.0560 -0.1443  0.2283
14220W        W33074  15.427   5.529   2.827 -0.0959  0.1675  0.0684
14221W        W33075  12.204  10.294  15.644  0.0538  0.1050  0.1571
14222W        W33076  15.861   7.972   4.072 -0.3232 -0.0689  0.1914
14223W        W33077   8.726   5.552  14.440 -0.1216  0.3345 -0.0379
14224W        W33078  13.300  11.213   3.535  0.0966  0.0132 -0.1924
14225W        W33079   9.042  16.607  16.702 -0.0430  0.0246 -0.0965
14226W        W33080  13.695  12.137  12.819 -0.2298 -0.2673 -0.1193
14227W        W33081   6.006   3.791   3.727 -0.2686 -0.0235 -0.1932
14228W        W33082  13.982  11.073  16.216 -0.0468  0.2117 -0.3904
14229W        W33083   3.324   1.500   4.298 -0.0406  0.1445  0.2034
14230W        W33084  13.233   9.360   5.403 -0.0565  0.3163  0.0737
14231W        W33085   2.292  16.690  16.147 -0.0277 -0.1258  0.0222
14232W        W33086   9.823  15.477  13.537  0.1857  0.0269 -0.2646
14233W        W33087  17.522   2.845   4.596 -0.3150 -0.1386  0.3483
14234W        W33088  12.371   1.006   2.701  0.1592 -0.0074 -0.3302
14235W        W33089  10.682   5.771  13.727 -0.1679  0.1432 -0.2209
14236W        W33090   1.100   4.866   1.051  0.1852  0.0064 -0.1024
14237W        W33091  10.844  15.792   4.553  0.0382 -0.0407 -0.1593
14238W        W33092  16.175   3.086   0.694  0.1184  0.0237  0.1755
14239W        W33093   2.913  10.182   4.768  0.2676 -0.0395  0.1190
14240W        W33094   0.231   1.284  16.145 -0.1090 -0.0582 -0.4230
14241W        W33095   3.347   8.512  15.917 -0.0463 -0.0510  0.2289
14242W        W33096   0.608  15.245   0.093 -0.1731  0.0427  0.0206
14243W        W33097   9.178   8.492   2.514 -0.1297  0.1507  0.3828
14244W        W33098   2.222  16.566  12.978  0.2772  0.0176  0.0898
14245W        W33099  13.572   0.213  12.687 -0.1412  0.0858 -0.1592
14246W        W33100   6.675  13.669   2.696  0.0861  0.4420  0.0305
14247W        W33101   5.047  10.175  12.466  0.1946  0.2434 -0.1328
14248W        W33102   5.678   9.270   1.368 -0.1840 -0.2612 -0.1916
14249W        W33103  14.605  17.549   1.977  0.1643  0.1181  0.1720
14250W        W33104   2.552  16.012   2.551  0.1736  0.1446  0.1762
14251W        W33105  13.941  11.879   0.595 -0.0690  0.2135  0.2001
14252W        W33106   4.875   0.481   2.931  0.0717 -0.1671  0.1538
14253W        W33107   7.625  15.424   4.780 -0.1584 -0.2040  0.1636
14254W        W33108  16.092   3.774   3.922  0.2180 -0.0411 -0.2017
14255W        W33109   5.954   9.593  16.906 -0.0011  0.0848  0.3633
14256W        W33110   8.956  10.481  15.687 -0.0988 -0.2489 -0.0896
14257W        W33111   1.419   6.472  16.609  0.2676  0.1034 -0.2778
14258W        W33112  11.728   6.922   4.373 -0.1294 -0.0810 -0.3427
14259W        W33113  14.601   5.424  14.501  0.0120 -0.4761  0.0700
14260W        W33114   5.035   3.865  15.163 -0.0989  0.2197 -0.0429
14261W        W33115   3.239   7.610   2.811  0.0824 -0.1942 -0.2371
14262W        W33116   2.355  12.707   2.970 -0.0955 -0.1508 -0.0852
14263W        W33117  15.429  13.671  14.546  0.1439  0.0053 -0.3556
14264W        W33118  16.575  11.559  12.977 -0.0256 -0.1612  0.1133
14265W        W33119  12.006   7.535   4.682 -0.0548 -0.1164  0.1161
14266W        W33120  14.142   7.380  11.479  0.2730 -0.1245  0.2053
14267W        W33121   4.717   7.720  12.535 -0.1799 -0.1560 -0.1725
14268W        W33122   4.543   6.836  15.017 -0.1422  0.0624  0.1165
14269W        W33123  16.590   0.977  13.213  0.0707  0.1091  0.0063
14270W        W33124   8.779  14.674   4.742 -0.0172  0.1993  0.1311
14271W        W33125   8.003  14.613  16.031  0.0425  0.1413  0.1473
14272W        W33126  12.045   5.074  15.665  0.0405  0.3083  0.5004
14273W        W33127   2.556   9.844  16.247 -0.0987 -0.4868 -0.0274
14274W        W33128  11.449  16.958  15.043  0.0099 -0.3301 -0.2901
14275W        W33129   5.712  12.747   3.993 -0.1230  0.0212  0.1898
14276W        W33130   1.631  11.296  13.836  0.3487 -0.1778 -0.4163
14277W        W33131   8.462   8.296  14.053  0.0527  0.0342 -0.1068
14278W        W33132  15.999   3.537  15.747  0.4201  0.1818 -0.0064
14279W        W33133   1.454  16.197  16.858  0.0386  0.3209 -0.0096
14280W        W33134   9.259  11.920   1.872 -0.4162  0.0281 -0.2908
14281W        W33135   5.841   4.115   0.717  0.1660  0.1122 -0.1240
14282W        W33136  14.403   7.261  16.476  0.0662 -0.0274  0.0757
14283W        W33137  16.245  14.389  12.954 -0.0202 -0.3286  0.2613
14284W        W33138   1.865   3.386  12.339  0.2241 -0.1177  0.0403
14285W        W33139   6.180  12.910   4.822 -0.1507  0.3022  0.0561
14286W        W33140   1.725  15.849  13.124  0.4306 -0.4321 -0.1904
14287W        W33141   6.146  14.696  14.732  0.2089 -0.2047 -0.0857
14288W        W33142  13.650   1.938   5.434  0.1068  0.0660  0.2145
14289W        W33143   4.321  14.751   1.449  0.1845 -0.1770  0.0357
14290W        W33144   6.230  10.116   5.027 -0.1428 -0.1965  0.1749
14291W        W33145  12.598   0.988   1.007  0.0346  0.1960 -0.1752
14292W        W33146  11.143   3.453   3.099  0.0341 -0.2346  0.0640
14293W        W33147  13.000   8.294  13.750  0.0979  0.0238  0.1458
14294W        W33148  16.924   3.841  11.656 -0.0252 -0.1986 -0.0803
14295W        W33149  12.293   0.842   4.257  0.1417  0.0681 -0.2907
14296W        W33150  13.298   9.449   4.909  0.0487 -0.2199 -0.0358
14297W        W33151   2.375   1.200  12.398 -0.2054 -0.0746 -0.1230
14298W        W33152  16.266   5.912   3.922 -0.1036  0.1510 -0.1581
14299W        W33153   9.817  11.724  15.685 -0.0179 -0.0806 -0.2829
14300W        W33154  16.548   4.758  17.063 -0.1229  0.2392 -0.1105
14301W        W33155   0.862   1.154   1.131  0.3408  0.0065 -0.1492
14302W        W33156  16.624   5.358  15.166 -0.1189  0.2778  0.5063
14303W        W33157   0.836  14.719   1.180 -0.0415 -0.1187  0.2687
14304W        W33158  12.123  13.381   3.060  0.0431  0.1769  0.2330
14305W        W33159  13.737   2.648  16.221 -0.0169  0.4678 -0.0908
14306W        W33160  16.029   1.859   3.887 -0.1777  0.0316  0.0287
14307W        W33161   0.040   4.824   5.795  0.2288  0.1834 -0.0405
14308W        W33162  12.866   2.336   4.555 -0.1811 -0.2496  0.0375
14309W        W33163   9.257   1.943   4.310 -0.0233 -0.2486  0.2932
14310W        W33164  17.543  17.579   2.392  0.0791 -0.0447 -0.1294
14311W        W33165  11.637  14.048   1.254  0.0014  0.0939 -0.2282
14312W        W33166   9.097  15.299   2.764 -0.1085  0.2808 -0.1277
14313W        W33167   5.303  15.181  15.487 -0.1944 -0.0129  0.0034
14314W        W33168   9.524   2.698  16.532  0.2990  0.1834  0.0187
14315W        W33169   8.870   9.207  13.906 -0.0980 -0.1092 -0.0717
14316W        W33170  12.090   5.425  13.943  0.1298 -0.1075 -0.2338
14317W        W33171   2.216   7.233  15.674  0.1156  0.1600 -0.1789
14318W        W33172   2.147  12.946  15.582 -0.0818  0.2078  0.1350
14319W        W33173   7.121   1.844   1.659  0.0035  0.3394 -0.2159
14320W        W33174   9.300  15.399   3.704  0.2986  0.1648  0.0193
14321W        W33175  14.680  10.804   2.398  0.0547 -0.1965  0.1735
14322W        W33176  15.937  12.326   1.828  0.2144  0.4135 -0.2891
14323W        W33177   5.195  14.285   4.230  0.0903  0.3437  0.0970
14324W        W33178   3.161  12.979  12.578  0.1132 -0.2659 -0.0349
14325W        W33179   6.467   3.995  13.151 -0.0314 -0.0347  0.0784
14326W        W33180  12.467  14.923  14.255 -0.0150 -0.2739 -0.1676
14327W        W33181   9.447   3.748  16.793  0.2186  0.2972 -0.2495
14328W        W33182   3.606   3.574  12.556 -0.0433  0.2013  0.0039
14329W        W33183  14.829   1.235  14.323 -0.1544 -0.1714 -0.0635
14330W        W33184   2.618   2.191   3.245  0.0498  0.2075 -0.0827
14331W        W33185   8.254  12.742   3.930  0.1052  0.0116  0.2110
14332W        W33186  12.033   9.311  15.960  0.1040 -0.0256 -0.0694
14333W        W33187   7.792  14.991  13.122 -0.0855  0.0073  0.0813
14334W        W33188  17.278   3.207   2.725  0.1925 -0.2335  0.3255
14335W        W33189   7.366   8.062  12.656  0.2052 -0.0116 -0.1855
14336W        W33190   6.899   6.931   3.542  0.2892  0.2717 -0.1120
14337W        W33191   5.440  11.284   0.254 -0.1313 -0.1649 -0.0257
14338W        W33192   9.829  15.977  13.329 -0.1283  0.0472  0.3370
14339W        W33193   8.123  14.445  16.886 -0.1115  0.0595  0.3581
14340W        W33194   2.275   1.745  12.277  0.1288 -0.0975 -0.1109
14341W        W33195   6.600  17.338  15.047 -0.1285 -0.0888 -0.1449
14342W        W33196  14.921  13.028   1.293  0.3118 -0.2351  0.2890
14343W        W33197   2.639   7.275  12.134  0.2143  0.1002  0.2831
14344W        W33198   1.479   1.320  12.707  0.2101  0.0340 -0.3555
14345W        W33199   4.369   9.570   3.802 -0.1860 -0.0372 -0.0195
14346W        W33200   4.896  17.011   3.587  0.1741 -0.0560 -0.0264
14347W        W33201  15.044   0.778  14.375 -0.2180  0.1127  0.0137
14348W        W33202  17.073   1.147   1.994  0.4205  0.1321 -0.0381
14349W        W33203   3.890  11.421  11.254 -0.0649 -0.0066 -0.0880
14350W        W33204   0.442   2.536  14.421 -0.3409 -0.1271 -0.0651
14351W        W33205   3.681  10.015   2.983  0.0315  0.0305 -0.1530
14352W        W33206   2.717   7.556   2.875  0.1022  0.0847 -0.0085
14353W        W33207   9.112   4.873  13.310  0.0135 -0.0894 -0.1620
14354W        W33208   8.361   1.264  14.588 -0.0720 -0.3678 -0.2038
14355W        W33209   9.774   2.554   1.631  0.3178 -0.0252 -0.0584
14356W        W33210  15.636   3.326  16.113  0.1593  0.1352 -0.0759
14357W        W33211  14.369   8.289   3.236  0.0830  0.2181 -0.0013
14358W        W33212   8.826   4.861   4.330 -0.0015 -0.0203  0.0173
14359W        W33213  13.408  15.436   1.630 -0.0797 -0.0774  0.1947
14360W        W33214   6.084   9.969  13.439  0.0045  0.0427  0.0314
14361W        W33215   8.477  17.011   4.247  0.0347 -0.1032  0.0846
14362W        W33216  10.470  11.705   2.125 -0.0576 -0.4764  0.2735
14363W        W33217  16.026   4.416   4.887 -0.0674  0.2743  0.1119
14364W        W33218  17.559   3.690  12.724  0.0885 -0.0411 -0.4204
14365W        W33219   3.649  11.557   2.671 -0.1411 -0.1300  0.3872
14366W        W33220  14.180   6.146  11.926  0.1395 -0.3831 -0.2276
14367W        W33221   5.229  12.153  13.793  0.4570 -0.0242  0.0192
14368W        W33222   6.180   7.120  17.210 -0.3157 -0.0417  0.0072
14369W        W33223  17.233  16.314   3.637 -0.1848 -0.3256 -0.2331
14370W        W33224   5.126  11.425  12.863  0.0634 -0.2259 -0.1279
14371W        W33225   4.200   9.498   4.655 -0.2062  0.0984 -0.0823
14372W        W33226  16.991   4.080  14.511 -0.0513 -0.2272 -0.0701
14373W        W33227   2.679  11.616  15.826  0.1335 -0.0456 -0.0149
14374W        W33228   8.053   4.988   3.195 -0.3494 -0.0045 -0.1519
14375W        W33229   1.030   0.841   4.059 -0.2419  0.0920 -0.0944
14376W        W33230   8.546  14.711  12.713 -0.1847  0.0238 -0.2822
14377W        W33231  10.458  15.642   0.682 -0.1534 -0.1375  0.2053
14378W        W33232   4.999   9.591  12.563  0.0487  0.2577 -0.0545
14379W        W33233  16.836  12.592   3.323  0.3099  0.0595  0.0750
14380W        W33234  11.392  14.196   1.705 -0.3824  0.0461 -0.0468
14381W        W33235  15.209   5.369   2.391 -0.0087 -0.0245 -0.1559
14382W        W33236  12.120   8.866   5.112 -0.1260  0.2089 -0.3784
14383W        W33237   4.376   0.764   1.713  0.1994 -0.0355 -0.0722
14384W        W33238   9.274   1.236   5.614  0.0360  0.1092  0.0431
14385W        W33239  15.257   0.383  16.747 -0.1351 -0.1807 -0.0476
14386W        W33240   4.678   0.251  16.003  0.1758 -0.1648 -0.3190
14387W        W33241   4.117   2.899  12.489 -0.3729 -0.0123 -0.0471
14388W        W33242  11.737   6.256  13.506 -0.1984 -0.0795 -0.3297
14389W        W33243   0.107   7.053   0.127  0.0132  0.1810 -0.0305
14390W        W33244  11.264   2.838   0.157  0.0611  0.0198 -0.2972
14391W        W33245   0.089  14.474   1.474  0.0247  0.2079 -0.0335
14392W        W33246  10.266  15.320  13.583 -0.1646  0.1683 -0.2297
14393W        W33247   6.530   9.034   1.903 -0.1995 -0.0383 -0.3670
14394W        W33248  13.077   5.265   1.405  0.0385  0.1807 -0.0519
14395W        W33249   3.673   6.185   6.530  0.0312  0.0231 -0.1331
14396W        W33250  10.421   8.483   2.113 -0.0266  0.0109 -0.0287
14397W        W33251  13.257  14.309   4.550 -0.2769 -0.0470  0.2258
14398W        W33252   4.570  11.974  12.160 -0.2302 -0.1956 -0.0202
14399W        W33253  11.686   7.288  14.023  0.1165  0.2168 -0.3883
14400W        W33254   6.686  10.538   4.350 -0.2298 -0.1320 -0.0656
14401W        W33255   6.094   6.016   0.262  0.0958 -0.1587  0.1983
14402W        W33256  11.938  10.297  13.637 -0.0490 -0.1322  0.0439
14403W        W33257  13.849   6.233  14.132 -0.2203  0.1668  0.1058
14404W        W33258  14.223   0.101  16.930 -0.1197 -0.0119 -0.0764
14405W        W33259  15.528  16.979   0.676 -0.1516 -0.1449  0.1206
14406W        W33260   7.643  16.399  13.513  0.1214 -0.2146  0.0650
14407W        W33261   1.937  16.759   0.774  0.1537  0.0418  0.3647
14408W        W33262   2.291  12.318  17.030  0.0575 -0.3184 -0.2447
14409W        W33263   4.463  10.751   0.980 -0.0836  0.1148 -0.3425
14410W        W33264  14.997   8.578  13.469 -0.0584  0.1675 -0.3130
14411W        W33265  12.739  12.466  13.427 -0.3554 -0.2167  0.2966
14412W        W33266   8.677   6.719   2.319 -0.0764 -0.0175  0.2167
14413W        W33267   2.434   4.799  14.540  0.0426 -0.1322  0.2000
14414W        W33268  16.583   1.162   2.697  0.0463 -0.0025 -0.1080
14415W        W33269  11.986  15.236   1.594  0.3586  0.1197 -0.0354
14416W        W33270   3.011   4.834  13.084  0.2269  0.2628 -0.0370
14417W        W33271   7.558  11.040  14.817 -0.0659 -0.0976 -0.1137
14418W        W33272   3.869   3.656   3.682 -0.0158 -0.2834 -0.1427
14419W        W33273  11.885  10.374   2.537 -0.0793  0.3193 -0.0656
14420W        W33274   5.052   7.548  14.061 -0.0604  0.1358 -0.0355
14421W        W33275   4.854   9.693   1.091 -0.3453  0.2566  0.0140
14422W        W33276  12.468   7.984   3.695  0.1250 -0.0367 -0.0987
14423W        W33277  13.408   0.367  13.520  0.3392 -0.2223 -0.0548
14424W        W33278   1.671  12.296  12.585 -0.0352  0.1529 -0.0630
14425W        W33279   1.934  10.915   2.042  0.3343 -0.2884  0.0863
14426W        W33280  14.274   1.616  12.675 -0.0658  0.2019  0.1055
14427W        W33281  13.436   8.176   3.314  0.0110 -0.1079 -0.2913
14428W        W33282  12.395  16.423   3.267 -0.1663 -0.2744 -0.1182
14429W        W33283  10.799   5.298   2.052 -0.0702 -0.1257 -0.1710
14430W        W33284   4.023   7.724  13.399 -0.3951  0.3323 -0.1207
14431W        W33285   9.135  16.618   2.104 -0.2428 -0.0210 -0.0498
14432W        W33286  14.476  17.107  11.986 -0.2516 -0.1999  0.0245
14433W        W33287   5.297   0.678   2.101 -0.0749  0.0247  0.2389
14434W        W33288   2.133   0.363   4.873  0.1338  0.2575  0.2787
14435W        W33289   2.851  16.558   1.648 -0.2909  0.0173 -0.1552
14436W        W33290  16.949   8.302   3.352  0.0451  0.4036 -0.2027
14437W        W33291   4.651  15.836  16.960  0.1491 -0.0737  0.1788
14438W        W33292  11.388   8.196  12.982  0.1365 -0.3208 -0.0427
14439W        W33293   0.671   0.461  12.113 -0.1279  0.1679  0.0231
14440W        W33294  13.734   2.826  12.959 -0.0130  0.0163  0.1844
14441W        W33295   6.896  14.644  14.951 -0.0090 -0.0125  0.3087
14442W        W33296  16.135   6.630  14.778 -0.0519 -0.2261  0.2395
14443W        W33297   5.119   5.591   4.765  0.0325 -0.0422  0.0086
14444W        W33298  11.501  14.987   5.205 -0.2512 -0.1646 -0.2755
14445W        W33299  10.562  10.015   4.307  0.2409  0.0023  0.0430
14446W        W33300  16.654  11.551  14.667  0.0354  0.0148 -0.3019
14447W        W33301   1.035   2.522   3.412 -0.5217 -0.0634 -0.0346
14448W        W33302   7.430   7.676  17.128 -0.2888  0.3420 -0.0983
14449W        W33303  15.661   7.209   1.991  0.3044 -0.3147 -0.0625
14450W        W33304   5.769  13.490   2.711 -0.1106 -0.1226  0.2001
14451W        W33305  12.391  10.060  13.043 -0.2968  0.4488 -0.2485
14452W        W33306  11.687   5.513  13.627 -0.1866 -0.2970 -0.2755
14453W        W33307   4.850   9.040  12.448 -0.0660 -0.2712  0.1529
14454W        W33308   6.243  17.356   3.290  0.1094 -0.1256 -0.3660
14455W        W33309  16.670   0.188   2.690  0.1315  0.2361 -0.0095
14456W        W33310  16.683   8.948   5.472  0.0931  0.0061 -0.1996
14457W        W33311  12.718   5.488   1.685 -0.2853 -0.2144  0.3150
14458W        W33312  10.442  10.483   4.774 -0.3446 -0.0581 -0.3614
14459W        W33313   9.514   6.513  15.047 -0.1892 -0.0992  0.2942
14460W        W33314  17.144  14.438   1.200  0.1909  0.0269  0.3354
14461W        W33315   9.571  17.247  14.434 -0.3723 -0.2793 -0.0615
14462W        W33316   3.581   9.999  16.905  0.1229  0.0132  0.1979
14463W        W33317   1.148   5.706   5.558  0.1446  0.0180  0.1028
14464W        W33318   7.413   7.260   4.834  0.5755  0.1269  0.2522
14465W        W33319   6.828  13.218   1.731  0.1180 -0.0089  0.0964
14466W        W33320   0.547   1.265   3.391 -0.2360 -0.2278 -0.0652
14467W        W33321   3.733  12.924  16.755 -0.3043 -0.3988 -0.1329
14468W        W33322  15.438  15.931   2.953 -0.1420 -0.1313  0.2462
14469W        W33323   4.607  15.753   4.147  0.0910 -0.2672 -0.0694
14470W        W33324   6.894  12.395  16.522  0.3234  0.0391 -0.1447
14471W        W33325   1.300  15.505  15.909  0.0293  0.1991 -0.2299
14472W        W33326  13.909  12.455   3.028  0.1716  0.0572  0.0501
14473W        W33327   2.272  13.913   0.067 -0.1387  0.1836  0.1314
14474W        W33328   8.659   8.029  14.440 -0.0318  0.1342  0.0515
14475W        W33329   1.607  17.321  17.095 -0.0994 -0.1510 -0.1414
14476W        W33330  15.641  17.069   5.908  0.1806  0.3412  0.1335
14477W        W33331   8.375  16.885   1.808 -0.3145  0.2388  0.2760
14478W        W33332   0.038  12.425   1.655 -0.3184 -0.0603  0.2035
14479W        W33333   9.972   2.560   4.575  0.3315 -0.1315  0.1349
14480W        W33334   6.082   3.989  13.898 -0.1940 -0.2242  0.0902
14481W        W33335  10.387  11.672   0.916 -0.0991 -0.2418  0.0688
14482W        W33336   2.280   0.222  16.436 -0.0192 -0.1340 -0.1251
14483W        W33337   3.673  11.860   3.044 -0.0193  0.2774 -0.1523
14484W        W33338  10.923  12.674  11.653 -0.2218  0.4035 -0.0018
14485W        W33339  14.570   1.127   3.029 -0.1315  0.0245 -0.0680
14486W        W33340   1.694   3.560   4.723 -0.2402  0.1060  0.0997
14487W        W33341   6.680   3.666  14.738 -0.3468 -0.1008  0.1842
14488W        W33342   6.429  13.401  16.311 -0.2158 -0.1116 -0.1399
14489W        W33343  13.156   4.106  16.798  0.2195 -0.2198  0.3000
14490W        W33344   8.666  16.655  17.094 -0.0456 -0.0267  0.4446
14491W        W33345   5.607   0.122  14.791  0.2137 -0.2333  0.1507
14492W        W33346  16.950   1.589   1.693 -0.0013  0.3971 -0.1799
14493W        W33347   8.306  17.520  16.776 -0.2817  0.2629  0.0754
14494W        W33348  14.993   7.172   2.761  0.0915  0.0298 -0.2609
14495W        W33349   2.666   2.517   0.655  0.0551 -0.0957 -0.1104
14496W        W33350   1.402   5.222   0.828 -0.0630  0.1050  0.1482
14497W        W33351  10.932   9.881   1.004  0.0932 -0.1920 -0.0807
14498W        W33352  17.280   2.640  12.022 -0.0625 -0.0074  0.1738
14499W        W33353   0.928   2.972  15.067  0.0708 -0.1398  0.0667
14500W        W33354   8.603   3.444   5.182  0.0257  0.5310  0.2171
14501W        W33355   8.559  15.561   5.584  0.1372 -0.2073 -0.1424
14502W        W33356  15.901   1.620   4.842 -0.0881  0.0242  0.0801
14503W        W33357  13.171  13.208  16.601 -0.2317 -0.0185  0.1219
14504W        W33358   0.393   5.036  15.938 -0.1740  0.0124  0.2920
14505W        W33359   1.135  10.758   4.050  0.1750 -0.2171 -0.1767
14506W        W33360   5.138   0.677  12.694 -0.0277 -0.3088 -0.1466
14507W        W33361   1.365  15.675   0.384 -0.0569 -0.2015 -0.0531
14508W        W33362  15.583   5.650  12.102 -0.1294 -0.4005 -0.1682
14509W        W33363   4.896   8.545   4.413 -0.0792  0.0886  0.1931
14510W        W33364  11.253   3.426  12.975 -0.2749  0.1696 -0.0006
14511W        W33365  11.220   4.077   1.311  0.2323  0.3104 -0.0134
14512W        W33366   5.978   1.608   0.885  0.1443 -0.1386  0.4786
14513W        W33367  11.797   2.164  16.368  0.2085 -0.0255 -0.2448
14514W        W33368   3.033  11.089   2.080 -0.1533  0.0251  0.0967
14515W        W33369   9.872   7.317  14.395  0.2196 -0.0265 -0.3963
14516W        W33370   4.109   4.813  15.007  0.3403 -0.0955 -0.1188
14517W        W33371  12.461  15.719   1.496  0.2662  0.0646 -0.0953
14518W        W33372  10.613   3.477   0.424 -0.0140  0.0217 -0.2106
14519W        W33373  13.366  17.004   0.658 -0.2257  0.2154  0.2388
14520W        W33374   3.960  15.028  15.681  0.1915  0.2776  0.2786
14521W        W33375   3.341   3.934   2.199 -0.2538 -0.1842 -0.1795
14522W        W33376  14.688   3.911  12.147  0.1355 -0.0828 -0.1921
14523W        W33377   6.734  15.909   2.859 -0.2005  0.3213  0.2550
14524W        W33378   0.486   2.580   3.342 -0.2448  0.1832  0.0786
14525W        W33379   7.636   0.011   5.145 -0.0039  0.3140  0.3453
14526W        W33380  17.367   2.175   2.778  0.1388 -0.1174 -0.0526
14527W        W33381   4.017   1.565   1.501 -0.0022 -0.1589  0.0476
14528W        W33382   9.564   2.063   0.769  0.2649 -0.3331 -0.2293
14529W        W33383   9.412   8.128   4.595 -0.1524 -0.0559  0.0463
14530W        W33384   5.441  15.195  13.812  0.0344 -0.0146 -0.0414
14531W        W33385   8.375   1.102   4.996 -0.1120  0.1955 -0.1034
14532W        W33386  13.255   3.781   0.433  0.2315  0.0819 -0.0374
14533W        W33387   0.048   7.039   3.456 -0.4798 -0.1077  0.0454
14534W        W33388  13.359  11.328  13.986  0.1471  0.0996 -0.3059
14535W        W33389   5.556   6.301  12.818  0.0478 -0.2347  0.0269
14536W        W33390  16.284   8.652  15.490  0.2911  0.0599 -0.0856
14537W        W33391   5.702  17.433  12.348 -0.0300  0.1183  0.0086
14538W        W33392   5.877  15.926   1.948  0.0500 -0.2955  0.2915
14539W        W33393   6.624  14.217   4.156 -0.1077 -0.0736  0.0665
14540W        W33394  11.925  10.402  13.103  0.2308  0.0292 -0.0025
14541W        W33395  17.360  14.744  14.739  0.1654  0.2373  0.1358
14542W        W33396  16.687  11.435   2.164  0.0774 -0.0805  0.1625
14543W        W33397   6.872  14.989   3.854  0.1835  0.3220  0.0241
14544W        W33398  14.332  11.166   2.070 -0.1790  0.1228 -0.1185
14545W        W33399  15.535  10.310   0.703  0.0312 -0.2485  0.1216
14546W        W33400   4.611   8.904   0.386  0.2969  0.0797  0.2244
14547W        W33401   8.738  14.007  12.108  0.1723 -0.3360  0.0445
14548W        W33402  16.133   5.061  15.971 -0.3154 -0.1176 -0.1582
14549W        W33403   3.444  17.246   0.302  0.0905  0.1565  0.1111
14550W        W33404  11.052   6.153  14.665  0.0880 -0.1189 -0.1726
14551W        W33405   7.265  15.331   2.523 -0.0301  0.0319  0.0674
14552W        W33406   4.897   0.834   0.671  0.0129 -0.2332  0.1416
14553W        W33407  15.491  14.748   1.100 -0.3104 -0.0590  0.2140
14554W        W33408  12.468   5.309   1.278  0.0058  0.1569 -0.3367
14555W        W33409  15.864   8.469  12.548 -0.0407  0.2603  0.1169
14556W        W33410   1.628   0.028   3.351  0.3505 -0.0259 -0.2178
14557W        W33411   6.067  11.619   2.220  0.1564 -0.0445  0.0633
14558W        W33412   4.352   5.719  14.396 -0.0963 -0.1793  0.0271
14559W        W33413   2.367   1.753  16.361  0.0593  0.5089  0.0398
14560W        W33414   5.526  12.414   3.695 -0.2448 -0.0867  0.1367
14561W        W33415  13.737   3.056  11.331 -0.1118  0.1096  0.0362
14562W        W33416  17.160   2.908  14.866 -0.0458  0.2474  0.1634
14563W        W33417   8.195  15.471   2.389  0.2455 -0.1204 -0.1862
14564W        W33418   7.261   0.105  14.107 -0.0502 -0.0137 -0.0856
14565W        W33419  10.649   7.199   5.492  0.0235  0.2059  0.1231
14566W        W33420   5.935  12.109   2.335 -0.3046  0.2084  0.1146
14567W        W33421   1.137   0.246  15.288 -0.2473  0.2380  0.2206
14568W        W33422   3.995   4.746  11.700 -0.5964 -0.1990  0.3273
14569W        W33423   7.877   6.133  13.227  0.0815  0.0159  0.0363
14570W        W33424   4.917  13.718  16.824  0.1237  0.1488 -0.0050
14571W        W33425   8.664  14.379  14.867  0.2514 -0.1209 -0.0910
14572W        W33426  14.576  10.480  14.486  0.1152  0.0567  0.2238
14573W        W33427   4.881  16.724  15.717  0.1521  0.0457 -0.1882
14574W        W33428   2.054  15.948   3.923  0.2146  0.0463 -0.0386
14575W        W33429   5.947  13.406  16.453  0.2829 -0.1570 -0.1058
14576W        W33430  13.278  13.376  13.616  0.4596 -0.1251 -0.2361
14577W        W33431   5.681   3.229   0.723  0.2303 -0.0664 -0.1716
14578W        W33432  16.281   2.835  16.509 -0.0558 -0.3121 -0.1829
14579W        W33433   5.203   6.926   3.485  0.0284 -0.0535 -0.4290
14580W        W33434   5.478   5.876  14.559  0.1427  0.1440 -0.0064
14581W        W33435   5.684  13.100   2.395  0.0463 -0.0216  0.1193
14582W        W33436   2.035   9.959  13.967  0.1789 -0.2447 -0.2293
14583W        W33437   8.290   6.372   1.410 -0.2062  0.0736 -0.1007
14584W        W33438   7.213   9.520  15.728  0.0715 -0.3447  0.0733
14585W        W33439   7.825  11.070   1.447  0.0805 -0.1874 -0.2073
14586W        W33440   4.205   1.649   3.427 -0.0839  0.1394 -0.0019
14587W        W33441   8.861   3.080   5.430  0.1165 -0.0452 -0.1275
14588W        W33442   0.952   5.903  14.341  0.1768  0.0093 -0.0824
14589W        W33443  14.405  14.657   4.897  0.1979  0.1991  0.0581
14590W        W33444  15.888   0.843   3.552 -0.1043  0.0248 -0.0195
14591W        W33445   6.754   1.640   2.659 -0.3118 -0.0900 -0.2590
14592W        W33446   1.688   8.585  14.803 -0.0512  0.1127 -0.1335
14593W        W33447   8.597   6.402  16.404  0.4022  0.0681 -0.1863
14594W        W33448   2.351  16.120  14.236  0.0085 -0.0252  0.3456
14595W        W33449   4.713  17.307   0.389  0.0279 -0.0309 -0.4040
14596W        W33450   4.329   7.827   0.338  0.0973  0.0883  0.2224
14597W        W33451   6.886  15.214  14.933  0.5547  0.0886  0.0655
14598W        W33452   4.546  13.800   3.969  0.2501 -0.0858  0.1053
14599W        W33453   8.601   0.425   3.280  0.0447 -0.3897  0.1333
14600W        W33454   0.401  14.418  17.158  0.3221  0.0022 -0.3457
14601W        W33455  14.706  17.460   2.471 -0.1151  0.1123  0.1613
14602W        W33456  11.760  10.790   2.320  0.3839  0.1092 -0.1150
14603W        W33457   7.293   1.560  14.922 -0.1048 -0.2788  0.0326
14604W        W33458   5.062   7.352   0.292  0.3259  0.0495 -0.0782
14605W        W33459  14.890   6.155   3.349 -0.2578 -0.0507  0.0074
14606W        W33460   5.353   3.298  13.196  0.1954 -0.0335  0.2837
14607W        W33461   1.220  10.095  16.717  0.4141 -0.0195  0.3748
14608W        W33462   9.804   7.019   5.340  0.3808  0.1516  0.0802
14609W        W33463  14.893  17.065  12.735 -0.0766  0.0278 -0.0457
14610W        W33464   3.428  13.420  14.797 -0.1448  0.1180  0.0262
14611W        W33465  13.659   3.109  16.446 -0.0794 -0.1720 -0.1070
14612W        W33466  10.975  12.636   4.117 -0.1036  0.1894 -0.1277
14613W        W33467   9.372   8.794   2.877  0.2416 -0.2742 -0.2258
14614W        W33468   6.521  15.219  13.601  0.3403 -0.0327 -0.1516
14615W        W33469   5.897   9.735   0.473  0.3280 -0.0657  0.2316
14616W        W33470  12.791   8.829   3.156  0.2005  0.2028  0.0621
14617W        W33471   8.713  15.446   4.296 -0.2934 -0.2153 -0.2527
14618W        W33472   9.958  10.426   4.511  0.2137  0.1924 -0.0431
14619W        W33473  11.819   6.108  15.053 -0.0990 -0.1519  0.1446
14620W        W33474   4.433  16.914   0.174 -0.0049 -0.0648 -0.0416
14621W        W33475   0.148  14.800  14.294 -0.0083 -0.2760  0.0958
14622W        W33476  10.575   8.655  14.652 -0.0743 -0.0886  0.1840
14623W        W33477  15.353  16.564  16.926  0.0187 -0.1585  0.0891
14624W        W33478  16.988   2.523  14.340  0.1397 -0.3924 -0.0620
14625W        W33479   8.173   3.874  13.630  0.1983  0.1009  0.0545
14626W        W33480   2.721  14.399   1.643  0.2021  0.2930  0.1638
14627W        W33481  11.847  14.711   4.973 -0.1851 -0.1119 -0.1482
14628W        W33482   7.065  10.050   4.314 -0.3034  0.1519  0.1028
14629W        W33483  11.110  16.873  15.877  0.1288 -0.3645 -0.2070
14630W        W33484   3.825  10.881   0.892  0.2249  0.1713  0.0249
14631W        W33485   4.984  16.425   5.007 -0.3388 -0.3602  0.3114
14632W        W33486  13.184  13.655  12.164 -0.3329  0.2740  0.2468
14633W        W33487  16.054  13.747   3.133 -0.0576  0.1893 -0.1760
14634W        W33488  12.223   4.574   1.641 -0.0468 -0.0417  0.0876
14635W        W33489  16.251   2.129  12.963  0.3638  0.1117 -0.0522
14636W        W33490   3.746   1.876   5.013 -0.3012 -0.0123 -0.0686
14637W        W33491   4.835   0.010  14.174  0.2547  0.1282 -0.0679
14638W        W33492   8.559   7.083   2.611  0.1794  0.0078 -0.1061
14639W        W33493  13.409   3.355   4.442 -0.0180  0.0329  0.1680
14640W        W33494  12.592  10.389  17.056  0.2427  0.3843  0.0268
14641W        W33495  13.055   5.384   2.391 -0.2633 -0.0620  0.0379
14642W        W33496   6.325   5.792   3.243 -0.2891  0.2902  0.0609
14643W        W33497  11.340   4.386  14.573  0.1328  0.1305 -0.0486
14644W        W33498   0.724  17.493  15.562 -0.1004 -0.1350 -0.0932
14645W        W33499  17.580  12.416   0.853  0.0774 -0.0672  0.1475
14646W        W33500   8.832   3.217   0.284 -0.1813 -0.2653 -0.1966
14647W        W33501   4.631  13.588  14.369  0.0436 -0.1434  0.2107
14648W        W33502   8.048   6.591  16.385  0.2154 -0.0083 -0.0233
14649W        W33503   8.567   1.064  14.215 -0.2469  0.0204 -0.1355
14650W        W33504   8.352   5.217   5.058  0.2710 -0.2948 -0.1503
14651W        W33505  13.573   1.660  17.221  0.4630  0.0890  0.1833
14652W        W33506   1.766  11.432   1.548 -0.2856 -0.3327  0.0805
14653W        W33507   6.049   6.947  15.017  0.0058  0.3637  0.0720
14654W        W33508   6.815   5.697   4.361 -0.1449  0.1144  0.0069
14655W        W33509  13.140   2.940   0.277 -0.0894  0.1341  0.2758
14656W        W33510   0.283   0.069   0.873  0.0746 -0.0507 -0.1336
14657W        W33511   0.916   6.022   4.184 -0.0327  0.1281  0.1493
14658W        W33512  12.976  10.061   2.662  0.0055  0.2145  0.1046
14659W        W33513  10.687  15.935  13.486  0.5007  0.0397  0.1085
14660W        W33514   5.079  12.612  14.602 -0.4650 -0.2308  0.0725
14661W        W33515   2.761   6.647   0.742  0.1126  0.0955 -0.0338
14662W        W33516  13.997  12.576  16.715 -0.1011  0.0134 -0.1770
14663W        W33517  15.862   0.152  13.057  0.0726 -0.1327  0.2176
14664W        W33518   2.760  15.760   1.246  0.2641  0.0490  0.1948
14665W        W33519  14.305   3.490  12.514  0.0525 -0.1033 -0.0777
14666W        W33520  11.863   7.692  14.239 -0.1656 -0.1099 -0.0039
14667W        W33521   3.593  10.579   0.557 -0.0456 -0.1632 -0.1118
14668W        W33522  13.424  15.863   3.080 -0.2123 -0.0283 -0.1614
14669W        W33523  16.812  11.000   5.453  0.1106 -0.0854 -0.1113
14670W        W33524   0.337  12.852   4.626 -0.0466 -0.1419  0.1016
14671W        W33525   3.279  10.849   5.366 -0.1612  0.2858 -0.1404
14672W        W33526   6.708   0.111   3.208  0.0058 -0.0259  0.1732
14673W        W33527   4.229  14.877   3.733  0.1273  0.0451 -0.0899
14674W        W33528   1.144  16.448   2.265 -0.2486 -0.3199  0.1232
14675W        W33529  12.314   0.331  12.916 -0.2009 -0.2757  0.1552
14676W        W33530   4.857  12.436   4.769 -0.0455  0.1247 -0.0327
14677W        W33531   5.614   0.762   1.273 -0.3177 -0.0917 -0.1720
14678W        W33532  13.120  15.556  13.227 -0.1092 -0.1447 -0.0868
14679W        W33533  11.965  12.019  14.808  0.1861 -0.0141  0.3018
14680W        W33534  13.273  16.631  15.696  0.0503  0.0688  0.1933
14681W        W33535  16.880  14.604  15.521 -0.2826  0.2012  0.3147
14682W        W33536   3.792  13.717   4.169 -0.1343  0.1960  0.1840
14683W        W33537  14.209   6.757  16.688 -0.0280  0.0099  0.2938
14684W        W33538   9.479  16.438  12.814  0.2020 -0.1130 -0.2271
14685W        W33539   3.897   9.288  16.560 -0.0792  0.1040  0.1122
14686W        W33540  10.513   6.392   4.315  0.0952  0.3560  0.1996
14687W        W33541   0.198   5.060  13.624  0.2022  0.0872 -0.0318
14688W        W33542   2.101   4.850   3.120 -0.0737 -0.2953 -0.4707
14689W        W33543  16.791  11.146   2.944 -0.1449  0.0882 -0.1350
14690W        W33544   3.368   1.294  14.642 -0.0386  0.0436 -0.0275
14691W        W33545   6.813   8.672   5.730 -0.0994 -0.1381 -0.3592
14692W        W33546   8.189   2.146   0.296  0.1461 -0.0009  0.0813
14693W        W33547  16.027   8.230   5.346  0.0704  0.3004  0.1193
14694W        W33548   4.565  15.324  14.948 -0.0969  0.1983  0.3504
14695W        W33549   5.862   0.866  13.504 -0.1899  0.1549 -0.3504
14696W        W33550  15.090  14.700  13.257 -0.2450 -0.3005  0.1713
14697W        W33551  13.518  17.580  14.198 -0.2347 -0.1867  0.2019
14698W        W33552  17.314   1.430   3.729 -0.0602 -0.1555  0.1112
14699W        W33553  12.111  17.347   2.021 -0.3291 -0.0121  0.3091
14700W        W33554  17.125   9.193   1.460 -0.1636  0.1531  0.2390
14701W        W33555   2.324   3.284   4.237 -0.4197  0.0620  0.3850
14702W        W33556  10.424   5.227  12.914 -0.0995  0.0086  0.0093
14703W        W33557   0.926   2.759   1.321  0.1561  0.1642  0.0318
14704W        W33558   2.165   9.467  14.736  0.0022  0.1817  0.0243
14705W        W33559  12.130   0.186   1.231 -0.2507  0.1655  0.1186
14706W        W33560   8.393  17.198  17.230  0.1525  0.1192  0.2289
14707W        W33561   9.231  14.068  12.228 -0.0113 -0.2151 -0.0820
14708W        W33562  15.332  14.256  13.228  0.0850  0.1941 -0.0993
14709W        W33563   5.970   9.216   3.089  0.1162 -0.0631  0.0299
14710W        W33564   5.265  14.357   1.049  0.0846  0.0981  0.1732
14711W        W33565   6.887   4.524  13.748  0.0995 -0.2307  0.1715
14712W        W33566   1.989   2.532   4.996 -0.1116 -0.2340 -0.0362
14713W        W33567   2.832  11.625   4.135 -0.0425 -0.0678 -0.1166
14714W        W33568   1.303   1.501  13.644 -0.1363  0.1197 -0.1996
14715W        W33569  11.939   2.746  15.566  0.1518 -0.2113 -0.0060
14716W        W33570   2.858   5.666   1.825 -0.2634 -0.0604  0.1589
14717W        W33571   0.356  11.607  12.658  0.0830  0.0232 -0.0131
14718W        W33572   7.278  14.152   0.546 -0.1086 -0.1235 -0.0283
14719W        W33573   1.482   7.047  13.680 -0.0074  0.1497 -0.1519
14720W        W33574   6.956  10.284  15.879  0.1179 -0.1468  0.2604
14721W        W33575   6.449   4.069   3.934 -0.1290  0.0431  0.2722
14722W        W33576  15.914   9.182   5.006  0.1016  0.0311  0.3252
14723W        W33577  16.273  12.052   4.251 -0.0216 -0.1736 -0.0056
14724W        W33578  13.614   1.428   2.865  0.0293 -0.0402 -0.0577
14725W        W33579   5.583  15.364  13.231  0.0968  0.0054  0.2455
14726W        W33580   9.733  12.336  13.178 -0.0254  0.1179 -0.0159
14727W        W33581   1.190   1.295  15.192 -0.0405  0.3382 -0.2579
14728W        W33582   9.783   3.678   0.646  0.1005  0.1813 -0.1135
14729W        W33583   3.888  12.544   1.053 -0.2413  0.1858  0.0846
14730W        W33584   0.759  16.169  16.246  0.1194 -0.0795 -0.0009
14731W        W33585   7.273   8.024   4.650  0.0567 -0.0183 -0.0512
14732W        W33586   1.203  15.954   2.958 -0.1160  0.2067  0.1944
14733W        W33587  10.958  14.958   1.180 -0.1741  0.3329 -0.0953
14734W        W33588  11.418  12.133  11.680  0.3495  0.2879 -0.2030
14735W        W33589  12.195  14.714  14.603 -0.1581 -0.1841  0.1156
14736W        W33590   4.598   2.929  16.673 -0.1030  0.2771 -0.2114
14737W        W33591   3.079  11.817  16.110  0.0268  0.0244 -0.0829
14738W        W33592  16.866   1.952   0.885  0.0427  0.1872 -0.1827
14739W        W33593   1.892   6.750  12.645 -0.0113  0.4500 -0.3762
14740W        W33594   7.665   4.464  16.053  0.0407 -0.1820 -0.1226
14741W        W33595  17.429   5.717   4.347  0.0687  0.1910  0.0720
14742W        W33596   8.848  12.799   0.332 -0.2909 -0.2665  0.0750
14743W        W33597   5.904   6.147   2.351  0.0071 -0.0117  0.0601
14744W        W33598  13.366  17.404  13.727 -0.0351  0.5417 -0.2271
14745W        W33599   9.072   4.042  16.788  0.0906  0.0391  0.1923
14746W        W33600   0.450   8.088  15.456  0.3418 -0.0692  0.0408
14747W        W33601   7.086   9.303   3.751 -0.0286  0.0252 -0.1584
14748W        W33602   1.655  13.684   0.028  0.2280 -0.3122 -0.3102
14749W        W33603   9.399   6.828  13.496  0.2644  0.0238 -0.0277
14750W        W33604   5.015   6.452  15.232 -0.2033  0.1150 -0.0500
14751W        W33605  17.557   3.797  13.669  0.3775  0.0172 -0.0996
14752W        W33606   2.065  16.497  14.246 -0.2535 -0.0027 -0.2697
14753W        W33607   2.520  12.446   2.514 -0.2123  0.0481  0.0733
14754W        W33608   3.325   5.517   5.094  0.0230 -0.1411 -0.0487
14755W        W33609   7.542  16.380   4.691 -0.0081  0.3879 -0.0197
14756W        W33610  10.028   3.123   4.541 -0.1138 -0.3190 -0.1699
14757W        W33611  13.924   3.612   6.096  0.0124 -0.2913  0.0294
14758W        W33612   1.198   9.271  14.511  0.0079 -0.2905 -0.0700
14759W        W33613   1.860  12.597  14.453 -0.2361 -0.1320 -0.1654
14760W        W33614  15.832   3.818   0.049 -0.2138 -0.2963 -0.0932
14761W        W33615   0.942   6.286  16.739 -0.1460 -0.3406 -0.1793
14762W        W33616   3.508   3.068  13.769  0.2061 -0.3213 -0.2739
14763W        W33617  10.369  14.774  12.259 -0.2426 -0.0270 -0.1979
14764W        W33618   9.062  12.750  15.750 -0.0372  0.0397 -0.2165
14765W        W33619  12.152  11.124   4.893  0.1176  0.2854 -0.0238
14766W        W33620   9.035   1.159  12.938 -0.2036  0.0278  0.0680
14767W        W33621   6.245  13.800  16.648 -0.0833 -0.4870 -0.0498
14768W        W33622   1.428   3.770  13.508  0.0856  0.0323 -0.2087
14769W        W33623   4.589  15.886  14.811  0.1700 -0.0167  0.3102
14770W        W33624   6.421  12.861   4.010 -0.1598  0.0126  0.1606
14771W        W33625   9.768  14.990  14.937 -0.1046  0.0015  0.2455
14772W        W33626  13.566   8.884  12.784 -0.4948 -0.1415  0.2092
14773W        W33627   6.503  12.998  15.326  0.0799  0.0751  0.1968
14774W        W33628   4.705   9.160   2.402 -0.2140  0.0945 -0.4108
14775W        W33629  17.210   7.259   3.271  0.0169 -0.0748 -0.2230
14776W        W33630  15.159   3.151   1.450 -0.3284 -0.2470  0.1210
14777W        W33631   4.385   9.067   3.760  0.4500 -0.2063  0.2647
14778W        W33632   2.876  15.625  16.823  0.2816  0.1992  0.3761
14779W        W33633  13.387   1.336   0.700 -0.0232  0.3457  0.1253
14780W        W33634   7.216   3.563  16.758 -0.1031 -0.1148 -0.3502
14781W        W33635   3.243   0.975  12.694  0.0153  0.1283 -0.0465
14782W        W33636   9.495  12.641  12.144  0.0505 -0.2947 -0.2449
14783W        W33637   2.589  14.282  12.692  0.1563  0.0294 -0.0162
14784W        W33638   0.293   7.748   1.710 -0.2109  0.3124 -0.0904
14785W        W33639   5.300   8.348  16.111 -0.2967  0.2408 -0.0361
14786W        W33640  12.996   4.110  11.721 -0.1110  0.1065  0.2720
14787W        W33641  14.709  14.990   1.319  0.1476 -0.3212 -0.0629
14788W        W33642   2.150   8.500  13.043  0.5079 -0.1130  0.0243
14789W        W33643   2.991   6.505  10.898 -0.4046  0.1055 -0.1728
14790W        W33644  11.354   7.883   3.509  0.1448 -0.0930 -0.0037
14791W        W33645   9.733   2.284   2.542 -0.2736 -0.1072  0.0068
14792W        W33646  13.326  15.419   1.143  0.1103  0.1999  0.0026
14793W        W33647   0.702   1.243   0.156 -0.1033  0.0208  0.0012
14794W        W33648   1.273   2.282  15.756 -0.1675 -0.0109  0.0160
14795W        W33649   9.711   6.886  16.393 -0.1448  0.1084 -0.2698
14796W        W33650  15.304   6.629   1.381  0.2673 -0.1065  0.1529
14797W        W33651  17.217   5.556  16.016 -0.1824 -0.1416 -0.1031
14798W        W33652   0.813  16.712   4.731 -0.2349 -0.0220  0.0321
14799W        W33653  17.320  12.226   2.026  0.2628 -0.1268  0.0475
14800W        W33654   1.354   5.368   2.834  0.1785 -0.0460 -0.2922
14801W        W33655  10.736   7.419   2.041 -0.2828  0.0687  0.2272
14802W        W33656   2.670  12.361   3.284  0.4069  0.0130 -0.2625
14803W        W33657   6.068   7.297   3.681  0.1021 -0.1297  0.0995
14804W        W33658  11.955   5.875   2.956  0.1802  0.2945 -0.3040
14805W        W33659   1.112  16.834   3.552  0.1024  0.1202 -0.0517
14806W        W33660  16.811   1.341   3.876  0.1552  0.0242  0.1087
14807W        W33661  15.824   0.113  13.575  0.0939  0.1271 -0.1108
14808W        W33662   5.957  10.907  14.438  0.2795 -0.2316 -0.0868
14809W        W33663   7.452  15.906  16.294 -0.1231 -0.1684  0.1819
14810W        W33664   7.868  14.402   3.317  0.3025 -0.2799  0.0186
14811W        W33665  15.069   6.860   4.874 -0.1006  0.0454 -0.1503
14812W        W33666   9.357   8.965  14.584 -0.1254  0.0153  0.1231
14813W        W33667  13.224  13.308   4.554  0.1091  0.0932  0.1974
14814W        W33668   6.411  15.725  13.993 -0.0781  0.3578 -0.2342
14815W        W33669  10.215  14.236  15.520  0.1418 -0.2231 -0.4317
14816W        W33670  17.325   1.207  11.750 -0.0182 -0.1651 -0.0081
14817W        W33671   2.747  12.696  16.549 -0.0141 -0.1131  0.0470
14818W        W33672   9.009  13.871  15.733 -0.0529  0.1161  0.0793
14819W        W33673  14.776  15.971   3.240 -0.0999 -0.2285  0.0556
14820W        W33674  11.157  14.344   0.824 -0.3159 -0.1286  0.0139
14821W        W33675  14.059   7.562  16.320  0.4384 -0.1294  0.4018
14822W        W33676   6.891  11.969   4.589  0.1494  0.2807  0.3777
14823W        W33677  13.904  11.429  16.525 -0.0475 -0.1154 -0.0813
14824W        W33678   1.233  16.766  15.197 -0.2893  0.1425 -0.0137
14825W        W33679   6.758   5.597  16.931  0.2320 -0.2126 -0.1471
14826W        W33680   5.897   4.563  17.076  0.1453 -0.0286  0.0195
14827W        W33681  14.584   1.136  13.724  0.1583  0.2593 -0.1109
14828W        W33682  11.894  17.157  13.848  0.4936 -0.0112  0.2059
14829W        W33683  17.430   1.208   0.708  0.0707  0.1843 -0.1866
14830W        W33684  16.496   0.586   3.121 -0.0827 -0.0371  0.2561
14831W        W33685   3.303  17.486   1.173  0.1831 -0.1278  0.0078
14832W        W33686   8.406  13.572   4.419 -0.2180  0.3478 -0.0885
14833W        W33687   3.719  11.515   3.753  0.4592 -0.0191 -0.0969
14834W        W33688   6.876   2.243  13.244 -0.0099  0.3641 -0.1362
14835W        W33689   1.893   1.466   3.070 -0.0275  0.0565 -0.3285
14836W        W33690   0.838  10.221   5.131  0.1450  0.0734 -0.1680
14837W        W33691  17.279  15.951   1.800  0.2084  0.3369 -0.1548
14838W        W33692  13.774   6.108  12.236 -0.0648  0.0075  0.0318
14839W        W33693   3.012   7.975   4.069 -0.1066 -0.1373  0.2233
14840W        W33694   8.888   4.781  12.426  0.2048 -0.0441  0.0138
14841W        W33695  16.723  14.055  15.335 -0.3216  0.1523  0.3025
14842W        W33696   0.283  14.562  15.392 -0.1108 -0.0630  0.1578
14843W        W33697   5.453  13.435  16.840  0.0121  0.1298  0.0626
14844W        W33698  16.104   7.447  17.137 -0.1870 -0.2121  0.1255
14845W        W33699  14.115   6.709   4.328  0.1388 -0.1031 -0.1061
14846W        W33700   9.480   0.033  15.875 -0.0893  0.0865 -0.1046
14847W        W33701   3.111  11.672  14.043  0.0290  0.2272 -0.3747
14848W        W33702   4.186   2.815   2.169  0.0856 -0.0551 -0.0688
14849W        W33703  14.736   6.238  13.720  0.1827 -0.0951  0.2463
14850W        W33704   4.846  10.355   2.539 -0.0153 -0.1236 -0.3445
14851W        W33705  14.214   5.947   4.845 -0.0956  0.1197 -0.0729
14852W        W33706  13.931   3.500   3.852  0.2849 -0.2295 -0.1906
14853W        W33707  13.749  11.211   1.154 -0.0672 -0.1865 -0.2989
14854W        W33708   7.421  11.240   2.632  0.1577 -0.0937 -0.0475
14855W        W33709  11.539  14.285  15.340 -0.0977  0.4574  0.1305
14856W        W33710   1.343   0.999  13.839 -0.1987 -0.0575 -0.2460
14857W        W33711  11.774   0.262  14.543 -0.1601 -0.3401  0.1327
14858W        W33712  17.099  10.223   0.995 -0.3138  0.0898 -0.3545
14859W        W33713   5.972  11.019  13.848 -0.1394  0.1903 -0.1859
14860W        W33714   3.927   5.149  15.810  0.2735 -0.2042 -0.1271
14861W        W33715   0.442   0.991   2.917  0.2504 -0.1623  0.0754
14862W        W33716   2.058   5.632  15.842  0.0708  0.0342 -0.1421
14863W        W33717  16.030  17.216   5.132 -0.0454 -0.0140 -0.1228
14864W        W33718   3.440   5.897  14.615  0.2358 -0.0184  0.0410
14865W        W33719   1.601  15.417   5.142  0.0617 -0.1727 -0.1830
14866W        W33720   8.196   3.442   4.706  0.1828  0.0321  0.0040
14867W        W33721   2.828   0.696   1.237 -0.0302 -0.0900  0.1371
14868W        W33722   5.800   2.008  12.247 -0.2204 -0.2603  0.0890
14869W        W33723  10.842  16.277   4.877 -0.3644  0.2074 -0.0061
14870W        W33724  13.195  13.182  14.184 -0.0411 -0.0310 -0.0771
14871W        W33725  14.144  14.240  12.291 -0.1850  0.0808 -0.1542
14872W        W33726   2.761  14.371   2.632  0.3119 -0.0579  0.0742
14873W        W33727  11.157  17.101   3.087 -0.0598 -0.2346 -0.1674
14874W        W33728   6.824   3.847  12.847 -0.0579  0.3026 -0.0047
14875W        W33729  11.523  13.664  12.501 -0.1326 -0.4024  0.0949
14876W        W33730   7.902   8.081  12.770  0.0205  0.1900 -0.0428
14877W        W33731   3.879   2.201   1.283  0.0391  0.1471 -0.0736
14878W        W33732  16.836   5.302  15.597 -0.1528 -0.1881 -0.1775
14879W        W33733  14.641   2.959   2.641 -0.3461  0.1122  0.1547
14880W        W33734   0.054   8.168   1.664 -0.0758 -0.0063 -0.3232
14881W        W33735   8.895   0.713  14.657  0.0521 -0.1043 -0.0858
14882W        W33736  16.820  11.878  16.534 -0.0770 -0.3489  0.1566
14883W        W33737  14.160   5.553  16.492  0.0533 -0.3367  0.2545
14884W        W33738  12.987  10.696   0.661 -0.3396  0.2823  0.0194
14885W        W33739  10.392   6.444   0.134 -0.2566 -0.1406  0.0477
14886W        W33740   4.042  12.573  13.565 -0.0814 -0.2810  0.0915
14887W        W33741   5.600   4.161  12.079  0.0842  0.1690  0.1026
14888W        W33742   5.436   9.354   3.131  0.0643  0.2703 -0.0896
14889W        W33743   3.050   8.795   1.385  0.0937  0.1307  0.1279
14890W        W33744  17.494   3.610   5.653 -0.0682  0.1910 -0.0921
14891W        W33745   0.777   1.479  13.760  0.0637 -0.2230 -0.0991
14892W        W33746  10.551   0.597   2.094 -0.0761  0.1482  0.2236
14893W        W33747  15.566   1.685   3.921  0.2756 -0.0786  0.0885
14894W        W33748   2.591  16.422  15.003 -0.0464 -0.0885 -0.1970
14895W        W33749  10.903  11.024  13.933 -0.0338  0.0423 -0.0822
14896W        W33750   5.505  12.738   3.239 -0.0427 -0.0593 -0.1244
14897W        W33751   2.837   9.943  17.175 -0.3368  0.1392  0.1397
14898W        W33752   8.676   4.496   0.581  0.3610  0.4149 -0.1132
14899W        W33753   1.444   8.023   2.472 -0.0344 -0.4081  0.1090
14900W        W33754  11.950   7.151  12.013 -0.0198  0.0327 -0.1073
14901W        W33755   2.177   1.875  15.531 -0.2473  0.3261  0.0673
14902W        W33756  10.605   3.619   3.044 -0.2831  0.0700 -0.2279
14903W        W33757   0.018   5.207  13.206 -0.1627 -0.0877  0.0800
14904W        W33758  10.333   1.905   1.879  0.4026  0.1330  0.1055
14905W        W33759  14.179  12.656   3.858 -0.1853  0.1830  0.2985
14906W        W33760   8.531  13.679  11.751  0.1772  0.1200 -0.0286
14907W        W33761   5.460   7.820  16.182 -0.1437 -0.2055 -0.3959
14908W        W33762   5.750   3.592  17.071  0.1661  0.0336 -0.0277
14909W        W33763  14.299   0.364   3.277 -0.2395 -0.3020 -0.0868
14910W        W33764   3.890   1.126   3.578  0.1300 -0.0851  0.0105
14911W        W33765  16.999   4.826  12.894 -0.0592  0.0629  0.1849
14912W        W33766  14.021  10.524   1.656  0.1112  0.3351 -0.2813
14913W        W33767  16.487  15.605  16.973 -0.2540 -0.0138 -0.0803
14914W        W33768  17.120  11.665   5.202  0.0497  0.0560  0.2117
14915W        W33769   0.061  14.841   3.996  0.1734  0.2395  0.1952
14916W        W33770   7.477  12.695   2.386 -0.0125 -0.1470  0.0705
14917W        W33771  10.787  11.952   2.953 -0.0514  0.0866  0.1355
14918W        W33772  17.565   3.869   4.721  0.1537 -0.0829  0.1273
14919W        W33773   9.403  12.072   0.504  0.0865 -0.2654 -0.1072
14920W        W33774   8.303  16.759   0.825 -0.0716 -0.2387 -0.0309
14921W        W33775   2.892  10.595   1.956  0.1042  0.0080  0.0295
14922W        W33776   2.949   5.676   2.364 -0.1102  0.1103 -0.0588
14923W        W33777   2.059   0.630  16.150  0.0094 -0.1222  0.2699
14924W        W33778   7.824   6.233  15.163 -0.2483  0.3588 -0.3288
14925W        W33779   6.455  15.856  12.996  0.0671  0.0157  0.1821
14926W        W33780  17.055   7.382  15.962 -0.0428 -0.2201  0.2431
14927W        W33781  10.135   1.765  17.232 -0.2922 -0.0203 -0.0867
14928W        W33782   4.131  15.220  14.759  0.2032  0.1525  0.0506
14929W        W33783   7.269  13.802  14.693 -0.2229 -0.2710  0.2834
14930W        W33784  15.577   2.525   2.870  0.0213 -0.2686 -0.1097
14931W        W33785   7.799   4.935  15.234  0.1262  0.0187  0.1248
14932W        W33786   0.489  12.701  15.646 -0.0342 -0.1324  0.1646
14933W        W33787  17.255   7.052   3.765 -0.0198  0.2108 -0.0749
14934W        W33788  13.437   6.391   4.588  0.1735  0.2592 -0.4037
14935W        W33789   3.241   4.346  13.043  0.0342 -0.4526  0.3198
14936W        W33790   1.618   9.633  13.715  0.0546  0.0351  0.3293
14937W        W33791  10.749  15.065  13.647  0.1582 -0.1409 -0.0139
14938W        W33792   8.328   6.420  16.001 -0.1500 -0.0677 -0.3124
14939W        W33793  14.359   9.613   4.849 -0.3305  0.2570 -0.1796
14940W        W33794   5.520   1.323   2.172 -0.3008  0.0504 -0.0518
14941W        W33795   1.997   1.740  14.859 -0.2116 -0.1744  0.1466
14942W        W33796  13.553   1.728   4.650 -0.0076  0.0256  0.1218
14943W        W33797   1.115  15.344  16.378  0.0192 -0.0547 -0.0912
14944W        W33798  12.731  13.078  12.769  0.2526  0.0283  0.2392
14945W        W33799   8.971  11.267   0.734 -0.1987  0.0483 -0.0927
14946W        W33800  11.890  16.641  15.255  0.1420  0.1711  0.1578
14947W        W33801  10.540  10.189   2.245 -0.1756  0.1636 -0.2500
14948W        W33802  14.876   1.840   1.150 -0.2702 -0.2247  0.1977
14949W        W33803  12.379  12.742  13.666 -0.0083 -0.0589  0.0121
14950W        W33804  17.030  13.921   1.133 -0.1290  0.0571 -0.1190
14951W        W33805   2.649   3.468   1.191  0.0118  0.0011 -0.2840
14952W        W33806   7.276  12.187   4.288 -0.0342  0.1025  0.1158
14953W        W33807  16.237   8.838   4.198 -0.0969  0.1602  0.0166
14954W        W33808  17.348  15.230  12.965  0.3693  0.2382 -0.0253
14955W        W33809  14.001   3.790   1.671  0.1329 -0.0077  0.0761
14956W        W33810  10.127  10.025  15.476 -0.1824  0.4030 -0.3935
14957W        W33811   2.610  16.929  15.852  0.1090 -0.0206  0.1059
14958W        W33812   6.367   7.992  12.139  0.1299 -0.3332  0.0460
14959W        W33813   9.843   7.529   0.358 -0.0168  0.3366  0.1874
14960W        W33814   2.358   2.024  16.956 -0.3311 -0.0671  0.1615
14961W        W33815   9.625   9.148  13.197 -0.0936  0.2310  0.1132
14962W        W33816  10.520  10.341  15.382  0.2313 -0.0436  0.2337
14963W        W33817   4.723   1.692  13.398 -0.0407  0.1049  0.1738
14964W        W33818  13.468   1.977  13.638  0.0824  0.0809 -0.2652
14965W        W33819  17.155   7.864   0.217  0.0168  0.1150 -0.0365
14966W        W33820  17.560   2.308  16.321 -0.1237  0.0739 -0.1487
14967W        W33821  17.356   3.287  17.218  0.1194  0.2628  0.2133
14968W        W33822  12.362   3.228  13.011  0.0842  0.1060 -0.2669
14969W        W33823  14.750   9.357   4.646 -0.3193  0.2071  0.1027
14970W        W33824   5.329   5.890  17.148 -0.1950  0.0944  0.1259
14971W        W33825  15.246  16.360  16.439 -0.0185  0.0265  0.4458
14972W        W33826   8.077  10.453   3.076  0.2530 -0.0552  0.1796
14973W        W33827  12.628   1.048   0.466 -0.1884  0.2488  0.2049
14974W        W33828   5.433   7.368   3.669 -0.0067 -0.1520 -0.0625
14975W        W33829   7.636   3.862  16.969 -0.2070  0.1262  0.0847
14976W        W33830   4.663  12.471   3.144 -0.1178  0.3162 -0.0537
14977W        W33831   6.616  11.691   4.896 -0.0397 -0.1515  0.0391
14978W        W33832  12.117   8.459   1.561  0.2328 -0.0156 -0.0361
14979W        W33833  15.281   6.054   2.826 -0.0238  0.1839 -0.2051
14980W        W33834  12.312  13.363  14.479 -0.4082 -0.0579 -0.0734
14981W        W33835  12.704   4.360  12.117  0.1633 -0.1784  0.0585
14982W        W33836   6.148   3.690   1.782 -0.3273 -0.0989 -0.1611
14983W        W33837   2.591   6.219   5.234 -0.0606  0.1369 -0.2217
14984W        W33838   8.317   0.552   0.805 -0.0850  0.2878 -0.2027
14985W        W33839   2.114  16.488   4.217  0.2411 -0.1825 -0.0243
14986W        W33840   7.466   9.355   0.876 -0.1791 -0.2159  0.2732
14987W        W33841   4.110  16.598  17.198 -0.0011  0.0698 -0.3008
14988W        W33842  13.770  14.746  15.837 -0.0114  0.0849 -0.0774
14989W        W33843  13.001   8.670  14.093  0.0130  0.2331  0.3651
14990W        W33844   3.161   9.529   3.918  0.0106  0.0287  0.1156
14991W        W33845  15.920   1.440  13.289 -0.0728  0.1192  0.1808
14992W        W33846   0.199  17.568  15.367  0.3932  0.0447 -0.1999
14993W        W33847   7.262  14.276   3.930 -0.2762  0.0266 -0.0162
14994W        W33848  10.107  15.516   1.110  0.0280  0.1839 -0.1485
14995W        W33849  17.188  17.391  12.961  0.2986 -0.1129  0.2043
14996W        W33850   2.975  11.643  13.295  0.3129 -0.0181 -0.1273
14997W        W33851  12.759  16.203  14.868 -0.2492 -0.0297 -0.2793
14998W        W33852   7.183   2.772  16.568  0.3323 -0.0567 -0.3145
14999W        W33853   3.443   3.340   5.191  0.1106 -0.0229 -0.0181
15000W        W33854   2.141  12.417  13.408  0.2519 -0.0824  0.2507
15001W        W33855  10.110   2.986   1.733 -0.2962 -0.1011 -0.1323
15002W        W33856   8.154   0.042  16.172 -0.0197 -0.2074  0.1408
15003W        W33857  11.027  14.855   2.691 -0.0299  0.0434  0.0481
15004W        W33858   2.980  10.599   1.229  0.0327  0.2752 -0.1477
15005W        W33859   9.210   4.361  14.352  0.2766 -0.1013 -0.0046
15006W        W33860  17.099   3.316   2.124 -0.0969  0.0182 -0.4232
15007W        W33861   8.167   5.193  12.860  0.1017 -0.0457  0.1365
15008W        W33862   1.625  10.803   4.192  0.0261 -0.3627 -0.0449
15009W        W33863   5.836  16.720   5.395 -0.0454  0.0278  0.0845
15010W        W33864  10.798  14.435   1.627  0.0626 -0.0984  0.3349
15011W        W33865  17.006   6.041   5.190 -0.0701  0.3407 -0.0488
15012W        W33866   9.330   6.195   0.318 -0.1772 -0.1250 -0.0676
15013W        W33867  13.333   6.302   3.406  0.2012 -0.1429 -0.0342
15014W        W33868  13.222  12.672   1.567 -0.0212  0.2417 -0.6044
15015W        W33869  14.041   7.606   4.651 -0.1674  0.0904 -0.0564
15016W        W33870   3.157   7.410   5.051 -0.4611 -0.2231  0.2976
15017W        W33871   5.167   6.738   0.578 -0.0367 -0.0655 -0.1066
15018W        W33872  12.666  12.591  12.468  0.0959 -0.4460  0.1021
15019W        W33873   1.681  16.617  14.973  0.1221  0.0617  0.0686
15020W        W33874  12.047  13.474  17.002 -0.1749  0.0865 -0.0082
15021W        W33875  17.600   1.501  15.251 -0.1565  0.0186  0.2855
15022W        W33876   4.668  14.115  13.649 -0.0029  0.0254  0.0702
15023W        W33877   2.797   3.852   2.294 -0.3045 -0.1590 -0.3090
15024W        W33878   6.731   8.912  14.448  0.0433  0.0009  0.0845
15025W        W33879   6.960  14.259   1.069  0.0138 -0.1327 -0.2982
15026W        W33880  13.932  13.498  12.947  0.0761 -0.3434  0.1189
15027W        W33881   6.532  15.938   4.437 -0.1102 -0.0170  0.2109
15028W        W33882  16.055   0.659  15.239  0.1641 -0.1545  0.0259
15029W        W33883   4.207  17.142   4.330  0.0182 -0.0517 -0.2460
15030W        W33884   8.446  10.600   2.686  0.2542  0.1874 -0.0060
15031W        W33885  16.904  13.144  17.019  0.1141 -0.2816  0.0293
15032W        W33886   9.126   5.693  16.673 -0.1370 -0.1167  0.2486
15033W        W33887  15.581  16.808  11.945  0.0471 -0.2905  0.0344
15034W        W33888   0.933   7.047  16.059 -0.0208 -0.1205 -0.0316
15035W        W33889   8.919   1.044  13.841 -0.0639  0.1227  0.0534
15036W        W33890  16.689  13.384   4.746 -0.0127  0.3404  0.1949
15037W        W33891   5.727  15.569   0.008 -0.2671  0.0308 -0.1057
15038W        W33892  12.366   2.218   4.385  0.0320  0.1654  0.0661
15039W        W33893  14.129  13.796  14.497  0.0202  0.2007 -0.3830
15040W        W33894   9.855  16.727  12.978  0.0152 -0.0786  0.0139
15041W        W33895   5.177   3.909   2.898 -0.3262  0.1780  0.0948
15042W        W33896   1.273  13.167   2.213 -0.2454  0.3265  0.0943
15043W        W33897   1.087   0.516   4.520 -0.0931 -0.0534  0.3589
15044W        W33898  11.557   7.557   4.963  0.0063 -0.0062 -0.2104
15045W        W33899   9.448  12.395  12.679 -0.2443 -0.2011  0.3643
15046W        W33900   6.373  11.534   0.859 -0.0212 -0.0648 -0.1344
15047W        W33901   9.673   2.212  16.618  0.1961  0.0861  0.2458
15048W        W33902  12.243  12.500   1.138 -0.1568  0.0032  0.1633
15049W        W33903   7.089   6.860   3.032  0.3166 -0.0576  0.0018
15050W        W33904   0.603  14.774  15.732  0.0683 -0.4048  0.0356
15051W        W33905   7.020  16.586  12.848 -0.1328 -0.4665  0.0444
15052W        W33906  12.151   8.080   2.364 -0.2274 -0.1698  0.1489
15053W        W33907  11.583  15.083   4.190  0.3252 -0.0624 -0.0333
15054W        W33908   0.065   8.275  12.939  0.1134 -0.2210  0.2436
15055W        W33909   0.155   2.060   3.171  0.0560 -0.1216 -0.6025
15056W        W33910  15.171   6.127  16.545  0.0546  0.1104 -0.3002
15057W        W33911   7.633   9.160  15.504 -0.0842 -0.1260 -0.1664
15058W        W33912   2.544  17.141   5.445 -0.1891  0.5320  0.0366
15059W        W33913  17.459   2.695   1.527  0.1615  0.3895 -0.1137
15060W        W33914   9.852   3.351  15.163  0.1122 -0.2986  0.0268
15061W        W33915  10.578  12.583   4.555 -0.1115 -0.3026 -0.1675
15062W        W33916  15.266   0.257   0.579  0.3827 -0.1233 -0.1760
15063W        W33917  10.190   5.595  15.946  0.2876 -0.0516 -0.0484
15064W        W33918  12.794   4.565  12.563 -0.2315 -0.1762  0.1539
15065W        W33919  15.884  12.276   3.134 -0.3633  0.2822  0.1000
15066W        W33920  11.960   1.930  15.843  0.0976  0.2045 -0.1178
15067W        W33921   1.248  11.983  15.915  0.1339  0.5095  0.1423
15068W        W33922   3.753  17.184   4.201 -0.2071  0.1985  0.0671
15069W        W33923  17.368  17.560  13.532  0.0753  0.0761  0.0550
15070W        W33924   2.678   9.413  13.639 -0.4138  0.1951 -0.0676
15071W        W33925   4.545  13.274  13.980  0.2933 -0.0503  0.0063
15072W        W33926   1.231  11.951   1.221 -0.0398 -0.0293 -0.0354
15073W        W33927  12.786   9.266   5.031 -0.1414 -0.0615  0.0256
15074W        W33928   1.858   4.749  14.940  0.0006 -0.2216 -0.2894
15075W        W33929   5.441   6.901  15.995 -0.2473 -0.1397 -0.1057
15076W        W33930   1.632  15.870  16.487 -0.0733 -0.0027  0.1059
15077W        W33931   4.417  13.281  14.729  0.3644 -0.0967  0.0565
15078W        W33932  13.910  15.665   1.741 -0.0290  0.0925  0.0946
15079W        W33933  13.093   3.437   5.269 -0.1551  0.1078  0.0522
15080W        W33934  11.608   6.287   6.236  0.4414 -0.0693  0.0000
15081W        W33935   6.517   6.932  12.629 -0.2096 -0.1287  0.1583
15082W        W33936  15.531   1.226   1.526  0.0665  0.0913  0.1693
15083W        W33937  15.411   4.760  13.858  0.1134  0.1782 -0.1786
15084W        W33938   9.940   6.801  13.086 -0.0608  0.0304  0.0055
15085W        W33939   4.016   4.294  15.020  0.0239 -0.0933 -0.0280
15086W        W33940   3.984   8.530  15.392  0.1291  0.1345 -0.1378
15087W        W33941  17.559   4.401   3.040  0.2499 -0.1552  0.0617
15088W        W33942   4.482   5.053   3.046  0.0667  0.2801  0.0807
15089W        W33943   5.489  14.912  16.688  0.1160 -0.1447 -0.3435
15090W        W33944  13.217  16.166  13.972 -0.0949  0.2941  0.0937
15091W        W33945  11.024  10.475  14.620  0.0017  0.1161  0.0061
15092W        W33946  13.848   6.119   0.017  0.0610 -0.3469 -0.1890
15093W        W33947   9.306   7.781   2.218 -0.0921  0.2615 -0.0980
15094W        W33948  10.332  12.038  13.800 -0.0639 -0.1382  0.1599
15095W        W33949   5.684  14.980   1.783  0.0560  0.0544 -0.0526
15096W        W33950  17.210  12.047  12.162 -0.2186 -0.0895  0.0651
15097W        W33951  11.641  10.455  16.608  0.1130  0.0703  0.0557
15098W        W33952   0.741   9.457   2.251 -0.2327  0.0376  0.1736
15099W        W33953   8.778   8.787   4.844 -0.0472 -0.3896 -0.0729
15100W        W33954   7.995   9.450  14.933  0.3677  0.3570 -0.0614
15101W        W33955   5.742  11.967   4.463 -0.0322  0.0346 -0.1472
15102W        W33956   1.575   7.834   0.969 -0.0525 -0.2096  0.1828
15103W        W33957  11.984   9.408   3.865  0.1059  0.2331 -0.0400
15104W        W33958   3.809   2.026   2.543 -0.1619  0.1933 -0.1738
15105W        W33959   7.828  10.094  13.888  0.2115 -0.1728 -0.0575
15106W        W33960  12.213   4.693  16.019  0.0733  0.0241  0.3094
15107W        W33961   0.182   6.054   1.383 -0.2070  0.0221  0.2166
15108W        W33962  12.306   1.895  14.107 -0.4912 -0.2500 -0.0900
15109W        W33963  15.147  15.079   0.902 -0.1723  0.1110 -0.2649
15110W        W33964  17.563   0.185  14.511  0.0856 -0.5016 -0.1127
15111W        W33965   9.122  14.111   0.277 -0.2663  0.3990  0.0346
15112W        W33966   4.452   2.126  13.265  0.0719 -0.0849  0.0371
15113W        W33967  10.153   4.724  12.523 -0.3234 -0.0846  0.0376
15114W        W33968  15.564   9.045  16.048 -0.0633  0.0879  0.1012
15115W        W33969  15.032   2.389  12.658  0.1170 -0.0340  0.1181
15116W        W33970   2.729   0.916   4.903 -0.1335  0.0096  0.2933
15117W        W33971  13.854   4.927   1.166  0.2229  0.0926  0.1611
15118W        W33972   9.163  11.476   1.673 -0.0743 -0.0325 -0.1170
15119W        W33973  11.801   7.868   3.312  0.0450  0.0842 -0.0909
15120W        W33974   4.403  15.104   5.031  0.0288 -0.2322  0.0828
15121W        W33975  13.562  14.517   2.959 -0.0817 -0.0432 -0.0102
15122W        W33976   2.080   6.257   4.298 -0.0632  0.1886 -0.0364
15123W        W33977   9.546   4.250   0.322  0.1306  0.1864  0.0736
15124W        W33978  10.040  14.390  14.502 -0.1868  0.0723 -0.1625
15125W        W33979  16.955   1.111  15.499 -0.0898  0.0564 -0.2114
15126W        W33980   5.694   2.735  14.826 -0.1818 -0.2286  0.3247
15127W        W33981  10.420   9.493   0.086  0.1322 -0.4955 -0.0183
15128W        W33982   7.637  11.012   3.562  0.2314  0.0444 -0.2509
15129W        W33983  11.863   8.016   0.715  0.0587  0.0855 -0.1878
15130W        W33984  13.728   0.622  14.910  0.1980 -0.5511  0.2538
15131W        W33985   9.885   5.272   1.347 -0.1473  0.0180 -0.0147
15132W        W33986   6.802   1.428   3.747 -0.2321  0.1409  0.2307
15133W        W33987   5.899  16.442  16.830 -0.2350  0.0701  0.0784
15134W        W33988   3.886   2.787   4.297  0.1111 -0.0121 -0.1558
15135W        W33989  13.970  14.426  13.565 -0.0162  0.3130 -0.0157
15136W        W33990   3.155  14.455  17.181 -0.1039 -0.1573  0.2679
15137W        W33991  10.550  12.607  13.584 -0.0338  0.0491  0.2350
15138W        W33992  12.589   8.327  15.684  0.0971 -0.3915 -0.0361
15139W        W33993  12.978  16.560   5.076  0.3066 -0.0047 -0.2947
15140W        W33994   0.917  12.482  12.857  0.1856 -0.1194 -0.1730
15141W        W33995  13.350  15.100   0.646  0.1506  0.4031 -0.5157
15142W        W33996   0.207   0.946  15.431  0.0026 -0.3161  0.2027
15143W        W33997   7.900   0.481   1.913  0.3311 -0.0697 -0.1765
15144W        W33998   8.344  12.957  14.973  0.1103  0.1494  0.0753
15145W        W33999  15.080  17.083  14.390  0.1798  0.2382  0.0565
15146W        W34000  13.647  11.548  11.902 -0.0090 -0.0336  0.1370
15147W        W34001   6.268   6.944  13.562  0.0110  0.0162 -0.1123
15148W        W34002   7.113   8.827  15.733  0.0374  0.1306 -0.0126
15149W        W34003   1.290   5.927  16.768 -0.0662 -0.2739 -0.0351
15150W        W34004   5.708   2.703   2.214 -0.0230 -0.3024  0.2290
15151W        W34005  14.630  15.349  15.976  0.0976  0.1940  0.0461
15152W        W34006   3.958   0.956   4.072  0.0955 -0.1275  0.3260
15153W        W34007  11.190  11.533   1.408 -0.3109 -0.0434 -0.1828
15154W        W34008  11.388   0.193   2.520 -0.1808 -0.0259 -0.0328
15155W        W34009  10.225  14.744  15.640 -0.0294 -0.0366  0.2420
15156W        W34010   3.607   2.286  12.291  0.4187 -0.0382  0.1578
15157W        W34011  17.473  13.891   2.161 -0.1380  0.0784  0.0420
15158W        W34012   0.570  11.274   3.382  0.0272  0.1009 -0.0894
15159W        W34013   6.647  10.723  16.168 -0.2143  0.2812  0.3095
15160W        W34014  16.975  10.813  14.970 -0.0068  0.2175  0.1766
15161W        W34015   2.339   7.286   0.184 -0.0323 -0.1949  0.0847
15162W        W34016   5.151  15.850  15.729  0.1297 -0.0006  0.1153
15163W        W34017  15.234   7.763  13.911 -0.0962 -0.0223 -0.1568
15164W        W34018   6.426   3.688  11.931 -0.0226  0.0195 -0.1862
15165W        W34019  16.903  14.916   0.093 -0.0711  0.0629 -0.1202
15166W        W34020  11.413   9.904   1.888 -0.2257  0.0471 -0.0074
15167W        W34021   9.907   6.273  14.235  0.0403  0.0525 -0.2085
15168W        W34022   2.856  10.596  14.426 -0.0988 -0.0222 -0.1344
15169W        W34023  14.502   2.226   3.988  0.1821 -0.0878 -0.1817
15170W        W34024   2.586   0.290  14.010  0.0920 -0.4694 -0.1867
15171W        W34025   2.832   5.650  12.230  0.1113  0.4431  0.1951
15172W        W34026   9.730   4.612  12.761  0.0867  0.0648  0.1765
15173W        W34027   0.831  15.323   1.237  0.1149 -0.1401 -0.0028
15174W        W34028  17.436  16.586   4.004  0.2446 -0.1325 -0.1568
15175W        W34029   5.989   8.121   5.471 -0.0352 -0.1191  0.2385
15176W        W34030  16.651  11.313  15.602  0.0530 -0.1355  0.4112
15177W        W34031  13.467   1.017  17.245  0.0458 -0.4583  0.1712
15178W        W34032  13.517  10.938  14.510 -0.2874  0.0637 -0.1986
15179W        W34033   5.895  10.598   3.492  0.1944 -0.0067 -0.0311
15180W        W34034   1.844   5.616  12.122 -0.1299 -0.0494  0.1373
15181W        W34035  15.173  14.839   1.861 -0.3057  0.0052  0.3060
15182W        W34036   4.114   3.798   2.222  0.0672  0.0005 -0.1867
15183W        W34037   2.022   7.193  12.796  0.0821  0.1575  0.2908
15184W        W34038  15.422  13.787   2.148  0.2190  0.1476  0.2231
15185W        W34039  11.096   4.799   5.040 -0.1664  0.2412  0.0885
15186W        W34040   7.072   7.568  13.250 -0.1325 -0.1669  0.1296
15187W        W34041   6.493  15.767   5.112  0.3476  0.0439  0.1775
15188W        W34042   3.940  10.359  15.918 -0.1833  0.0886  0.0367
15189W        W34043   4.932   1.805   1.691  0.1544  0.1035  0.3201
15190W        W34044  12.185   0.330   4.537 -0.1225  0.4924 -0.0295
15191W        W34045  14.495   5.772  16.147  0.1742  0.2504 -0.0640
15192W        W34046  15.976  11.246   3.485  0.2131  0.1952  0.5604
15193W        W34047   7.078   9.356   1.942 -0.3381 -0.0200  0.0887
15194W        W34048   9.339   3.798   0.844 -0.2514 -0.1272  0.1196
15195W        W34049   2.734   6.139   2.861 -0.2210  0.2742  0.0963
15196W        W34050   1.523   0.088  12.493  0.1251 -0.1927 -0.0833
15197W        W34051   2.395  16.115  16.028 -0.0490  0.1957  0.0981
15198W        W34052  12.924  15.716  14.654 -0.3480  0.0414  0.2394
15199W        W34053   0.460   0.482  12.940 -0.3279  0.0964 -0.3024
15200W        W34054   4.038  15.356  14.141  0.2023  0.2198 -0.2996
15201W        W34055  17.012  10.254   4.436 -0.0320 -0.0192  0.0937
15202W        W34056   8.569   2.413  12.554 -0.1148  0.0287  0.0412
15203W        W34057   0.593  15.755   0.989 -0.2746 -0.0592 -0.0463
15204W        W34058  10.062  14.161  14.975 -0.0951  0.0109  0.1542
15205W        W34059   9.140   9.906  15.510 -0.0353  0.0361 -0.2286
15206W        W34060  11.034   8.364  12.488  0.1592  0.0158 -0.2023
15207W        W34061   8.195   9.153   3.026  0.3796  0.1861 -0.0370
15208W        W34062  17.239   8.862   2.692  0.1780  0.1966 -0.1021
15209W        W34063  13.662  15.599  13.003  0.1596  0.1715  0.2017
15210W        W34064  13.447   9.437  15.442  0.3341  0.1341 -0.0449
15211W        W34065   1.004  14.728  12.895 -0.1071 -0.2246 -0.2038
15212W        W34066   5.198   4.044  12.985 -0.1834  0.0328  0.0254
15213W        W34067  13.142  12.825   4.701 -0.0948 -0.0442 -0.5438
15214W        W34068   2.304  14.198  13.215 -0.5424  0.0212 -0.1073
15215W        W34069  14.293  11.582   5.191 -0.5502 -0.0608  0.1528
15216W        W34070   0.454   5.086   3.908 -0.0478  0.1271 -0.1541
15217W        W34071   6.484   3.115  17.120  0.1066 -0.0114  0.2167
15218W        W34072   9.990  13.894  14.491 -0.2258  0.1203  0.0178
15219W        W34073   0.608   9.593   0.114  0.0724 -0.0478 -0.0049
15220W        W34074   6.024   3.883  12.939 -0.0085  0.0671  0.1045
15221W        W34075   5.276   7.626  12.799  0.0082 -0.2343  0.0013
15222W        W34076  10.104   8.031   5.063 -0.0403 -0.2231 -0.1674
15223W        W34077   8.875   8.147  12.357  0.0075  0.0313 -0.1318
15224W        W34078   8.463   6.380  17.042 -0.1709 -0.1485 -0.0596
15225W        W34079  15.764   7.860  16.027 -0.1007 -0.2949 -0.1895
15226W        W34080   5.953  10.736  12.922  0.0907  0.1710 -0.0320
15227W        W34081  16.520   8.790   2.201  0.1017  0.0504 -0.0195
15228W        W34082   8.108   4.271  11.936 -0.1426 -0.4204  0.2854
15229W        W34083  15.936  10.300  15.626 -0.1381 -0.0909 -0.3493
15230W        W34084  15.958  14.340   1.477  0.0091 -0.0527  0.1050
15231W        W34085   7.518   0.899  12.889  0.1330 -0.1870  0.2136
15232W        W34086   6.794   7.765   3.689  0.0838  0.4281 -0.2412
15233W        W34087   7.000   5.334   2.765  0.0279  0.0706 -0.1476
15234W        W34088   1.352  13.733  15.670  0.0993 -0.0500 -0.0309
15235W        W34089   5.070  15.859  16.669  0.0350 -0.0055 -0.3213
15236W        W34090  10.296  13.229   1.198  0.3120 -0.1023 -0.2523
15237W        W34091  11.744   4.549  14.828 -0.0860 -0.1195 -0.1062
15238W        W34092  14.127   0.384  11.814  0.0592 -0.2976  0.0599
15239W        W34093  10.222   2.381   0.082  0.0366 -0.0493  0.1746
15240W        W34094   8.672   4.233   1.559  0.2473 -0.2780  0.1747
15241W        W34095   9.162   1.406   1.772 -0.1058 -0.2358 -0.5309
15242W        W34096  12.264   9.337  12.528  0.0291  0.1625  0.2517
15243W        W34097  11.898  12.119   1.231  0.0743  0.1374  0.0931
15244W        W34098   8.768  16.557   1.774  0.0817  0.1157  0.0391
15245W        W34099  15.503  10.557   3.803  0.0664 -0.3097 -0.2971
15246W        W34100   2.286   9.996  15.812  0.0579  0.0603  0.0352
15247W        W34101   5.027   6.969  16.729  0.2096  0.2857 -0.4320
15248W        W34102   1.238  17.533   2.584 -0.0582  0.1801 -0.0117
15249W        W34103   8.367  16.437   4.086 -0.0086  0.4136 -0.1324
15250W        W34104   6.946   0.532   2.991  0.0264 -0.3569 -0.0316
15251W        W34105  12.876  10.940  12.203  0.2670 -0.1054  0.1603
15252W        W34106   2.955  10.833  17.099 -0.0928  0.3069  0.1459
15253W        W34107   1.264   6.310  14.484  0.0693  0.1137  0.0364
15254W        W34108   2.054   0.951  11.959 -0.2292  0.0816  0.0215
15255W        W34109  10.316   3.079  15.038  0.0228  0.2462  0.0706
15256W        W34110   3.920   9.853   1.209 -0.2145 -0.0071  0.0028
15257W        W34111  13.010  14.852  14.362  0.1862  0.0810  0.0121
15258W        W34112   0.556   2.338  11.778  0.0263  0.0916  0.1655
15259W        W34113  10.169   6.454  14.808 -0.2250 -0.0213 -0.1334
15260W        W34114   4.278  14.212   1.832  0.1281  0.0602  0.3280
15261W        W34115  14.633   7.140  13.529  0.1157  0.0395 -0.3505
15262W        W34116   7.585   6.419   4.198 -0.0230  0.2572  0.1294
15263W        W34117   5.139   6.808   4.918  0.0051 -0.0099 -0.0045
15264W        W34118   8.902  12.674   3.490  0.0965  0.0300 -0.1907
15265W        W34119   7.369   4.777   3.817 -0.0028  0.1357  0.2851
15266W        W34120  10.870  14.023   4.480 -0.0875  0.1339 -0.0158
15267W        W34121   4.500  17.273  13.878 -0.1039 -0.0543 -0.0917
15268W        W34122   5.301   3.666   5.298 -0.2128 -0.2877 -0.0161
15269W        W34123  14.005  16.860   2.069 -0.0582 -0.0299 -0.0449
15270W        W34124   1.950  14.432   5.092 -0.3695 -0.0479 -0.3605
15271W        W34125  13.940   9.947  14.849 -0.1428 -0.0455  0.0719
15272W        W34126   7.777   4.018  13.274 -0.3729  0.0715 -0.0557
15273W        W34127   8.461  14.341   1.845 -0.0988  0.0937  0.1123
15274W        W34128  17.437  16.132   0.850 -0.1788  0.0440  0.3038
15275W        W34129  10.948   0.040  15.536 -0.1871  0.0450  0.1235
15276W        W34130   3.838  17.001  15.365  0.2236 -0.1370 -0.0470
15277W        W34131   1.303   5.845   0.083  0.1784  0.0865 -0.1954
15278W        W34132  17.320   3.925  14.084  0.2072  0.0196  0.0968
15279W        W34133  12.106   0.809  16.370 -0.0428  0.0226 -0.0216
15280W        W34134   3.673  11.993   3.555 -0.0143  0.0512  0.1589
15281W        W34135   4.008  10.468  12.866  0.2976 -0.3463 -0.0014
15282W        W34136   4.348  12.109  16.652 -0.1283 -0.1653  0.1685
15283W        W34137   0.768  15.004  13.488  0.0578  0.0848 -0.0508
15284W        W34138  11.619   9.148  15.434  0.0561  0.0889  0.2391
15285W        W34139  16.925  17.470   3.335 -0.2292 -0.1355  0.3903
15286W        W34140   6.164  15.997   3.671  0.3110 -0.3455 -0.4813
15287W        W34141  16.081   3.406  12.084  0.1845  0.1840  0.1211
15288W        W34142   9.956   4.956  13.568  0.3413 -0.1851  0.1375
15289W        W34143   6.749   0.901   0.483 -0.1328  0.0217 -0.0090
15290W        W34144  11.977   4.765   0.513  0.2599  0.0429 -0.3493
15291W        W34145  13.221   7.665  12.921  0.1753 -0.1955 -0.0511
15292W        W34146  12.755   3.672  15.506  0.2105 -0.0001  0.1118
15293W        W34147   2.530   4.368  14.814 -0.1790  0.1985  0.0999
15294W        W34148   7.121   3.107  16.187 -0.1425  0.1244 -0.0049
15295W        W34149  10.956   8.331  13.754  0.2702  0.0363  0.0915
15296W        W34150   6.344  12.901   3.322 -0.2663  0.0992  0.1194
15297W        W34151  10.609  11.763  12.267 -0.0216  0.0571  0.0489
15298W        W34152  10.423   4.122   5.016  0.1929  0.1245 -0.0395
15299W        W34153  13.421  12.264  13.893 -0.1942  0.2658  0.4361
15300W        W34154   3.376   2.726  13.040  0.0385  0.1482 -0.0775
15301W        W34155  16.702   8.589   4.374  0.1156  0.3307  0.3682
15302W        W34156   4.972   9.327   0.322  0.2673 -0.3392  0.0951
15303W        W34157   0.039   1.166  16.576  0.0003 -0.1162  0.0301
15304W        W34158   6.430   5.435   3.598  0.2334  0.1931 -0.2077
15305W        W34159   7.462   5.999   3.234 -0.2167  0.1961  0.1275
15306W        W34160  10.339  13.675   3.746  0.2099 -0.1605 -0.1342
15307W        W34161  17.200  13.750  15.355  0.1082  0.1217 -0.1740
15308W        W34162   4.612   1.996   2.082  0.1515  0.1393  0.0308
15309W        W34163   8.427  10.811  16.404 -0.1743  0.2060  0.2203
15310W        W34164  14.573  14.588  15.302 -0.0564  0.0317 -0.1142
15311W        W34165   1.297   8.062  12.139  0.0742 -0.1803 -0.1748
15312W        W34166   2.381  14.769  12.956  0.1860  0.5005  0.1308
15313W        W34167  11.911   9.838   1.874  0.0177 -0.2084  0.1284
15314W        W34168   7.304  15.219  14.507  0.3130  0.0816  0.1700
15315W        W34169  16.998   2.573   1.599  0.3849 -0.2934  0.2896
15316W        W34170  13.205   1.767  15.740 -0.1719 -0.1713  0.0274
15317W        W34171   3.611  16.808   3.223  0.1266 -0.2438 -0.2771
15318W        W34172   7.156   9.888   3.046 -0.2569  0.0796  0.2603
15319W        W34173  13.804  13.173   2.510  0.0929 -0.3255 -0.2335
15320W        W34174   7.648   9.277   0.191 -0.0897  0.1489 -0.0154
15321W        W34175  11.080   4.381   3.973 -0.0276 -0.0541  0.2763
15322W        W34176   0.109  17.378   3.657  0.1292 -0.3368 -0.2216
15323W        W34177   2.552   6.169  13.560 -0.0034  0.0524 -0.0658
15324W        W34178   1.552   1.989   0.243 -0.1233  0.0356  0.0443
15325W        W34179   9.454  15.637   5.084 -0.1670  0.3957 -0.1832
15326W        W34180   3.661  13.505  15.671 -0.0646  0.1517 -0.2550
15327W        W34181   7.404  11.517  13.986 -0.0057  0.1693 -0.2857
15328W        W34182   4.005  12.659  12.329 -0.0901  0.0924  0.0700
15329W        W34183   4.170  14.025  14.365  0.3341  0.3406  0.0724
15330W        W34184  13.673  11.550   1.499  0.1025  0.2432 -0.2050
15331W        W34185   9.851   9.166  16.496  0.1529 -0.0469  0.0228
15332W        W34186   9.607  15.732  13.887  0.0747  0.2016 -0.0328
15333W        W34187   9.910   2.915   4.996  0.2766 -0.1785  0.1250
15334W        W34188   0.929   7.642  16.098  0.0757  0.4578  0.3887
15335W        W34189  11.805   2.721  14.582 -0.0228 -0.0615  0.1378
15336W        W34190  10.060   1.832  15.642 -0.1125  0.0460 -0.2376
15337W        W34191   1.666  12.123  13.124  0.0594 -0.0147  0.0937
15338W        W34192  12.819   7.468  13.158  0.0909 -0.1220 -0.2198
15339W        W34193   8.214   4.853   0.819 -0.2371 -0.0556 -0.2104
15340W        W34194   6.056  11.749   2.714 -0.2810  0.1553  0.1453
15341W        W34195  11.461   5.863   3.381  0.1616 -0.0575 -0.1140
15342W        W34196  14.189  16.287  13.043  0.2630 -0.0089  0.0112
15343W        W34197   3.517   9.126   5.296  0.0158  0.2426  0.1945
15344W        W34198   9.637  15.226   0.814 -0.1136 -0.1597 -0.0637
15345W        W34199   6.896   7.036   0.598 -0.0475  0.5028  0.2633
15346W        W34200  15.373   7.414  12.411 -0.0077 -0.2878  0.0721
15347W        W34201  15.565   8.288   5.055  0.3167 -0.1488 -0.0678
15348W        W34202  16.303   8.308  16.821 -0.2107 -0.0349 -0.0042
15349W        W34203  10.990  13.226   4.301  0.1766  0.2582 -0.1555
15350W        W34204   3.775  10.810   4.823 -0.2300  0.4451 -0.1241
15351W        W34205  14.110   5.471   2.590 -0.0985 -0.0874 -0.0575
15352W        W34206  13.778   7.652  13.369  0.1044  0.0288 -0.1537
15353W        W34207   8.736  17.340  14.889 -0.0252  0.0362  0.0373
15354W        W34208   5.487  16.118  16.928 -0.1366  0.2028  0.3040
15355W        W34209  15.345   3.659   4.243  0.3304  0.0974 -0.2180
15356W        W34210   2.681  10.312  15.723 -0.1482 -0.2465  0.1887
15357W        W34211   8.935  16.103  15.511 -0.4145  0.0014  0.2721
15358W        W34212   2.834  10.944   5.007  0.0267  0.0789  0.2547
15359W        W34213  15.460   9.238   4.498  0.2016 -0.2212  0.0787
15360W        W34214   2.532  16.970   0.656 -0.0899 -0.0436 -0.0421
15361W        W34215   1.386   2.743  12.201 -0.2929  0.2569 -0.0917
15362W        W34216  11.365  12.025  12.784 -0.0873  0.0731  0.1591
15363W        W34217  11.290   7.529  11.275 -0.0359  0.2250  0.1776
15364W        W34218   3.685   1.776  12.666 -0.2830 -0.1594 -0.0364
15365W        W34219  13.898  14.389   1.886  0.0448  0.1872  0.3471
15366W        W34220   6.738  16.256   0.507  0.1671  0.3271  0.0964
15367W        W34221   1.283   0.435  14.596  0.2240  0.1992  0.1285
15368W        W34222   6.359  14.548   0.461 -0.1142 -0.0805 -0.2835
15369W        W34223   4.365   6.486  15.617  0.2145  0.1489  0.0262
15370W        W34224  15.718  12.524   5.525  0.2708  0.1097 -0.1908
15371W        W34225  14.093  14.507   0.223 -0.2194 -0.1591 -0.2266
15372W        W34226   1.739   6.793   0.956  0.0854  0.1496  0.0252
15373W        W34227   0.824  15.271   4.380  0.2153  0.1521  0.3871
15374W        W34228   5.526   9.536   2.671  0.0095 -0.3863  0.1877
15375W        W34229   9.387  14.679  16.131  0.1025 -0.4086  0.0073
15376W        W34230   2.678   8.711  16.455  0.0166  0.0500 -0.0976
15377W        W34231   4.430   3.118  14.695  0.4913 -0.1558  0.0458
15378W        W34232   0.695   1.675  15.941  0.2133 -0.3732  0.1781
15379W        W34233   9.383  16.046  13.584 -0.1808  0.1086 -0.1175
15380W        W34234   2.681   3.027  14.861 -0.3442 -0.1423  0.0322
15381W        W34235  15.164  15.277  16.215 -0.2947 -0.3362 -0.0531
15382W        W34236  16.528  12.200  13.763 -0.0302  0.1837  0.3974
15383W        W34237  10.160   9.872   2.514  0.1120  0.0688 -0.1409
15384W        W34238   4.067   2.309  17.193 -0.0637 -0.0303  0.0235
15385W        W34239   5.093   7.743   5.106  0.0997 -0.1547  0.1155
15386W        W34240   0.709   2.964   4.174  0.0311  0.2254 -0.0214
15387W        W34241  16.676  11.518  13.522  0.0023 -0.1020 -0.2295
15388W        W34242  15.173  12.220  16.583 -0.0123  0.0255 -0.1924
15389W        W34243  15.060   0.037   1.692 -0.2015 -0.4148  0.1079
15390W        W34244   8.598  12.581  15.221  0.1033  0.0034 -0.0877
15391W        W34245   7.696   1.259   4.312 -0.2463  0.1013  0.3096
15392W        W34246   2.581  17.545  16.706 -0.1099  0.0356  0.1231
15393W        W34247   4.407  16.031  16.104 -0.0870  0.2587  0.1515
15394W        W34248   4.541  13.350   2.389 -0.0140 -0.2124 -0.0471
15395W        W34249  12.145  13.064  14.092 -0.0966  0.1405 -0.1419
15396W        W34250   5.755   3.569   1.406  0.0709 -0.0104 -0.1237
15397W        W34251   9.951   2.583  13.720 -0.1428  0.0768  0.1277
15398W        W34252  15.560  15.276   4.388 -0.2633 -0.0312  0.0627
15399W        W34253   2.766   2.748  15.588 -0.1279  0.1555  0.0387
15400W        W34254   3.182   2.724   1.519 -0.0995  0.0235  0.5010
15401W        W34255  14.201  11.680  15.349  0.0700 -0.1056  0.1704
15402W        W34256   5.119  16.480   1.819 -0.1341  0.1897 -0.1180
15403W        W34257  12.647   7.184  15.019 -0.0471  0.1619 -0.3707
15404W        W34258  10.499   8.163  13.708 -0.0030 -0.1812 -0.1487
15405W        W34259  10.822   2.236  13.516 -0.0468  0.0647 -0.2383
15406W        W34260   8.214   4.733  13.159 -0.0410 -0.0988  0.0200
15407W        W34261   9.832  11.110  12.168  0.1279  0.0425  0.1692
15408W        W34262   9.657  13.452  16.001 -0.0085  0.1777  0.1637
15409W        W34263   2.671   7.266  12.684 -0.2863  0.0009 -0.3204
15410W        W34264   2.151   1.670   4.133  0.1418  0.1895 -0.1867
15411W        W34265  11.306   0.771  14.101  0.3294  0.1386 -0.1707
15412W        W34266   2.508   3.778   4.528  0.0956 -0.0884  0.1235
15413W        W34267  11.630  16.024  16.542 -0.1538 -0.1429 -0.4229
15414W        W34268  15.333   5.584  14.738 -0.0478  0.2914  0.0788
15415W        W34269   7.029   4.269  15.693 -0.0235  0.0968 -0.1819
15416W        W34270   5.955   4.669  15.635 -0.2594 -0.2642  0.3699
15417W        W34271  16.660   5.626  16.763  0.0422  0.3226  0.1088
15418W        W34272  10.592   1.288   3.249 -0.1118 -0.1293  0.0587
15419W        W34273   1.251  10.085   0.980 -0.0941  0.0771  0.0973
15420W        W34274   1.412   4.673  16.850  0.1159  0.1320 -0.0242
15421W        W34275  13.676   2.740   2.230  0.0541 -0.0791 -0.1806
15422W        W34276  17.366  12.764  16.514  0.2128  0.2431 -0.0951
15423W        W34277   3.691  14.315  12.915 -0.1239  0.1175 -0.1457
15424W        W34278   6.136   7.234  12.426  0.0433  0.0290  0.0024
15425W        W34279   0.023   3.215  13.782 -0.0933 -0.0033 -0.0629
15426W        W34280   7.332   9.748   1.202 -0.6806  0.0558  0.2901
15427W        W34281   8.264  14.026  15.611  0.1905 -0.2304  0.2848
15428W        W34282  14.686   5.363   2.636  0.1440  0.0543  0.2967
15429W        W34283   9.489  15.957   0.528  0.1509  0.0801  0.0354
15430W        W34284  15.923   1.304   0.347  0.2051  0.0700  0.2129
15431W        W34285  10.876  11.059   2.363  0.2003  0.1514 -0.1723
15432W        W34286  17.051  15.659   0.783  0.1617 -0.0030 -0.2265
15433W        W34287  16.848   9.438   3.240 -0.0899 -0.0188 -0.2693
15434W        W34288   6.047   0.694  16.133 -0.2570  0.0933  0.3634
15435W        W34289  12.370  14.750  12.867  0.0250  0.1092  0.2586
15436W        W34290   3.937  14.288  11.447 -0.0357  0.0314 -0.1646
15437W        W34291   5.904   1.125   2.540  0.0894 -0.1049  0.2209
15438W        W34292   5.117  17.520   4.209 -0.0897 -0.0746 -0.0985
15439W        W34293   9.465   3.133  16.207 -0.1675 -0.3811 -0.1780
15440W        W34294   7.427   5.188   1.379  0.0067 -0.1142  0.1102
15441W        W34295  14.158  14.823   1.915 -0.1268  0.3385 -0.0850
15442W        W34296   4.852  15.165  12.608  0.0916  0.0273 -0.2735
15443W        W34297   6.084  14.109   1.621  0.0625 -0.2522  0.0821
15444W        W34298   3.946  15.540  17.005 -0.1519  0.1663 -0.0440
15445W        W34299  11.207   1.682  11.703  0.0415  0.2525 -0.1784
15446W        W34300  13.431  10.755   3.351 -0.2350  0.2076 -0.0527
15447W        W34301  16.192   1.541   2.087  0.2052 -0.1168  0.1467
15448W        W34302  13.980   1.812  16.957 -0.2970  0.0690  0.4231
15449W        W34303   3.671  10.648  13.931 -0.1198  0.0032 -0.0454
15450W        W34304   1.142   8.924  12.264  0.2913 -0.0446  0.1641
15451W        W34305   2.068  14.979   2.219  0.2075 -0.0112  0.0159
15452W        W34306   8.027  15.628  16.250  0.1721  0.2527  0.3349
15453W        W34307   0.658  10.757   4.288 -0.1483 -0.0379 -0.0512
15454W        W34308  14.034   3.009  13.753 -0.0100  0.1231 -0.0637
15455W        W34309  14.932   4.607  16.040  0.2160  0.1565  0.0307
15456W        W34310   0.403   1.228   0.964  0.2127  0.0833  0.1732
15457W        W34311   4.146   4.117   4.563 -0.2588  0.1780  0.2239
15458W        W34312   1.922   4.545  16.648  0.0316  0.2607  0.1711
15459W        W34313   5.868   1.121  16.958 -0.2916  0.3973 -0.0506
15460W        W34314   8.954   2.845  13.825 -0.0978  0.2136 -0.1517
15461W        W34315   3.731  11.041  13.588  0.2584 -0.0294 -0.0411
15462W        W34316  13.478   8.310  16.702 -0.2465 -0.0346 -0.0016
15463W        W34317   1.983  11.267   0.655  0.2103  0.1486  0.2555
15464W        W34318  16.991  12.415   4.478  0.0410  0.1055 -0.0467
15465W        W34319   0.346   7.722  13.583 -0.0455  0.1621  0.0835
15466W        W34320   9.171  12.394   1.988  0.0078  0.1346 -0.4081
15467W        W34321   2.159   5.644  13.724  0.0796  0.0100  0.0023
15468W        W34322  10.137  14.495  13.539  0.1080 -0.0110 -0.0638
15469W        W34323  17.223   4.207  13.699 -0.1337 -0.6318  0.0498
15470W        W34324  14.474  16.718  12.891 -0.0813  0.0417 -0.2508
15471W        W34325   0.751  17.337  14.369 -0.0716 -0.2285 -0.1019
15472W        W34326   4.425   5.058  15.919  0.1007  0.0668 -0.0300
15473W        W34327  16.721  13.852   1.589 -0.1628  0.2087  0.3607
15474W        W34328   1.082  13.163  16.332  0.0367 -0.0127  0.1982
15475W        W34329  13.564   1.802  11.890  0.2436 -0.0765 -0.2521
15476W        W34330   2.421  11.481   0.308 -0.0951  0.1231  0.1103
15477W        W34331   2.169  16.086   1.123  0.3005  0.2518  0.2315
15478W        W34332   3.701  14.029   0.381  0.0121  0.1323  0.2197
15479W        W34333   4.615  16.097   5.113  0.1846  0.1148  0.2387
15480W        W34334   0.718   6.000   4.643  0.1428  0.0306 -0.1477
15481W        W34335   8.186   0.042  13.996 -0.1442 -0.1973  0.0270
15482W        W34336  15.626   3.928   1.911 -0.0262  0.0738 -0.0635
15483W        W34337  15.882  14.277   3.439 -0.1460  0.1484  0.0061
15484W        W34338   5.245  12.660   1.579  0.0275  0.2957  0.1963
15485W        W34339   0.473  12.195  16.587  0.3501 -0.3316 -0.0808
15486W        W34340  11.875  16.422  16.775 -0.0487 -0.0562  0.1430
15487W        W34341   1.054  12.662  16.391 -0.0169  0.0272 -0.1055
15488W        W34342   7.841   0.912  15.060  0.2006  0.1141  0.0497
15489W        W34343  13.250  10.973  17.109 -0.2217 -0.0300  0.1020
15490W        W34344   3.630   0.351  14.785 -0.1689 -0.1976 -0.1106
15491W        W34345  15.184   9.923  16.507  0.2409  0.3061 -0.1622
15492W        W34346   9.965   5.566   5.173 -0.1741 -0.4950 -0.0081
15493W        W34347   0.920   1.430  15.586  0.0103 -0.0049 -0.2112
15494W        W34348   2.584   6.828  15.243 -0.0594 -0.0408 -0.1903
15495W        W34349  10.781   2.955   0.224  0.1542 -0.0573 -0.0845
15496W        W34350   7.796   0.092   1.638  0.1532 -0.2091  0.0920
15497W        W34351   8.636  10.895   3.679 -0.1298 -0.0958  0.1105
15498W        W34352  17.176   9.085   3.665  0.4468  0.3494 -0.0658
15499W        W34353   0.327  12.225   2.072  0.2212 -0.0867 -0.4704
15500W        W34354  17.097   0.855  11.973 -0.2854 -0.1157 -0.0081
15501W        W34355   0.659  14.314  16.005 -0.0014  0.0361 -0.0160
15502W        W34356   0.836  17.238   2.815  0.1102  0.0444 -0.0992
15503W        W34357   7.663   3.253   3.561 -0.2708 -0.2369  0.2984
15504W        W34358  12.234   5.625   2.060  0.0264  0.1523 -0.0332
15505W        W34359  11.527  15.630  14.549  0.0923 -0.0294 -0.0117
15506W        W34360  14.609   1.104   4.787  0.1487 -0.1901 -0.1153
15507W        W34361  10.518  10.025  16.513 -0.0529 -0.0705 -0.0860
15508W        W34362   1.597   1.491  16.832  0.1243  0.0668  0.0331
15509W        W34363  17.536   4.232  14.515  0.0097  0.0097  0.1721
15510W        W34364  17.065   8.815   0.024 -0.1896  0.0981  0.3688
15511W        W34365   9.526   1.090  16.004 -0.1601  0.0856  0.0293
15512W        W34366   9.258  11.677   0.837 -0.1692 -0.1227 -0.0778
15513W        W34367  14.105   9.898   4.477  0.0975  0.4121  0.3020
15514W        W34368   4.512  11.351  15.153 -0.0515 -0.0165  0.3459
15515W        W34369  12.324  12.842   3.787 -0.1526 -0.5165  0.3832
15516W        W34370  12.008   3.273  14.050 -0.3286 -0.1778  0.1114
15517W        W34371  12.796   0.195   0.634 -0.4396 -0.1601  0.2659
15518W        W34372  13.241   1.376  16.923 -0.0901 -0.4664 -0.2185
15519W        W34373  15.700  15.947  12.382 -0.1793 -0.1641  0.0941
15520W        W34374   8.880  13.701   1.839  0.2854  0.4908 -0.1548
15521W        W34375   1.942  14.000  16.940  0.0813 -0.1950  0.1892
15522W        W34376   9.265   1.062  13.403 -0.0029  0.1489  0.0076
15523W        W34377   5.817  15.412   2.771  0.3292 -0.0905  0.0104
15524W        W34378   4.733  10.439  16.003 -0.0703 -0.2343  0.0276
15525W        W34379  12.856   6.290   3.583  0.0816  0.0201  0.1144
15526W        W34380  10.886   2.957  14.271  0.2060  0.1128 -0.3876
15527W        W34381   9.783  17.584   3.519  0.1471 -0.0569 -0.0450
15528W        W34382   7.583   1.117  16.067  0.1860 -0.0633  0.0646
15529W        W34383  11.963   4.105  15.025  0.0250 -0.3034 -0.0229
15530W        W34384   9.740   9.906   1.631  0.0186  0.2973 -0.0402
15531W        W34385   8.752   7.913   2.984 -0.0320 -0.0983  0.0416
15532W        W34386  15.571  10.204  12.328  0.0033 -0.0284  0.1448
15533W        W34387   9.768  16.186   0.818  0.0087  0.0888 -0.1950
15534W        W34388  12.842  17.056  14.324 -0.0069  0.1950 -0.0803
15535W        W34389  13.236  16.528   2.532 -0.0617  0.0610 -0.1772
15536W        W34390   8.129   4.836  16.936  0.0068  0.1200 -0.2482
15537W        W34391  15.157   5.031   4.603 -0.0544  0.1199  0.0823
15538W        W34392   9.336   9.018   4.685 -0.0388  0.1849  0.0413
15539W        W34393   1.053   5.051  17.032  0.0749 -0.1825  0.0462
15540W        W34394  11.648   6.965   3.422  0.0789  0.0031 -0.0289
15541W        W34395   0.697   2.129  14.498  0.0730 -0.3168  0.1238
15542W        W34396  16.989   0.899   2.963  0.0276 -0.2495  0.3229
15543W        W34397  14.249  11.066   5.031  0.0292  0.1296  0.2638
15544W        W34398   3.916  16.103  12.403  0.1792  0.2783 -0.0296
15545W        W34399   8.002  10.788  16.984 -0.1113 -0.0151  0.0268
15546W        W34400   8.726  15.337   2.377  0.3448 -0.0432 -0.1852
15547W        W34401  12.610  17.494  16.180 -0.0698 -0.1361 -0.1141
15548W        W34402  13.234  13.601  14.585  0.2049 -0.2504 -0.2038
15549W        W34403  11.260   6.975  13.987 -0.0433  0.0701 -0.2473
15550W        W34404   7.133  13.670   3.044 -0.1032 -0.1220  0.1247
15551W        W34405  10.014  13.144  16.101  0.0594  0.0292 -0.0519
15552W        W34406   3.262   3.187  12.354 -0.1940  0.0725 -0.3290
15553W        W34407   2.039  15.011   1.630 -0.2879 -0.1664 -0.2453
15554W        W34408   3.286   5.672  11.967  0.1497 -0.0437 -0.1754
15555W        W34409   5.362  12.253   2.405  0.0277 -0.3371  0.0849
15556W        W34410  17.066  13.485   3.798  0.1203 -0.0402 -0.1108
15557W        W34411  15.756   7.083   2.820 -0.1141  0.1354 -0.1670
15558W        W34412   3.272  16.932  16.623 -0.0999 -0.0102 -0.1993
15559W        W34413   8.842  12.223   1.630 -0.2753  0.2185 -0.0129
15560W        W34414   9.542   6.088  12.863 -0.1585  0.0827 -0.3526
15561W        W34415  15.878   7.342  16.096  0.0252  0.2183 -0.0440
15562W        W34416   8.665  11.814  15.020 -0.0365  0.0920 -0.1160
15563W        W34417  15.229   1.081  13.164 -0.2006 -0.1988  0.1772
15564W        W34418  11.434   7.400   3.362  0.0290  0.1096 -0.1114
15565W        W34419   8.751  10.059  13.992 -0.1412 -0.0019  0.2502
15566W        W34420  15.193  16.064  13.219 -0.0818 -0.0366 -0.0849
15567W        W34421   8.696   2.181  17.053  0.0523 -0.1761 -0.2307
15568W        W34422  11.404  11.728   3.364  0.1644  0.1570  0.1694
15569W        W34423   9.179   8.483  14.660  0.1841 -0.0325 -0.1491
15570W        W34424  13.294  14.984  12.769  0.3529 -0.1496 -0.0226
15571W        W34425   9.628  14.063   0.132 -0.0709 -0.2466 -0.0399
15572W        W34426   3.607   4.799  17.144  0.1541  0.2732 -0.0829
15573W        W34427   7.690  14.674  16.892 -0.0902 -0.1897 -0.2403
15574W        W34428   1.735  10.254   5.631  0.0833 -0.1087 -0.2482
15575W        W34429   8.489  17.528  14.463 -0.1083 -0.0541  0.2140
15576W        W34430  10.918  13.104   4.929 -0.0268  0.2413 -0.2697
15577W        W34431   1.423   2.256  15.192  0.1173  0.3489 -0.0909
15578W        W34432   3.190   0.511   1.965 -0.2239  0.0850  0.1077
15579W        W34433   1.246  17.566  16.686 -0.3786 -0.1248  0.2531
15580W        W34434   7.381  10.217  14.967 -0.1332 -0.0997  0.0862
15581W        W34435   6.180   2.802  12.051  0.2704 -0.1230 -0.1422
15582W        W34436  14.690   6.434  12.007  0.2891  0.1450 -0.0194
15583W        W34437  12.259  12.013  16.217 -0.2045  0.0818 -0.2636
15584W        W34438  12.714  17.504   0.251  0.0425  0.0445  0.3081
15585W        W34439   0.229  11.234  12.962  0.0262 -0.1238 -0.0899
15586W        W34440   5.769  12.615  15.948 -0.1336 -0.0221 -0.2733
15587W        W34441  12.216  16.020  14.912  0.2799  0.2274  0.3349
15588W        W34442  14.438  15.894  13.845  0.3767  0.3844 -0.2212
15589W        W34443   9.745  11.961  12.678  0.0439  0.1012  0.1654
15590W        W34444   5.958  13.142  13.103 -0.2773  0.1076 -0.1179
15591W        W34445   5.716  16.989   2.364 -0.1015  0.0834  0.0382
15592W        W34446   2.456  11.750   0.764  0.0363 -0.3628 -0.0490
15593W        W34447  11.322  14.571   2.358  0.2377 -0.1681 -0.0154
15594W        W34448   2.426   8.189  14.249 -0.3814  0.1574 -0.2304
15595W        W34449   4.701   5.202  11.851 -0.2722  0.0689  0.1872
15596W        W34450  16.565   0.198   4.959 -0.2604  0.3009  0.2210
15597W        W34451   3.698   1.501   2.470  0.0341  0.3259  0.0861
15598W        W34452   8.820  14.444   5.248  0.1052  0.0633 -0.2306
15599W        W34453  10.929   7.906   4.549 -0.0549 -0.0055 -0.1432
15600W        W34454   7.072   4.813  13.139  0.0391  0.2364  0.1852
15601W        W34455   8.229   9.691   2.245  0.1299 -0.0548  0.1183
15602W        W34456  13.495  11.496  14.507 -0.0161  0.0499 -0.1682
15603W        W34457   8.676   8.457   3.716  0.0749 -0.0323 -0.2190
15604W        W34458  17.512   4.491  11.882  0.0637 -0.0093 -0.0940
15605W        W34459   6.063   3.870   4.803 -0.0584 -0.2115 -0.0938
15606W        W34460   1.322   5.575  13.972 -0.1167 -0.0630 -0.1927
15607W        W34461   6.909   0.436   3.557  0.2178  0.1062  0.1200
15608W        W34462  14.105  12.402   1.522 -0.0993  0.0725 -0.4337
15609W        W34463   1.047   6.167   1.933  0.0179 -0.2386  0.0915
15610W        W34464  11.408  13.881   4.398 -0.2077 -0.0468 -0.2131
15611W        W34465   8.804  17.452   3.601  0.1223  0.0241 -0.1440
15612W        W34466  11.947  16.308  16.250 -0.0033 -0.2689  0.0218
15613W        W34467   7.854   9.093   1.003  0.3085 -0.0522  0.2468
15614W        W34468   5.706   5.726   5.880 -0.0501  0.1211  0.0044
15615W        W34469   4.053  15.864   3.123 -0.6273 -0.0055  0.3520
15616W        W34470  14.897   4.735   3.167  0.1148 -0.3163  0.0089
15617W        W34471   5.156   4.853  13.489 -0.1070  0.3451  0.1723
15618W        W34472   0.341  10.358   4.231  0.0408 -0.3656  0.0776
15619W        W34473   3.622   4.188  13.271 -0.1745  0.0341  0.1309
15620W        W34474   6.945  15.293   2.076 -0.0655 -0.2718  0.0515
15621W        W34475   3.514   4.858   5.257 -0.2338  0.2883 -0.0086
15622W        W34476   6.707  11.202   3.509 -0.3684  0.3135 -0.3648
15623W        W34477   1.209  12.642   1.896 -0.2751 -0.0396  0.2151
15624W        W34478   8.805   4.197   3.719  0.0013  0.0861  0.0634
15625W        W34479   1.306  14.872  16.063  0.0503 -0.4086  0.1430
15626W        W34480   7.825  12.757   0.261 -0.0568 -0.0239  0.3643
15627W        W34481   7.239   2.758  12.786 -0.1224 -0.1379 -0.0493
15628W        W34482   8.490  17.159   0.463 -0.2273  0.1263  0.0104
15629W        W34483  11.897  11.356   1.014 -0.0571  0.1577 -0.0870
15630W        W34484   4.558   3.694   1.386  0.1825 -0.0298  0.0911
15631W        W34485  10.654   9.875  15.093 -0.1920 -0.1730  0.2455
15632W        W34486  16.888   0.753  16.388 -0.1635 -0.3279 -0.1067
15633W        W34487  12.892  14.499  16.258 -0.2222  0.6763 -0.0811
15634W        W34488   4.575   2.247   0.785 -0.0664  0.0451  0.2465
15635W        W34489  12.993  12.784  16.930  0.0636  0.0914  0.0899
15636W        W34490   4.810   4.728   5.063  0.2435 -0.1386 -0.1093
15637W        W34491   5.562   9.650  13.457 -0.0752 -0.2128  0.0488
15638W        W34492  15.758   2.226  15.358  0.0079  0.1813 -0.1961
15639W        W34493   7.145   3.236   1.865  0.2788  0.0662 -0.1368
15640W        W34494   5.447   2.802  14.161  0.2633 -0.0682 -0.0907
15641W        W34495  12.651   4.173  13.482  0.1699 -0.0546  0.1319
15642W        W34496   5.248   3.098   3.394  0.0199 -0.0766  0.0204
15643W        W34497   8.682  11.545  13.651 -0.2505  0.3231 -0.1169
15644W        W34498   8.835   9.637  15.238  0.0275 -0.1558  0.3239
15645W        W34499  14.784  16.052   4.342  0.2426 -0.0882  0.0259
15646W        W34500  13.604   6.478  14.517 -0.2349  0.0618  0.0766
15647W        W34501   8.562   1.532  12.544 -0.1974  0.0468  0.2262
15648W        W34502  10.940   1.637   0.496 -0.0899 -0.0039 -0.0003
15649W        W34503   4.204  16.636  14.466 -0.1593 -0.4608 -0.2510
15650W        W34504   6.953  12.549   4.730  0.2013  0.2605  0.0688
15651W        W34505   1.784   5.298   3.130  0.2589  0.0523  0.0246
15652W        W34506  11.724   7.939   3.828  0.2812 -0.4101  0.0269
15653W        W34507   4.185   3.649   2.757 -0.5081  0.1668  0.2375
15654W        W34508   6.102  14.143  13.839 -0.0617 -0.1322  0.2560
15655W        W34509  17.293   1.037  14.063 -0.0572  0.0236  0.0230
15656W        W34510  13.616  12.575  15.627  0.0185  0.0142 -0.2078
15657W        W34511   0.018  10.770   1.173  0.0767  0.0754 -0.0725
15658W        W34512   2.120  10.332   0.899  0.0028  0.2462 -0.1693
15659W        W34513   2.860  15.594   0.692 -0.0683  0.0246  0.1541
15660W        W34514  12.673   8.672   2.282 -0.0208  0.3444 -0.0411
15661W        W34515   2.118  14.027  16.492  0.1065  0.1363  0.2250
15662W        W34516  11.967   1.640   1.195 -0.0192  0.0444 -0.0425
15663W        W34517   2.588  13.779   4.445  0.0029 -0.2444 -0.2648
15664W        W34518  12.004  14.426   1.190 -0.1311  0.0237  0.3008
15665W        W34519   9.212   1.625  13.111  0.1058 -0.1233 -0.0480
15666W        W34520  15.067   5.051  15.816 -0.0523  0.1052  0.1042
15667W        W34521   7.601   8.455  12.925  0.0548 -0.2070  0.0609
15668W        W34522  15.339   8.068  12.096  0.0266 -0.0730 -0.2450
15669W        W34523   8.231   8.957  13.315 -0.0153  0.0326  0.1203
15670W        W34524  11.268  13.129   1.378 -0.0240  0.0081 -0.0412
15671W        W34525  16.988   0.631   0.171 -0.1183 -0.2448  0.0859
15672W        W34526   2.624   8.406   4.094  0.5412  0.0722  0.0144
15673W        W34527  10.815   7.088   4.926  0.0445  0.0684  0.1212
15674W        W34528   6.135   1.443  16.323  0.2132 -0.0369  0.1754
15675W        W34529   0.040  17.399   1.789 -0.3077 -0.0028 -0.1800
15676W        W34530   1.154   1.096   2.226  0.3335 -0.0953  0.0404
15677W        W34531   2.631  12.978  11.940 -0.0404 -0.0770  0.2345
15678W        W34532  10.789   7.486  16.615 -0.1921  0.1349  0.2415
15679W        W34533   2.478   1.112   4.069 -0.0124  0.0607  0.1989
15680W        W34534  17.533   1.691  12.419 -0.1503 -0.2639 -0.2722
15681W        W34535   5.907   0.118  16.610  0.0157  0.0030 -0.0260
15682W        W34536   8.488   6.429  13.246 -0.0835 -0.1305 -0.1930
15683W        W34537  15.571  14.208   1.263  0.1156  0.1083  0.1622
15684W        W34538   5.662   4.600   2.596  0.0841 -0.3428  0.2158
15685W        W34539   6.989   8.703   1.478 -0.3591  0.0946 -0.1449
15686W        W34540   8.888   3.472  15.477  0.1983  0.2665  0.3236
15687W        W34541   6.916  10.375  14.552 -0.1587 -0.0056 -0.0400
15688W        W34542   5.058  16.608  12.739 -0.0661 -0.1574  0.3736
15689W        W34543   7.194   1.847  13.271  0.0058  0.0429  0.1687
15690W        W34544   0.717   2.329  13.071  0.0725 -0.0088 -0.2022
15691W        W34545  16.408  13.260  17.084 -0.0396 -0.1533 -0.1419
15692W        W34546   9.148  16.900  14.287  0.0380  0.0161  0.0426
15693W        W34547  17.429   4.477   1.739  0.1248 -0.0746  0.1242
15694W        W34548  17.502   3.678  15.265  0.2906  0.0619  0.1539
15695W        W34549   7.568   0.795  13.752 -0.0993 -0.2204 -0.0518
15696W        W34550  15.439  13.650   1.154  0.3420 -0.1109  0.1301
15697W        W34551  14.035   7.866  14.652 -0.1629 -0.4121  0.3009
15698W        W34552   4.463   6.788  13.569 -0.1537 -0.1061  0.3213
15699W        W34553  13.725   5.564  17.071 -0.0392 -0.2347 -0.2505
15700W        W34554  11.479  15.393  16.796 -0.0626  0.0884  0.3757
15701W        W34555  17.564  11.233   3.538  0.1770  0.0320  0.4930
15702W        W34556  16.416  14.657   1.535  0.3755  0.0826  0.1534
15703W        W34557   8.862  12.282   4.224  0.2641  0.0532 -0.2299
15704W        W34558   7.005   9.312   5.011  0.0463  0.0056  0.4094
15705W        W34559  10.763  13.552  15.175  0.2267 -0.0911 -0.1292
15706W        W34560   2.843   4.220   2.003  0.0356  0.0698 -0.0218
15707W        W34561  10.023   7.791   6.037  0.0982 -0.1763 -0.1059
15708W        W34562  12.310   0.501  15.435  0.3642  0.1310  0.0665
15709W        W34563   9.653   8.328   5.022  0.0270 -0.0471 -0.0384
15710W        W34564  15.118   4.433   4.721  0.0716 -0.0582  0.3293
15711W        W34565  11.423  12.828  15.323 -0.0165  0.1369  0.0057
15712W        W34566  11.743  16.870  12.587 -0.0045  0.4048  0.0608
15713W        W34567   1.161   9.759   0.017  0.0188 -0.0692  0.2136
15714W        W34568   1.641   3.109  16.089  0.2503 -0.1346 -0.0110
15715W        W34569  13.415   2.838  13.901  0.0100 -0.2900  0.1488
15716W        W34570  16.098   9.871  13.423 -0.0412 -0.0837 -0.1989
15717W        W34571   5.977  13.552   1.598 -0.0192 -0.2128 -0.2786
15718W        W34572   5.749   1.577  13.760 -0.1296  0.0134  0.2281
15719W        W34573   8.491   6.153   0.802 -0.0079 -0.0560  0.0643
15720W        W34574   5.955   4.732   3.719  0.0793  0.0592 -0.2743
15721W        W34575   6.596   0.296   5.300 -0.0571  0.1077  0.1485
15722W        W34576   3.710  15.993   0.351  0.1969 -0.0007  0.0185
15723W        W34577  11.567   3.746  14.784  0.3403  0.1342  0.3045
15724W        W34578   4.014   3.451  14.630 -0.2491 -0.3599  0.2754
15725W        W34579   1.603   5.926   3.593 -0.1129 -0.0509 -0.0637
15726W        W34580  16.445  11.234   4.579  0.2094  0.0584 -0.1530
15727W        W34581   6.870   0.656   4.098  0.3104  0.2169 -0.1767
15728W        W34582   8.466  11.967   0.392  0.1880 -0.0485  0.0028
15729W        W34583  15.369  14.289   3.572 -0.2194  0.2865  0.1524
15730W        W34584   2.242   5.631   1.905 -0.1296  0.1267  0.0904
15731W        W34585  13.686  17.087   4.763  0.1818  0.1499 -0.0168
15732W        W34586  11.740   4.599  16.310  0.1752 -0.0498 -0.0079
15733W        W34587  16.247   0.180  16.912 -0.2715 -0.3070 -0.2816
15734W        W34588  13.918  14.516  15.023 -0.0982  0.2649 -0.3388
15735W        W34589   9.910   2.363   3.190 -0.0364 -0.0751  0.1651
15736W        W34590   0.755   6.789  15.143  0.1745 -0.0014  0.2679
15737W        W34591  15.290  16.306  15.858 -0.2181  0.0417 -0.0392
15738W        W34592  12.372   5.105  14.218  0.1916 -0.3240 -0.2270
15739W        W34593   7.979  16.592   4.377  0.1120  0.0760 -0.1073
15740W        W34594   0.742   3.835  14.981  0.1435 -0.0679 -0.0752
15741W        W34595   7.839   8.928   2.253  0.1874  0.1296  0.2869
15742W        W34596   3.197  10.553  14.129 -0.2339  0.1710  0.1624
15743W        W34597   6.922  14.820  12.817 -0.0123  0.1325  0.2122
15744W        W34598  13.945   8.650   2.461  0.1492  0.0487 -0.1423
15745W        W34599   7.163  12.042  16.785  0.1075 -0.0971  0.0107
15746W        W34600  14.549   4.351  12.266  0.2027  0.1079  0.0969
15747W        W34601  14.688   2.386  15.363 -0.0894  0.2174 -0.3451
15748W        W34602  13.359   9.648  12.363  0.0132 -0.0214 -0.0485
15749W        W34603   8.650   4.328   2.063  0.0751 -0.2353 -0.1272
15750W        W34604  13.041  10.370   1.082  0.0876 -0.1598  0.0616
15751W        W34605   1.492   5.115  12.032  0.3023  0.0297 -0.2421
15752W        W34606  12.722   5.999   4.129  0.2334 -0.1823 -0.1165
15753W        W34607   0.205   8.876   2.469  0.2009 -0.0680  0.4540
15754W        W34608   8.406   2.266   2.775  0.1035  0.0066  0.0667
15755W        W34609   8.186  13.608  16.109  0.1539  0.0844 -0.2228
15756W        W34610   2.805   0.824   0.012 -0.2416 -0.1326  0.0097
15757W        W34611  15.199   9.281  12.622 -0.3525  0.0475  0.2130
15758W        W34612   4.528  15.032  15.337 -0.1338 -0.0209 -0.0024
15759W        W34613   0.415   3.096   4.588  0.2472 -0.1086 -0.1932
15760W        W34614   3.255  14.974  14.541 -0.0214  0.1599  0.2100
15761W        W34615   4.244  11.173   0.853  0.0887 -0.0172 -0.0914
15762W        W34616  14.678   6.247  16.190 -0.0025  0.0388 -0.2924
15763W        W34617   5.258   9.129  16.736  0.0646 -0.0423  0.0738
15764W        W34618   8.059   1.773  14.612 -0.0441  0.0506 -0.3219
15765W        W34619  16.920   9.279  11.977 -0.1174 -0.1753  0.0895
15766W        W34620  15.417   2.850  15.886  0.2771 -0.3139 -0.0510
15767W        W34621   7.431   8.076   1.402  0.0780 -0.2335  0.3583
15768W        W34622   9.820  16.184  13.812  0.2148  0.3723 -0.0871
15769W        W34623   4.764   0.299   4.196 -0.1495 -0.0793  0.0800
15770W        W34624   2.592  12.750   1.938 -0.0718 -0.2060  0.2377
15771W        W34625  13.591   2.911   1.082  0.2326  0.0783 -0.2457
15772W        W34626  12.121  12.173   2.169  0.0075  0.1571 -0.1802
15773W        W34627   8.448   7.879  13.576 -0.1269  0.0207  0.1767
15774W        W34628  15.350   3.840  12.229 -0.0144  0.2954 -0.0573
15775W        W34629  17.404   5.725  12.498  0.0427 -0.0928  0.0984
15776W        W34630   5.770  15.302   5.232 -0.1511  0.0615  0.1206
15777W        W34631  12.045  12.582   3.467 -0.1975 -0.1167 -0.0137
15778W        W34632   4.371  15.872   4.583 -0.0335 -0.1073  0.1847
15779W        W34633   0.110   5.096   2.348 -0.0183  0.2743 -0.0425
15780W        W34634  10.656   9.619   3.998 -0.0973  0.0860 -0.1553
15781W        W34635  15.346  17.364  16.111  0.2664 -0.4194  0.1583
15782W        W34636  10.401   1.771  12.541  0.2405 -0.0687  0.0917
15783W        W34637   0.543  15.990   1.737  0.3346  0.4046 -0.0783
15784W        W34638   2.326   4.775   4.775 -0.1916  0.1041  0.0396
15785W        W34639  16.249  11.164  13.756  0.0388  0.0580 -0.1049
15786W        W34640  10.694   0.207  16.705 -0.1055 -0.3445  0.1208
15787W        W34641   8.995  10.673  17.121 -0.0613  0.1347 -0.0526
15788W        W34642   3.092   5.453  16.430 -0.3547  0.1119  0.4002
15789W        W34643   4.782  12.385  12.889 -0.2066 -0.0848  0.1363
15790W        W34644   8.192   0.442  13.077 -0.2916  0.1247  0.0431
15791W        W34645  15.926   5.402  15.590 -0.0486 -0.0298  0.0493
15792W        W34646  14.003  12.309   2.543  0.2553 -0.5313 -0.0821
15793W        W34647  12.257  14.969  13.572 -0.0903  0.0294  0.3104
15794W        W34648   0.466   6.862  13.329 -0.3562 -0.0952  0.2307
15795W        W34649  11.481  14.787  15.145  0.1791  0.0352 -0.1910
15796W        W34650   2.973   1.803   3.667  0.1536  0.2267  0.1114
15797W        W34651  10.833   2.703  13.773 -0.1302 -0.0278  0.0477
15798W        W34652  11.379   4.372   1.686  0.2736 -0.0321  0.0631
15799W        W34653   3.610  17.443  15.896 -0.2719  0.5164  0.1669
15800W        W34654   5.196  11.988   4.461 -0.1744 -0.0570 -0.0995
15801W        W34655   4.707  11.309  13.729 -0.0116 -0.0050  0.3920
15802W        W34656   4.816   4.355  13.206  0.2062  0.3315 -0.1337
15803W        W34657   3.976  14.346   1.387 -0.2341  0.2322  0.0417
15804W        W34658  12.250  12.029   5.477 -0.1583  0.4239 -0.0142
15805W        W34659   7.784  11.465  16.201  0.3882 -0.0573 -0.0335
15806W        W34660   4.318  14.971   1.877  0.0980  0.0239 -0.0305
15807W        W34661   7.315   7.284  14.897 -0.1806 -0.0188  0.1792
15808W        W34662  15.716   8.579   0.412 -0.1921 -0.2191 -0.3174
15809W        W34663  14.398   0.637  15.624 -0.0829 -0.2151  0.0180
15810W        W34664   7.051   7.406   3.455 -0.3906  0.1146 -0.2070
15811W        W34665   5.863   9.152   0.843  0.1789  0.1018 -0.0981
15812W        W34666   4.771   2.722  14.360  0.2161 -0.0662 -0.0974
15813W        W34667  15.067   6.449   4.096 -0.1330  0.3416  0.1057
15814W        W34668  13.220   1.123   2.893 -0.0149 -0.1191  0.0214
15815W        W34669   8.509   6.802  16.770  0.3255 -0.1941 -0.1063
15816W        W34670   6.150  10.381   0.000  0.0001 -0.1473 -0.2835
15817W        W34671  17.517   3.245   3.978  0.0198  0.1328 -0.0849
15818W        W34672   3.038   6.186   0.792 -0.0553 -0.2800  0.2275
15819W        W34673  17.256  16.098   3.082  0.0758  0.1513  0.0133
15820W        W34674   4.641   5.326   3.865  0.1719  0.3273  0.2558
15821W        W34675  14.852   0.103   1.098 -0.2465 -0.0682 -0.0153
15822W        W34676   5.563   6.607   3.615 -0.0062  0.3010  0.1950
15823W        W34677   7.435   2.841  15.786 -0.0097  0.0541 -0.1220
15824W        W34678   5.694   8.044  13.530 -0.0914 -0.1960 -0.0934
15825W        W34679   7.254   2.029  15.770 -0.1696 -0.1793  0.1404
15826W        W34680  11.885   0.707  12.910 -0.0967  0.0819  0.1642
15827W        W34681  13.121   5.613   6.270  0.0193  0.1306  0.2821
15828W        W34682   0.541   7.291   3.479  0.2402 -0.0626 -0.0923
15829W        W34683  12.410  11.875  15.244  0.1804  0.1370 -0.1962
15830W        W34684   2.114  12.763   4.024  0.2495 -0.0977 -0.1263
15831W        W34685  13.258   1.053  14.529  0.0749  0.1673 -0.2236
15832W        W34686  10.479   5.046   0.665  0.1158 -0.0160 -0.0132
15833W        W34687   9.135   0.693   4.386  0.2813 -0.1088 -0.1165
15834W        W34688   1.055   2.326  16.876 -0.1385 -0.1221  0.0647
15835W        W34689   7.196  10.770  11.483 -0.0186 -0.1427 -0.0466
15836W        W34690  10.909   7.308   3.331 -0.1998  0.3020 -0.0186
15837W        W34691  11.435   2.998  14.342 -0.1373  0.0854 -0.2733
15838W        W34692   0.248  10.798   2.401 -0.0769 -0.0403  0.2214
15839W        W34693  15.257  12.963  15.369  0.2563 -0.3535 -0.1981
15840W        W34694   9.893   0.260   1.342 -0.2050 -0.0652 -0.1389
15841W        W34695   9.851  12.307   3.264  0.0790 -0.1050 -0.0774
15842W        W34696   5.582   6.382   3.128 -0.3810  0.0018  0.0757
15843W        W34697   9.521  13.707  17.070  0.2334  0.2269  0.1332
15844W        W34698   6.533  16.527   2.863 -0.0106 -0.1855 -0.0583
15845W        W34699  10.021  10.927   0.841  0.0558 -0.1816 -0.2134
15846W        W34700  12.627   2.936  13.335 -0.0324  0.1798  0.2942
15847W        W34701  14.735  16.422   0.489 -0.3863  0.3830 -0.0784
15848W        W34702   7.068  10.408  13.698 -0.1315  0.0198 -0.0015
15849W        W34703   8.606  12.410  13.818 -0.2543 -0.1422  0.1050
15850W        W34704   4.652  11.183   1.386 -0.1777 -0.0671 -0.2207
15851W        W34705   5.365   8.733  16.390 -0.1153 -0.1823 -0.1736
15852W        W34706   4.785   0.607   3.717 -0.0589  0.0735  0.2706
15853W        W34707  15.638   8.497   5.495  0.1556 -0.2268  0.1967
15854W        W34708   5.124  15.021   1.953 -0.0963  0.0726  0.0519
15855W        W34709   5.833   1.369  14.256 -0.1383 -0.1687 -0.1514
15856W        W34710  17.041  15.228   1.591 -0.3521  0.0217  0.0398
15857W        W34711   5.075   7.871   2.636  0.0053 -0.2300  0.0139
15858W        W34712   0.389   5.941  15.633 -0.1770  0.1088  0.4437
15859W        W34713   1.740  10.473   0.135 -0.3914  0.0777  0.1037
15860W        W34714   4.242  14.353  15.174  0.0097 -0.0566 -0.0846
15861W        W34715   5.453  17.428  12.810  0.1268  0.1681 -0.0154
15862W        W34716   4.210  14.601  16.024  0.0385 -0.0363 -0.2309
15863W        W34717   9.979  16.493   2.608 -0.1353 -0.2688 -0.3313
15864W        W34718  13.525  14.052  15.852  0.2060  0.1006  0.1050
15865W        W34719  15.393  12.923   4.624 -0.1550 -0.2972 -0.0113
15866W        W34720  12.246   9.318   1.921  0.0024  0.1399  0.0153
15867W        W34721   8.365  16.326  14.770  0.2166 -0.0235 -0.0615
15868W        W34722   5.864  13.040  16.132  0.1528  0.1569  0.0469
15869W        W34723  13.650   5.019   4.115  0.2795 -0.3035  0.1224
15870W        W34724   5.073   5.438  15.925 -0.0407 -0.1503  0.0902
15871W        W34725   9.873   8.823  16.984  0.0474 -0.0706 -0.0186
15872W        W34726   2.941  15.964  15.122 -0.5340 -0.0686  0.1486
15873W        W34727   6.610  10.327   1.077  0.2170  0.0143  0.2506
15874W        W34728   9.119   0.143  13.378 -0.1024 -0.0577  0.0603
15875W        W34729   5.863   1.562  12.574  0.0345 -0.1082  0.0277
15876W        W34730  13.027   8.708  16.951 -0.3932  0.0798 -0.3008
15877W        W34731   9.131  12.553   0.674 -0.0019 -0.2563  0.1873
15878W        W34732   2.577   7.657   3.437  0.2842 -0.2785  0.2993
15879W        W34733  11.873   1.780   5.326  0.1927 -0.0038 -0.0460
15880W        W34734   7.241   4.067   0.412  0.4361  0.5812  0.0583
15881W        W34735   6.019   1.071   3.732 -0.2377  0.1890  0.0364
15882W        W34736   5.128  13.284   2.448  0.0937  0.1494  0.3967
15883W        W34737   2.655  16.551  12.542  0.2066 -0.2080  0.1768
15884W        W34738   3.757  12.568   0.538  0.0074 -0.0772  0.1567
15885W        W34739   5.925   8.238   0.809  0.3094 -0.2871  0.0590
15886W        W34740   6.724  12.942  14.876 -0.1230  0.1036 -0.1707
15887W        W34741   8.251   4.950  15.461 -0.0636  0.2445 -0.4428
15888W        W34742  16.516   8.851  11.963  0.3408  0.0702 -0.1949
15889W        W34743  14.883  16.025  12.773  0.0737 -0.0145 -0.1543
15890W        W34744  11.650  14.020  12.839 -0.0953 -0.1907  0.0345
15891W        W34745   2.753  12.405   0.258 -0.1340 -0.4736 -0.3466
15892W        W34746   3.769   1.749  15.352 -0.3247  0.2650 -0.3123
15893W        W34747   4.165  10.739  14.520 -0.2263 -0.0319 -0.0545
15894W        W34748  16.344  16.514  13.595 -0.3715  0.3032 -0.1841
15895W        W34749   2.953   0.084   5.114 -0.0078 -0.1984 -0.0275
15896W        W34750   9.342   2.979   0.231  0.0823 -0.0688  0.0350
15897W        W34751   8.291   6.402   2.216 -0.0116 -0.0217  0.0823
15898W        W34752   5.689  11.355   1.365  0.1284  0.0453 -0.3098
15899W        W34753   9.517   4.037  13.477 -0.2109  0.0358  0.0758
15900W        W34754   4.623   4.588   1.922  0.2665 -0.0799  0.2913
15901W        W34755   5.518  13.437   4.534 -0.0637 -0.0850  0.1525
15902W        W34756   9.198  14.160   5.314  0.0632 -0.2306 -0.1454
15903W        W34757   3.465   6.746  11.189  0.1193 -0.0551  0.1226
15904W        W34758  15.043  12.585   4.166  0.0990  0.1695 -0.0691
15905W        W34759   7.157   6.279   1.461 -0.1688 -0.2100  0.0805
15906W        W34760   3.865  13.610  14.779 -0.0036 -0.1931  0.2916
15907W        W34761  10.555  11.233  13.619  0.0043 -0.0868  0.0982
15908W        W34762  16.068   9.826  17.094 -0.2525 -0.2540 -0.0593
15909W        W34763  14.377   8.766   1.597  0.0555  0.2049 -0.1590
15910W        W34764  12.536  10.649   1.431  0.0250  0.1039  0.1432
15911W        W34765  14.571   5.932  12.901  0.1026 -0.1985  0.0342
15912W        W34766   1.297  15.105   4.725 -0.2317 -0.2049 -0.4226
15913W        W34767  12.849   3.247   0.677  0.5049 -0.3263 -0.1303
15914W        W34768  15.059   7.915  12.797  0.0606  0.0226  0.0586
15915W        W34769  15.622   4.971  16.718  0.1309  0.1208 -0.3280
15916W        W34770  12.020   1.446   3.229 -0.0166  0.4434 -0.0927
15917W        W34771   4.086  16.075  17.218 -0.0507  0.1818 -0.0202
15918W        W34772   7.786  10.357   0.720  0.0235 -0.0120  0.1517
15919W        W34773  11.054   7.848  15.515  0.1739 -0.1685  0.3624
15920W        W34774  11.928   8.215  15.172  0.0805  0.3027 -0.2564
15921W        W34775   2.472  11.920  14.695 -0.0203 -0.4171 -0.2120
15922W        W34776  15.507  17.423   1.883 -0.2997  0.1166  0.0385
15923W        W34777  17.349   4.120  12.239  0.1996  0.0658 -0.0361
15924W        W34778   5.178  13.921  11.859 -0.1079 -0.0354  0.1001
15925W        W34779  14.986   6.595   1.889  0.2405 -0.4573  0.0755
15926W        W34780   9.366  11.264   4.914 -0.0688  0.1101 -0.2660
15927W        W34781   0.547  13.375   3.390 -0.2241  0.1029  0.2895
15928W        W34782   5.479   2.557   3.522  0.1818  0.1251  0.1429
15929W        W34783  15.001   9.361   3.530  0.0764  0.1455  0.1848
15930W        W34784  17.405  12.708   4.543  0.4072  0.2709 -0.0644
15931W        W34785  16.658   0.687   0.989 -0.2421  0.2576 -0.4117
15932W        W34786   1.243   1.242  13.244 -0.0810 -0.1890  0.3480
15933W        W34787   7.911   6.234   3.175  0.1504 -0.3413 -0.0347
15934W        W34788  17.486   7.006  15.232 -0.3507  0.0259 -0.0285
15935W        W34789  14.850   4.847   0.166  0.0354  0.2508  0.0818
15936W        W34790  11.369   7.517   0.137  0.0905 -0.1153 -0.0941
15937W        W34791   2.703   1.858   0.098  0.1749 -0.0304  0.3654
15938W        W34792  11.134   8.454   0.699 -0.3291 -0.1688 -0.1690
15939W        W34793  11.792  12.083  13.891  0.0732 -0.0130  0.0923
15940W        W34794   8.821  13.393  16.482 -0.0923  0.1711  0.0771
15941W        W34795   7.069  12.026  12.194  0.0650  0.1176  0.1025
15942W        W34796  15.964   6.199  14.479 -0.2495  0.2270  0.1971
15943W        W34797  15.991  14.491   0.447 -0.1897 -0.1075 -0.0615
15944W        W34798   8.386  15.209   4.644 -0.0972  0.4075  0.4654
15945W        W34799   0.113   4.899   1.843  0.1262  0.3042 -0.3391
15946W        W34800   7.953  13.295  15.415 -0.4578  0.2129 -0.1282
15947W        W34801   8.853   2.747   5.006 -0.0347  0.0729 -0.0020
15948W        W34802  10.240   0.185  13.962  0.3275  0.0251 -0.0412
15949W        W34803   8.971  12.111   0.790  0.2316  0.0381 -0.1129
15950W        W34804  12.907   3.151   4.361  0.1819 -0.0864  0.3214
15951W        W34805   8.952  15.043  14.042  0.0067 -0.1174 -0.1179
15952W        W34806  13.638  17.263   4.265 -0.1821  0.1509 -0.2955
15953W        W34807  12.381   3.172  12.532  0.0535 -0.0129  0.1747
15954W        W34808  16.131  16.339   3.022 -0.0804 -0.0036 -0.1322
15955W        W34809   6.771   8.894   4.856 -0.5742  0.1299  0.0628
15956W        W34810   3.964   6.882   3.097 -0.0945  0.1480 -0.2104
15957W        W34811  12.530   9.580   5.763  0.0150  0.1146  0.0865
15958W        W34812   8.062  14.768   4.152  0.1166 -0.1192 -0.0849
15959W        W34813   8.019  15.875  14.053 -0.2217  0.0419  0.1888
15960W        W34814  13.590   4.695  15.735 -0.0137 -0.2812 -0.0640
15961W        W34815   1.281   6.129   4.643  0.1335 -0.1974  0.0010
15962W        W34816   3.617   9.937  14.648 -0.3507 -0.1289  0.0114
15963W        W34817   3.343  13.044  15.814 -0.1762 -0.2263  0.1924
15964W        W34818  14.834   1.513   2.982 -0.1002 -0.1119 -0.0708
15965W        W34819  16.947   9.020  14.328 -0.0245  0.2692  0.1015
15966W        W34820  15.643  15.423  12.380  0.0415 -0.2273  0.0416
15967W        W34821   6.603  10.241   1.905  0.0169 -0.1790  0.1987
15968W        W34822  16.192  10.982  12.618 -0.0246 -0.3073  0.0695
15969W        W34823   0.310  14.889   4.432  0.2289  0.0020  0.3109
15970W        W34824   7.702  12.899   3.950 -0.2886  0.1461 -0.0324
15971W        W34825  11.210  17.446  16.023  0.0032 -0.2521  0.1824
15972W        W34826  10.876  14.748  12.333  0.0647  0.0318 -0.0024
15973W        W34827   7.701   5.978   0.693 -0.1602 -0.1182 -0.0817
15974W        W34828  11.975  13.386   4.992 -0.0063 -0.0491 -0.3222
15975W        W34829   1.311  11.824  13.678 -0.2878 -0.0854 -0.0995
15976W        W34830  10.777   4.841   2.366  0.0296  0.0562  0.0123
15977W        W34831   6.398   6.132  14.109 -0.1609 -0.0857  0.1467
15978W        W34832   5.668   2.637   0.443 -0.0101  0.1081  0.2388
15979W        W34833  16.508   0.268  15.732  0.1167  0.3569 -0.1843
15980W        W34834  13.698   3.637   0.505 -0.1429 -0.2949 -0.0213
15981W        W34835  11.848  14.488  12.900 -0.2765  0.1077  0.0476
15982W        W34836   2.363   8.206   0.172  0.0907  0.2397 -0.1474
15983W        W34837   1.644   5.942  12.465  0.0310 -0.1791 -0.0662
15984W        W34838   5.884  16.059   0.064  0.0500 -0.0006  0.1486
15985W        W34839   7.485  12.495  13.692 -0.2426  0.1421 -0.1825
15986W        W34840   6.245   7.814  13.533 -0.2042  0.4233  0.2083
15987W        W34841   5.859  13.524  14.991  0.0057  0.0246 -0.2747
15988W        W34842   7.044  13.764  12.930 -0.0817 -0.1134  0.3645
15989W        W34843  14.475   1.919  14.367  0.0389 -0.0479  0.1451
15990W        W34844  12.901  17.598   1.990  0.1922 -0.1212  0.1022
15991W        W34845  10.997  14.409  16.057  0.0963 -0.3641  0.2519
15992W        W34846   9.978  15.953   4.305  0.1082  0.1649 -0.2091
15993W        W34847   9.738  10.659  14.808 -0.0932 -0.0003 -0.2059
15994W        W34848   4.285   6.302  14.269 -0.1489  0.0226  0.2911
15995W        W34849  12.217   5.157   4.557  0.2291 -0.2159  0.1155
15996W        W34850   5.273   0.401  13.391 -0.1275 -0.0296 -0.0088
15997W        W34851  10.682   4.556   1.850  0.2064 -0.1397  0.2701
15998W        W34852   9.054   4.477  13.714 -0.1133  0.3361  0.0145
15999W        W34853   0.311   7.075  14.962 -0.4956  0.0722  0.0189
16000W        W34854   6.811   3.708   4.040  0.1403  0.2680 -0.3344
16001W        W34855   3.753   2.541  13.775  0.1235 -0.0616 -0.0438
16002W        W34856  16.750  13.200   0.230  0.1102  0.0239  0.0829
16003W        W34857  12.894   2.345   3.185 -0.1227 -0.1087  0.1756
16004W        W34858   7.605  12.825  16.304  0.1259 -0.2375 -0.0152
16005W        W34859  14.081   7.116   0.782  0.2004 -0.2179  0.1147
16006W        W34860   4.034   2.475   3.413  0.1098  0.1915  0.1894
16007W        W34861  16.257   7.991  15.457 -0.0772  0.0576  0.4041
16008W        W34862  15.669   6.193  13.681 -0.1421 -0.3187 -0.1934
16009W        W34863  16.777  10.085  13.998  0.0533 -0.0249  0.3188
16010W        W34864   1.040  10.819  14.242 -0.0266 -0.3247  0.2052
16011W        W34865   7.946  12.726  12.683  0.1988  0.1474  0.1088
16012W        W34866  14.200   4.970   3.897 -0.1145 -0.1132  0.1812
16013W        W34867  10.587   3.358  15.866  0.0575 -0.1213 -0.0176
16014W        W34868   0.364   1.346  15.691 -0.0592  0.0316  0.0744
16015W        W34869   9.546   5.142   0.582 -0.1030  0.0387  0.2080
16016W        W34870   8.615   0.874   3.047  0.2690  0.0084 -0.1498
16017W        W34871  11.046  14.693   3.303  0.0925  0.0215 -0.2007
16018W        W34872  17.563   2.580  15.271  0.1118 -0.1062 -0.4562
16019W        W34873  11.763  16.459   4.637 -0.0687 -0.0241  0.2942
16020W        W34874  14.417   7.755   2.368 -0.0292  0.2704  0.0296
16021W        W34875   8.241  13.060  12.189 -0.2538 -0.0371 -0.1950
16022W        W34876   0.251  11.754   5.211 -0.0962  0.1001  0.1081
16023W        W34877  13.567   1.231   4.787 -0.1706 -0.0071 -0.1376
16024W        W34878   7.882   3.739  12.061  0.0542  0.1624  0.0198
16025W        W34879  17.545   4.362  12.910  0.0181  0.0901 -0.0585
16026W        W34880   2.211   4.420  16.211 -0.2534 -0.4975 -0.0542
16027W        W34881   7.997  15.091  16.201 -0.0395  0.1719  0.0743
16028W        W34882   7.066   8.495  17.059 -0.1102 -0.1927  0.0377
16029W        W34883  16.920  13.089   3.059  0.1538 -0.0619  0.0261
16030W        W34884   5.452   1.301  15.305  0.0336 -0.0953  0.2070
16031W        W34885   1.979  10.544   3.855 -0.0890 -0.3116  0.0146
16032W        W34886   1.114  10.315  16.258  0.0474 -0.1427  0.0388
16033W        W34887   8.748   3.177   3.396 -0.0678 -0.0414 -0.1926
16034W        W34888   9.981   6.763  17.192  0.0846  0.0141  0.0079
16035W        W34889  17.407   8.095  11.736 -0.2459 -0.2376 -0.1577
16036W        W34890   9.024   1.907   0.127  0.0732  0.0250 -0.0105
16037W        W34891  12.943   4.569   0.935  0.0477  0.0249 -0.0593
16038W        W34892  10.321   5.412   1.135  0.4094 -0.2111 -0.1228
16039W        W34893  10.119   4.764  13.033 -0.1139 -0.1782 -0.2186
16040W        W34894   3.626   1.867  16.074 -0.0801 -0.0102 -0.2179
16041W        W34895   3.579   6.467   4.611 -0.0272  0.2096  0.0068
16042W        W34896   5.938  11.018   3.020 -0.1788 -0.1908 -0.1705
16043W        W34897  14.169  16.543   0.633 -0.0506 -0.1992 -0.0748
16044W        W34898   8.719   4.645  15.770  0.0326  0.1503  0.1938
16045W        W34899   7.099  10.911   1.730  0.2106 -0.0432  0.0215
16046W        W34900  15.079  13.783  16.755  0.1124  0.2087 -0.0708
16047W        W34901  17.546   7.600  16.064  0.0527 -0.2519 -0.0615
16048W        W34902   9.035  14.922   1.218 -0.2943  0.3068  0.0168
16049W        W34903  17.551   9.809   0.256 -0.0706 -0.0674 -0.0880
16050W        W34904   2.721   6.275  14.923  0.2155  0.0504 -0.1653
16051W        W34905   2.240   8.316   2.736 -0.0223 -0.0210 -0.0646
16052W        W34906  14.327   1.290  14.599 -0.0582  0.1211  0.2216
16053W        W34907   1.687   7.131  13.199 -0.2359  0.0011 -0.1180
16054W        W34908   5.110   7.547   0.769  0.1319 -0.2376  0.0800
16055W        W34909  14.658   2.172  13.931 -0.1539 -0.0102 -0.1488
16056W        W34910   3.305   7.014  14.545  0.2993  0.4503  0.1563
16057W        W34911   9.160  17.168   2.424 -0.0406  0.1857  0.2225
16058W        W34912  11.971  11.338  13.427  0.0382  0.2781 -0.2674
16059W        W34913   6.816  13.577  13.898  0.2942  0.1205  0.0127
16060W        W34914   0.991   4.442   2.390 -0.0137  0.1205 -0.1958
16061W        W34915  12.644  15.796   2.049 -0.0242 -0.0316  0.0672
16062W        W34916   3.649  10.149  15.580 -0.0584  0.1466  0.1586
16063W        W34917   3.523   3.502  15.313 -0.0838 -0.1159  0.0112
16064W        W34918   0.891  11.188   0.177  0.4049  0.0025  0.2682
16065W        W34919   3.115   3.161   4.676 -0.1635  0.3974 -0.1866
16066W        W34920  14.255   0.271   1.956  0.0335 -0.1660 -0.0934
16067W        W34921  13.381  13.956   0.242  0.2193 -0.2290  0.0131
16068W        W34922   4.063   6.004  15.847 -0.3810  0.0704  0.0121
16069W        W34923   3.891  13.443  13.381 -0.1413 -0.0976  0.0011
16070W        W34924  12.497   7.065   0.261 -0.1031  0.1144 -0.1404
16071W        W34925  16.441   8.180   1.491  0.2935  0.1251 -0.3948
16072W        W34926   5.915  15.178  14.580  0.3195 -0.0907 -0.4698
16073W        W34927  13.222  16.957   4.164 -0.1737 -0.1054  0.1582
16074W        W34928  10.534  16.096   3.232  0.0567 -0.2511 -0.1657
16075W        W34929   0.651  13.994   1.773 -0.0826  0.0446  0.0917
16076W        W34930  11.914  11.151  14.738  0.0489  0.1443  0.0831
16077W        W34931   0.577   6.457  17.011  0.1017  0.1701 -0.1326
16078W        W34932  10.068   3.978  14.732  0.2148  0.1330  0.1473
16079W        W34933  14.620   9.451   3.895  0.0647 -0.1175  0.1116
16080W        W34934  10.892  11.881   0.149 -0.0192  0.2239  0.1686
16081W        W34935   2.085  11.541  13.176 -0.1964  0.0937 -0.1225
16082W        W34936  10.163  13.848  12.523 -0.0762 -0.0437  0.1829
16083W        W34937  17.036  12.198  13.651 -0.4477  0.1391  0.2717
16084W        W34938   8.574   5.383  16.219 -0.1982  0.1808 -0.1301
16085W        W34939   1.779  17.575  12.902 -0.0425  0.0681 -0.3662
16086W        W34940  10.142  12.124  13.358  0.4285  0.1587 -0.1219
16087W        W34941  16.285   2.696   5.169 -0.1743  0.0683  0.0164
16088W        W34942   9.171   3.517  16.339  0.0843  0.0517  0.0682
16089W        W34943  10.465   1.853  13.734  0.0823  0.1635 -0.0321
16090W        W34944  16.056   8.827  12.759  0.1902 -0.5205  0.2491
16091W        W34945  11.077   4.306   4.509  0.2042  0.0224  0.3718
16092W        W34946   7.627  10.227   2.962  0.0371  0.2614 -0.2202
16093W        W34947  13.715   0.984   3.090 -0.0116  0.0026  0.3546
16094W        W34948   8.147   5.694   0.293  0.1250  0.1591 -0.1572
16095W        W34949  12.441  13.267  12.171 -0.0524 -0.1910 -0.0123
16096W        W34950  10.166   2.628  12.924  0.1369 -0.0165 -0.0760
16097W        W34951   9.768   0.117   3.028  0.0656 -0.1667  0.3279
16098W        W34952  14.702   5.464  15.775 -0.4130 -0.1891 -0.1814
16099W        W34953   1.969  11.075   5.225 -0.0947  0.1901 -0.0791
16100W        W34954   8.045  16.417   1.259 -0.0727  0.1524 -0.1293
16101W        W34955   4.196   1.952  15.955 -0.1485  0.0085  0.0481
16102W        W34956  13.849   9.239  14.159  0.0715 -0.1390  0.0222
16103W        W34957   9.897   4.154   5.138  0.0555  0.1349 -0.1005
16104W        W34958  17.381  15.760  12.179 -0.0213 -0.1653 -0.2507
16105W        W34959   2.205   7.612  15.279  0.1043  0.2134 -0.1469
16106W        W34960  10.978  14.195  13.629 -0.1981 -0.0424  0.2696
16107W        W34961  13.018  13.043   3.280 -0.2036  0.1037 -0.0810
16108W        W34962  16.821  10.290  12.590  0.0972 -0.0231  0.0723
16109W        W34963  12.201   9.641  12.120  0.2660 -0.0531 -0.0554
16110W        W34964   5.483  16.738  14.124 -0.2367 -0.0162  0.0055
16111W        W34965   5.422   1.179  13.372 -0.0469  0.2203 -0.1459
16112W        W34966   8.797   6.852   0.629  0.0916  0.4908  0.2722
16113W        W34967  15.235   7.424  12.914 -0.2380  0.2399  0.2644
16114W        W34968   1.012  13.157   2.837  0.1243 -0.0845 -0.1095
16115W        W34969  17.131   6.239  16.179  0.3076  0.1613 -0.2276
16116W        W34970  16.801   6.219   3.870  0.1285 -0.0502  0.1079
16117W        W34971   2.180   3.099  13.357  0.0508  0.0737 -0.2536
16118W        W34972  13.122  17.030  12.415 -0.2315 -0.0330  0.2656
16119W        W34973  15.614   4.140   3.960 -0.0618 -0.1558 -0.0654
16120W        W34974  16.802   9.191  15.443 -0.0871  0.0188 -0.0534
16121W        W34975  14.105   4.549   2.018 -0.2916 -0.0579 -0.0831
16122W        W34976   0.977   3.088  16.759 -0.0437 -0.0472 -0.0338
16123W        W34977   5.253   3.766   3.733  0.1062 -0.0560 -0.2980
16124W        W34978  15.349   3.773  12.833  0.1536  0.2078 -0.0808
16125W        W34979  15.537   1.419  14.898  0.3628 -0.1191  0.1236
16126W        W34980   9.436   2.017  13.333 -0.1025 -0.2350  0.0985
16127W        W34981  11.696  13.709   0.462  0.0944 -0.0377 -0.2582
16128W        W34982   3.781   4.998  14.497 -0.2485  0.1042 -0.4097
16129W        W34983  14.548   1.495  16.373  0.1934  0.1767 -0.0668
16130W        W34984   8.558  12.984  16.345  0.3661  0.1149 -0.2102
16131W        W34985  14.982  13.191  16.866  0.1656 -0.0973 -0.1028
16132W        W34986  17.238   8.612   3.672 -0.1208  0.0665 -0.0261
16133W        W34987  16.312   1.367   5.122 -0.0378  0.0114 -0.0295
16134W        W34988  16.134  13.081  11.231  0.0223  0.1356  0.2448
16135W        W34989   3.443  12.367  16.408  0.2583  0.1500  0.0892
16136W        W34990   5.309  13.979  12.311 -0.1523 -0.2056 -0.1789
16137W        W34991  13.307  14.487  15.914  0.2906  0.1668  0.1454
16138W        W34992  16.977   8.704  16.233  0.3425 -0.3391  0.0690
16139W        W34993   3.189   3.505   3.172  0.0468  0.4113  0.1421
16140W        W34994  15.558  13.810  16.718  0.0896 -0.1426 -0.0115
16141W        W34995  11.437  14.711   0.541  0.2660 -0.0094  0.0643
16142W        W34996   9.865  16.449  16.473  0.0191 -0.2038  0.0693
16143W        W34997  16.332  15.723  14.712 -0.3545  0.0421 -0.0946
16144W        W34998  13.813  14.272  12.750  0.0533  0.1637  0.1963
16145W        W34999  14.969   3.842  15.665 -0.0099 -0.5183 -0.1969
16146W        W35000  17.357   2.566   2.001 -0.1372  0.2563  0.2519
16147W        W35001   1.740  10.841   3.485  0.1398 -0.3101  0.3078
16148W        W35002   1.048  15.790  15.544  0.0520 -0.0455  0.1690
16149W        W35003  13.073  16.086   2.724 -0.2941  0.1305 -0.0087
16150W        W35004   3.840  15.609  12.155 -0.0837  0.0203 -0.2390
16151W        W35005   3.857   1.124  13.881  0.3744  0.1207 -0.4217
16152W        W35006   4.923   5.809   1.612 -0.0588  0.0051  0.1933
16153W        W35007  16.528   1.289  15.739 -0.2367 -0.2078 -0.0714
16154W        W35008   0.900   4.198   0.990 -0.2160  0.2635 -0.1394
16155W        W35009  12.881   5.529  13.570 -0.0862 -0.1580  0.2178
16156W        W35010  12.856   3.781   0.748 -0.0789 -0.0949 -0.2478
16157W        W35011  12.044   6.518   2.305 -0.3456  0.0573 -0.5317
16158W        W35012  14.315  15.851   3.375 -0.0754 -0.1996  0.0837
16159W        W35013  16.032   1.114  10.722 -0.2367 -0.1845  0.2188
16160W        W35014   0.411   6.202   2.886  0.1844  0.2203  0.0853
16161W        W35015  10.066  10.046   4.839  0.0360  0.0624  0.0688
16162W        W35016  15.206   6.063  15.566 -0.0426 -0.1944  0.1147
16163W        W35017  12.922   7.394   1.342 -0.2364  0.0405 -0.0569
16164W        W35018  10.498   2.183   3.448  0.4103  0.1006 -0.1827
16165W        W35019  14.121   2.279   1.923 -0.1266  0.0040 -0.0420
16166W        W35020   0.476  14.654   3.083 -0.0232 -0.2623  0.0630
16167W        W35021  11.185  12.595   3.678 -0.0113 -0.0944  0.3550
16168W        W35022  13.460   1.288  13.049  0.0250  0.0735 -0.3359
16169W        W35023  15.540   7.159   5.113  0.0018  0.2313  0.1188
16170W        W35024  11.036  13.240  13.957 -0.0363 -0.1328  0.3413
16171W        W35025  17.132  11.665  13.286  0.1633 -0.1222 -0.0174
16172W        W35026   2.262   1.367  13.850  0.3447  0.1372  0.1971
16173W        W35027   9.043  13.513   0.956  0.0193  0.1222 -0.0631
16174W        W35028  14.631   2.404  14.378  0.0878 -0.2351 -0.0831
16175W        W35029  14.152   2.412  12.983  0.0528 -0.2675  0.0792
16176W        W35030  12.647   2.354  14.229  0.1664  0.1207 -0.0787
16177W        W35031   4.150   1.072   1.361  0.1775  0.1228 -0.2072
16178W        W35032  12.324   3.610  12.206 -0.0689  0.0335 -0.2563
16179W        W35033   3.620  13.986   1.260  0.3447 -0.0461 -0.1959
16180W        W35034   9.026  16.049   0.605  0.0742 -0.3248 -0.0538
16181W        W35035   0.409   8.231   3.248  0.1983  0.4031 -0.1425
16182W        W35036   9.977   9.794   4.386 -0.3033 -0.0289  0.0128
16183W        W35037  17.501  15.821  17.184  0.1391 -0.1450  0.1498
16184W        W35038  11.900  15.173  16.350 -0.1868  0.3181  0.1677
16185W        W35039  16.844   4.994  12.474  0.0335 -0.2832  0.1588
16186W        W35040  11.621   4.524   0.159 -0.2240  0.1302  0.3082
16187W        W35041   1.312  12.999   4.969  0.0217 -0.2708 -0.1429
16188W        W35042  14.427   6.695  15.144 -0.1187 -0.0264 -0.1463
16189W        W35043  13.877  10.191   3.187 -0.0021  0.2359 -0.2191
16190W        W35044   1.623   8.478  13.707  0.2773  0.1231  0.1747
16191W        W35045   2.364  16.554  17.101 -0.3303  0.0685  0.1149
16192W        W35046  10.687   3.149   3.356 -0.0803 -0.0270 -0.0526
16193W        W35047   3.410  13.263  13.350 -0.0878 -0.0330  0.3800
16194W        W35048   9.457   0.451   4.064  0.1269  0.1929 -0.1960
16195W        W35049   7.519   2.997  15.335  0.2365 -0.2864  0.0076
16196W        W35050   5.248   1.424  13.786  0.2116 -0.0084  0.1895
16197W        W35051  16.410  12.919  13.841  0.1794 -0.0743 -0.0759
16198W        W35052  12.937   5.231  12.626  0.0663  0.3450  0.1844
16199W        W35053   2.949   2.382  12.991  0.0379 -0.3000 -0.1335
16200W        W35054  15.189  12.347   3.541 -0.1299  0.1389  0.0166
16201W        W35055   9.079   0.949  16.504  0.1128 -0.3062 -0.0761
16202W        W35056   1.023  15.335  13.045  0.2320  0.1264  0.0843
16203W        W35057   5.592  16.626  12.827 -0.1362 -0.2227 -0.2552
16204W        W35058   4.935   2.579   0.718 -0.0313 -0.0667 -0.1378
16205W        W35059   8.577  11.602   5.005 -0.2591  0.2841 -0.1756
16206W        W35060   3.535   9.857   2.358  0.2933  0.3847 -0.3836
16207W        W35061   7.421   1.175  15.190 -0.0666  0.1827 -0.1772
16208W        W35062   4.176   4.111   1.704 -0.3315  0.3976  0.2624
16209W        W35063   4.942   1.893  14.165 -0.1049  0.0333 -0.0894
16210W        W35064   7.433  13.772   4.051  0.0116  0.0068  0.1855
16211W        W35065  16.349  12.799  12.969  0.2141  0.3756  0.0071
16212W        W35066   4.258  12.324   4.052  0.2134 -0.3307  0.0391
16213W        W35067   2.927   5.062   4.331 -0.1050 -0.1257 -0.0018
16214W        W35068  17.245  15.217  11.975 -0.2101  0.0335 -0.3252
16215W        W35069   7.395   0.204  11.300 -0.0327 -0.2341 -0.0382
16216W        W35070  11.873   2.450  15.015  0.1661 -0.1601 -0.1545
16217W        W35071  16.824   7.157   1.251  0.0970  0.0808  0.0068
16218W        W35072  12.682  16.654   1.306 -0.0443  0.1256 -0.0060
16219W        W35073   9.992  17.451   0.397 -0.1307 -0.0909 -0.2796
16220W        W35074   3.028   9.611   2.163 -0.2107  0.0894  0.3451
16221W        W35075  14.192  17.315   4.553  0.0749 -0.1072 -0.1017
16222W        W35076   6.458  16.762  13.112 -0.2231 -0.2440  0.1165
16223W        W35077   4.095  16.310  15.764 -0.2727 -0.1605 -0.2128
16224W        W35078   6.122   3.037   2.821 -0.3167 -0.0813  0.0807
16225W        W35079   6.050   5.190  12.259 -0.1162  0.1512  0.1738
16226W        W35080  17.533  13.459  15.851  0.1428  0.3993 -0.2259
16227W        W35081   0.627   2.605  14.928 -0.2768  0.0663 -0.0299
16228W        W35082   8.279   1.228  16.963 -0.0311  0.2168  0.0443
16229W        W35083  14.474  12.439  13.428  0.0539 -0.0157  0.3740
16230W        W35084  13.304  12.504  17.165 -0.2214 -0.1930  0.2287
16231W        W35085  15.412   4.914   1.965  0.0265  0.0399  0.1774
16232W        W35086   7.142  17.527   0.954  0.1273  0.1626  0.0030
16233W        W35087   3.263   7.774   4.488 -0.0798 -0.1527 -0.0366
16234W        W35088   8.555  11.217   2.814 -0.0882 -0.0028  0.1301
16235W        W35089   2.652   5.492   0.236 -0.0898 -0.2520  0.0467
16236W        W35090   4.027   5.354   1.683  0.0250  0.3309 -0.0362
16237W        W35091   3.685   0.104   2.667 -0.4859 -0.0754 -0.1476
16238W        W35092   0.762  12.054  13.690  0.2182  0.2561 -0.2512
16239W        W35093   0.503  12.898  13.455 -0.3829  0.0488 -0.0796
16240W        W35094   8.228  12.796  15.445 -0.2920  0.0754  0.0915
16241W        W35095   6.496  11.975  12.696 -0.1036  0.0922 -0.2832
16242W        W35096   3.205   1.605   3.286 -0.0530  0.2910  0.1477
16243W        W35097   3.889   7.783  16.408 -0.1571  0.0797  0.0945
16244W        W35098   6.980   7.701  12.723 -0.1133 -0.1703  0.0815
16245W        W35099  12.518   6.766   3.539  0.0155 -0.0628 -0.0023
16246W        W35100  12.799   8.796   0.136 -0.1533 -0.1569 -0.3493
16247W        W35101   0.810   6.478   2.641 -0.1749 -0.0479 -0.1302
16248W        W35102  14.308   6.464  12.353 -0.2067 -0.1173 -0.1530
16249W        W35103   9.091   5.292   1.778 -0.0185 -0.0196  0.1393
16250W        W35104   3.800  16.162   4.278 -0.2794 -0.0779  0.2126
16251W        W35105   2.885   6.327  12.717 -0.0201 -0.1107 -0.2510
16252W        W35106  12.434  15.417  16.736 -0.2106  0.0563  0.0454
16253W        W35107   6.153  12.074  16.887 -0.1807  0.0476 -0.0925
16254W        W35108   2.828   7.563   4.521 -0.1329 -0.2518  0.0871
16255W        W35109  12.787  14.418   3.343 -0.2248  0.0582 -0.0409
16256W        W35110   8.174  14.958   5.467 -0.1602 -0.2371  0.0678
16257W        W35111  15.784   4.854   3.529 -0.1901 -0.0865  0.1331
16258W        W35112  11.069  16.678  14.813  0.0851  0.0334 -0.1913
16259W        W35113   7.334   7.039  13.930  0.1029 -0.2927 -0.1261
16260W        W35114   2.703  12.128   4.218 -0.1095  0.1773 -0.2852
16261W        W35115   2.975   4.051  16.746 -0.1093 -0.1478 -0.0785
16262W        W35116  11.185   2.619  15.186  0.0436 -0.2425  0.1961
16263W        W35117   1.273  16.174   0.280  0.2887  0.0088 -0.0252
16264W        W35118  15.886   0.329   3.418  0.0471 -0.4569  0.0574
16265W        W35119   9.511  15.301   4.620 -0.1513  0.2955  0.1158
16266W        W35120   6.863   5.081  16.027 -0.0905  0.0947 -0.1059
16267W        W35121   1.058   7.493  12.154  0.2145 -0.1088 -0.1134
16268W        W35122  11.182   4.574  14.087  0.0385 -0.1728  0.0487
16269W        W35123   3.342  11.130   4.938 -0.2529 -0.0619 -0.2032
16270W        W35124  16.054   3.967   3.146 -0.0314 -0.2250  0.1313
16271W        W35125  12.133   9.599   2.344  0.1813 -0.0622 -0.0641
16272W        W35126   9.746  10.635   2.880 -0.0182 -0.1370  0.2175
16273W        W35127   8.297   5.756  13.210 -0.0872 -0.1034 -0.1135
16274W        W35128   0.893  15.530  13.669  0.1163  0.1081 -0.1323
16275W        W35129  11.979   4.845  11.998  0.1301  0.3485 -0.2036
16276W        W35130  12.234   3.793  15.675  0.2816  0.0968  0.2241
16277W        W35131   2.321   6.314  14.451 -0.0365 -0.0529  0.1906
16278W        W35132   8.923  16.347  14.050  0.0275 -0.0578 -0.2260
16279W        W35133   6.603  15.486   4.705  0.1189  0.3688  0.1220
16280W        W35134   7.049  10.931  14.695  0.0217 -0.1409 -0.1963
16281W        W35135  16.121   1.531  14.333  0.1303 -0.0974  0.3412
16282W        W35136   9.450   5.776   4.594 -0.1416  0.0209  0.1085
16283W        W35137  11.110  11.843  14.764  0.0640 -0.1587  0.0115
16284W        W35138  11.061   4.238  10.974  0.0854 -0.1323 -0.0104
16285W        W35139   0.611  11.089  12.096  0.2425 -0.2075 -0.0059
16286W        W35140  14.641   9.729   4.306  0.2854  0.1395 -0.2782
16287W        W35141   4.964   1.478  15.510 -0.5175 -0.1100  0.0492
16288W        W35142  14.001  13.741   0.841 -0.1294 -0.0432  0.0547
16289W        W35143   0.969  12.728  15.058  0.1249 -0.0494 -0.0231
16290W        W35144   3.360  16.223  15.123  0.1162  0.1527  0.2059
16291W        W35145  10.534   3.826   0.055 -0.1963  0.1671 -0.0335
16292W        W35146   7.525   4.226   2.119 -0.1808  0.1686 -0.1359
16293W        W35147  15.971   2.660  15.205 -0.0578 -0.0483 -0.2748
16294W        W35148  16.897   3.520   1.657 -0.0489 -0.1082  0.1801
16295W        W35149   5.864  16.377   1.711  0.2778  0.5222 -0.0874
16296W        W35150   9.243  14.808   4.580 -0.1437  0.2015  0.0701
16297W        W35151  11.201  12.562  15.636 -0.1481  0.4272 -0.2039
16298W        W35152   1.555  16.946   0.227 -0.0947  0.0467 -0.2069
16299W        W35153   4.148   9.992  15.578  0.0798  0.0932  0.1764
16300W        W35154   5.044  14.774   3.485 -0.0697  0.1153 -0.0968
16301W        W35155  13.574  10.010  13.590 -0.1530  0.0084  0.2693
16302W        W35156  16.635  17.183   1.915 -0.1816  0.1302 -0.2078
16303W        W35157   0.470  16.030  15.840  0.2572  0.5114 -0.2881
16304W        W35158  12.584   6.660   3.030  0.1236  0.4074 -0.0028
16305W        W35159   3.160  10.235   0.285  0.0393 -0.1725 -0.1150
16306W        W35160  14.320   7.219  13.041 -0.1421  0.2772 -0.1359
16307W        W35161   0.042   7.085  16.099 -0.0214  0.3559  0.0175
16308W        W35162  17.193   3.462  13.888 -0.0815  0.0017  0.0305
16309W        W35163  13.345   9.087  16.921  0.0249  0.0873  0.0998
16310W        W35164   0.255  11.810  14.201 -0.0706  0.1033  0.0646
16311W        W35165   9.542   3.169  14.424  0.0159  0.1959 -0.0178
16312W        W35166  15.493   2.768   1.887  0.0840 -0.0615 -0.3050
16313W        W35167  10.860   5.500  13.356 -0.0491 -0.0723  0.0031
16314W        W35168  16.909  11.133  12.341  0.1110  0.0267  0.0124
16315W        W35169  16.726   3.975   1.369  0.1747  0.0839 -0.0269
16316W        W35170   9.941   5.618   0.545 -0.1862  0.1283  0.0713
16317W        W35171  15.265   7.272   0.164  0.0407 -0.0175  0.2564
16318W        W35172  12.261   8.041  12.620  0.0985 -0.2430  0.4004
16319W        W35173   3.556   0.633  15.712 -0.3949 -0.1522  0.2143
16320W        W35174   6.918   0.959   4.655 -0.0218 -0.2845 -0.0010
16321W        W35175   2.463   8.704   0.141  0.1253 -0.0531 -0.1317
16322W        W35176   1.772   7.259   1.791 -0.1511 -0.2343  0.0145
16323W        W35177  14.689  15.765   2.199  0.0095 -0.0667 -0.0060
16324W        W35178   7.707   6.313  12.394  0.1047 -0.3107  0.1266
16325W        W35179  12.539   3.249  15.740 -0.0717 -0.2870 -0.4572
16326W        W35180   9.612   5.920  12.426 -0.1542  0.0121  0.0719
16327W        W35181  10.151   1.027   1.963  0.3203 -0.2221 -0.0196
16328W        W35182   3.275   9.306  16.988  0.0368 -0.0583  0.0675
16329W        W35183   2.966  12.320  16.246 -0.1213  0.0586 -0.2499
16330W        W35184   7.870  10.081   0.298 -0.0488  0.3500  0.0835
16331W        W35185   8.520   6.851   1.426 -0.0935 -0.0849 -0.3181
16332W        W35186   7.639   4.346  14.221 -0.2489 -0.0095  0.1310
16333W        W35187   1.127   2.845   2.675 -0.4085  0.3202  0.0677
16334W        W35188   6.727  17.323  14.001  0.1297  0.2978 -0.2362
16335W        W35189  17.127   6.887  13.041  0.2103 -0.2080 -0.0311
16336W        W35190   8.239   3.903   0.857 -0.0472  0.1415 -0.0650
16337W        W35191   4.836   2.907  15.029 -0.1272  0.2511  0.4022
16338W        W35192   0.929   5.479  17.233  0.3212  0.0936 -0.2570
16339W        W35193   7.145  17.387  16.923  0.3871 -0.0473  0.1472
16340W        W35194  11.579  16.321   4.112 -0.0165 -0.1237 -0.2828
16341W        W35195   3.164   7.275  13.250  0.3439 -0.0807 -0.2300
16342W        W35196   8.816  11.220   4.073 -0.0415 -0.0940  0.1221
16343W        W35197   1.738   4.361  12.667  0.1328  0.1418 -0.0665
16344W        W35198  16.086  15.244  16.615  0.1514 -0.0299 -0.0794
16345W        W35199  14.795  13.450   4.231  0.2000  0.0690  0.2296
16346W        W35200   7.745  15.486  14.624  0.2584  0.2016 -0.1398
16347W        W35201   8.802   3.367  13.834 -0.1044  0.0356  0.0161
16348W        W35202   4.145   7.186  17.142  0.0145 -0.0931 -0.0956
16349W        W35203   1.768  10.452  15.580 -0.3109 -0.0884 -0.0525
16350W        W35204   9.937  15.439   2.921  0.0816  0.3017 -0.2756
16351W        W35205  14.526   1.690  16.947  0.0546 -0.3732  0.1840
16352W        W35206   4.017   9.525   1.599  0.0412 -0.0097 -0.0339
16353W        W35207   8.019   7.947  14.381 -0.1293 -0.1943 -0.0497
16354W        W35208   4.473   2.830  13.316 -0.4808  0.0704 -0.3305
16355W        W35209   2.512   9.974   4.482  0.1375  0.1259  0.0478
16356W        W35210   0.900  10.864  13.395 -0.0020  0.1412  0.1147
16357W        W35211   4.299   3.590   0.609 -0.0915 -0.3461  0.1048
16358W        W35212   9.582  14.333   0.544 -0.1108  0.0482  0.0144
16359W        W35213   4.256  14.431   0.959 -0.1298  0.1740  0.0165
16360W        W35214   0.307  13.489   0.793  0.1869  0.0210 -0.0192
16361W        W35215   5.851   8.290  15.329 -0.0483  0.2032 -0.3542
16362W        W35216   5.440   4.672  13.888 -0.1039 -0.0810 -0.1593
16363W        W35217   2.562  16.035   0.835 -0.0165 -0.0615 -0.0047
16364W        W35218   6.848   6.106  16.005 -0.0909 -0.0766  0.3763
16365W        W35219   4.175  11.966  14.039 -0.2675 -0.0073  0.0060
16366W        W35220   8.576  11.494   2.060  0.2178  0.0390  0.1086
16367W        W35221   7.905   7.832   2.418 -0.0372 -0.4171  0.0599
16368W        W35222   8.515  15.604   3.780 -0.0672  0.2164 -0.1677
16369W        W35223   4.648  11.064   4.247 -0.0928  0.0765 -0.2358
16370W        W35224  11.529   0.263  14.089  0.0662 -0.0275 -0.0057
16371W        W35225  16.574   7.718  14.398 -0.3814 -0.3601 -0.0535
16372W        W35226  12.584  15.029   2.299 -0.1776 -0.1669  0.0422
16373W        W35227   5.414   2.653  16.209 -0.0226  0.2311 -0.1924
16374W        W35228  17.047  16.993  16.807 -0.0727  0.1211 -0.1153
16375W        W35229   5.680   9.307  16.551  0.2592 -0.2271  0.0051
16376W        W35230   8.345   9.342  14.014 -0.0429  0.0793  0.0079
16377W        W35231   5.779   4.468   4.303 -0.0028 -0.0258 -0.0182
16378W        W35232   9.657  17.516   3.999 -0.2000  0.0992  0.2915
16379W        W35233  12.010   8.553   4.732  0.0539 -0.2293  0.0477
16380W        W35234   2.202   4.551  13.536 -0.0987  0.3524  0.2311
16381W        W35235   9.638   5.588  16.006  0.0244  0.1427 -0.2318
16382W        W35236   9.619  14.385  12.555 -0.0934  0.2610  0.0439
16383W        W35237   0.495   5.522  12.922  0.1256  0.1920 -0.0328
16384W        W35238   3.631   9.933   1.658  0.1571 -0.2860 -0.1063
16385W        W35239   4.269  15.707  15.159  0.0684  0.0147  0.3530
16386W        W35240   4.017  16.311  16.787 -0.1071 -0.3221 -0.1855
16387W        W35241   2.955  13.426  13.908 -0.0672  0.1664  0.0577
16388W        W35242   1.269   0.493  16.739 -0.0674 -0.2245  0.0052
16389W        W35243   2.324  17.505  14.115 -0.0423 -0.2420 -0.0100
16390W        W35244   7.643   0.918   3.072 -0.0858 -0.1082 -0.0193
16391W        W35245  11.451  12.739  13.404  0.0276  0.1882  0.3981
16392W        W35246   3.485   4.928  13.745  0.0317 -0.0579 -0.1894
16393W        W35247   4.257  15.874  16.634  0.1788  0.2247  0.0298
16394W        W35248  12.061  11.687   2.713 -0.0260 -0.3795 -0.0007
16395W        W35249  14.352   2.353   4.512 -0.1136  0.0290  0.2595
16396W        W35250  16.288   7.927   0.613 -0.2990  0.0721  0.0743
16397W        W35251   7.733   2.493   1.787  0.1483  0.2596 -0.2748
16398W        W35252  12.846  12.553  11.169 -0.0155  0.0432  0.2568
16399W        W35253   9.948   0.437  15.361  0.2353  0.2095 -0.0490
16400W        W35254   7.232  16.912   1.110  0.5326  0.2513 -0.0190
16401W        W35255  15.547   3.783  15.937  0.0564  0.1176 -0.0382
16402W        W35256  12.135   7.993   1.695  0.2500  0.0265  0.1511
16403W        W35257   9.703   8.603  12.447 -0.2902 -0.0045 -0.3620
16404W        W35258   7.206   5.464   4.212  0.0786  0.0657 -0.1101
16405W        W35259   9.650  11.959  12.187  0.2311 -0.1183  0.2621
16406W        W35260  13.780   6.531   3.701  0.2679  0.1714  0.0849
16407W        W35261  10.583  12.954   4.097  0.2731  0.3892 -0.1504
16408W        W35262   5.866   8.920  16.265 -0.0258 -0.2344 -0.2549
16409W        W35263  11.367   4.531  13.577 -0.1469 -0.3051 -0.0591
16410W        W35264   4.340   1.311  13.661 -0.0484 -0.3558  0.2122
16411W        W35265   0.524   9.393  16.253  0.0013  0.2595 -0.0021
16412W        W35266   8.771  13.581  13.437  0.0394  0.2272  0.1401
16413W        W35267   0.013   2.441  12.379 -0.0470 -0.0179 -0.1360
16414W        W35268   5.639  11.564  13.733  0.1104  0.1844  0.0290
16415W        W35269  12.272   8.154  14.392  0.1100  0.1622 -0.1805
16416W        W35270  16.095   2.924  13.493 -0.0267 -0.0047 -0.1783
16417W        W35271  10.636   8.290  14.227  0.1056  0.0205 -0.0837
16418W        W35272  15.843  16.048   3.552  0.0445  0.1317 -0.0871
16419W        W35273  11.663   8.493   0.716 -0.1798 -0.1738 -0.0141
16420W        W35274   7.103   6.854   4.374  0.0375  0.0895  0.2299
16421W        W35275   8.438   4.432   4.560 -0.0272  0.1924  0.0780
16422W        W35276  14.686  17.174  14.772 -0.0968 -0.0170 -0.2039
16423W        W35277  15.694  13.773   0.025  0.2674  0.1200 -0.1182
16424W        W35278  11.179  13.205   3.709  0.1694 -0.0396 -0.2615
16425W        W35279  16.180  13.446   4.917  0.1157 -0.0499 -0.0768
16426W        W35280   0.792   5.390  14.195 -0.1681 -0.1973 -0.0041
16427W        W35281  15.163   7.881  15.476  0.3187 -0.1301  0.4192
16428W        W35282   2.508  12.449   3.835  0.1272  0.0583  0.1513
16429W        W35283   6.234   3.183  14.190  0.0278  0.0837 -0.0797
16430W        W35284   1.367  15.779   3.421 -0.2726 -0.0526  0.0010
16431W        W35285   4.715   9.832  12.929  0.1908 -0.4393 -0.0251
16432W        W35286   1.805   2.009  17.051 -0.0371 -0.0549 -0.0121
16433W        W35287   5.100   3.270   3.914 -0.0405 -0.1610  0.0369
16434W        W35288   7.705  17.470  14.187  0.1331  0.0658 -0.1243
16435W        W35289   1.817  16.060  14.148  0.0888 -0.2056  0.0008
16436W        W35290   5.899   2.861  14.415 -0.2947 -0.1281  0.0996
16437W        W35291   6.407   5.132   4.319 -0.2263 -0.0112  0.1248
16438W        W35292   9.030   2.213  14.450  0.0695 -0.0382  0.4279
16439W        W35293  16.783   7.259  14.428  0.1452  0.1519  0.0493
16440W        W35294   4.174   9.187   3.168 -0.2255  0.0418  0.0535
16441W        W35295  14.277  14.615   1.071  0.0953 -0.0475 -0.1300
16442W        W35296   6.947   3.664  14.278  0.0381 -0.0827  0.1668
16443W        W35297   1.185   8.541  16.985  0.0702  0.0116  0.3121
16444W        W35298   2.778   9.911   6.322  0.0862  0.0896 -0.0639
16445W        W35299   0.746   4.067   3.323 -0.1087 -0.1923 -0.1283
16446W        W35300  17.550   3.075  16.734  0.0991  0.3352 -0.1830
16447W        W35301   1.887   6.366  15.185  0.0736  0.3165  0.0092
16448W        W35302   5.093   6.483  16.513 -0.0746 -0.2662 -0.0702
16449W        W35303  10.275  16.056  16.470 -0.3424 -0.0075  0.2741
16450W        W35304   5.225  12.262   0.562 -0.2175 -0.2545 -0.0612
16451W        W35305   1.376   0.743  13.424 -0.5008  0.1784  0.1303
16452W        W35306  16.129   4.315   3.694  0.0473 -0.1597  0.0042
16453W        W35307  13.269   5.007   0.987  0.1293  0.5326  0.0900
16454W        W35308   0.071   9.844  12.882  0.1443  0.0028  0.0807
16455W        W35309   3.538   0.530   4.607 -0.1905 -0.0267 -0.0952
16456W        W35310   7.727  14.239   2.266 -0.0331 -0.1291 -0.1830
16457W        W35311   0.947   2.722  15.826 -0.0772  0.2442  0.1068
16458W        W35312  15.154  10.914   2.307 -0.0252 -0.1956  0.1078
16459W        W35313  15.807   7.902   3.461  0.0716  0.3594 -0.1112
16460W        W35314   3.596   6.087  17.124  0.1171 -0.0370 -0.4868
16461W        W35315   1.964  10.784   0.802 -0.0485 -0.0378  0.2282
16462W        W35316   7.353   9.804   2.552 -0.2071 -0.1387 -0.4632
16463W        W35317   1.112   1.815   2.897 -0.0430  0.1034  0.2494
16464W        W35318  17.026  10.527  14.055  0.0110 -0.1204  0.0727
16465W        W35319   2.446  17.257   1.146  0.2126  0.0962 -0.2365
16466W        W35320   2.612   6.570   1.895  0.1756  0.3176  0.2125
16467W        W35321  15.942   2.918   4.930  0.1725 -0.0062 -0.0957
16468W        W35322  15.812  12.829  14.320  0.1472 -0.0383  0.1731
16469W        W35323  14.809   5.293   0.396  0.2006  0.1230  0.1269
16470W        W35324  11.731   7.508  16.997  0.1159  0.0353 -0.0856
16471W        W35325  13.429   3.283  12.998  0.2332  0.0329  0.0707
16472W        W35326  17.589   5.811  14.561 -0.1761 -0.1190  0.2749
16473W        W35327   3.254  17.205  12.695 -0.0176 -0.0825 -0.2181
16474W        W35328  15.198   5.524   3.744 -0.3074  0.3144 -0.1341
16475W        W35329  10.725   6.299   3.574  0.1770 -0.4198 -0.0658
16476W        W35330   1.708   0.521  12.270 -0.4113  0.0858  0.0330
16477W        W35331  13.126   7.201   2.927  0.1702  0.0036  0.3228
16478W        W35332   6.353   2.236   3.961 -0.0937 -0.1004 -0.3582
16479W        W35333   2.687   4.314   4.478 -0.0309  0.1753  0.3466
16480W        W35334   1.755  12.234  16.827 -0.0758 -0.1511 -0.0947
16481W        W35335  13.003   2.523  13.543 -0.4406  0.0606 -0.2608
16482W        W35336  13.219  16.504   1.951  0.3294 -0.3360  0.1297
16483W        W35337   7.254  17.147  15.669 -0.2470 -0.1130 -0.0223
16484W        W35338  13.959  14.861  17.102 -0.3359 -0.2998  0.1063
16485W        W35339   6.332   4.757   1.773  0.0114  0.0777  0.0510
16486W        W35340  17.307  16.469   1.754 -0.0320  0.0130  0.0549
16487W        W35341   3.850   2.089   1.782 -0.0121  0.3651  0.1691
16488W        W35342   0.028  12.822   3.649  0.2065 -0.1204 -0.0181
16489W        W35343   7.814   3.366  16.112 -0.0314  0.1917  0.0792
16490W        W35344   4.706  15.445  12.186  0.2611  0.1379 -0.5121
16491W        W35345  15.006  10.800  17.085  0.2791  0.1221  0.0754
16492W        W35346  11.468   6.584   4.860  0.0270  0.2780 -0.0837
16493W        W35347  13.396  11.714  12.519 -0.0432 -0.2085  0.3218
16494W        W35348   3.232   4.236  16.036 -0.0907 -0.0276 -0.0461
16495W        W35349   5.448  15.754   0.342 -0.0213  0.0316 -0.4486
16496W        W35350  12.663  14.811   0.311  0.0072 -0.1413  0.1128
16497W        W35351  13.001   8.665  12.780  0.0694  0.1080 -0.1909
16498W        W35352  10.040   1.938   0.968  0.1522 -0.2035  0.2500
16499W        W35353  11.763  11.704   4.335  0.0282 -0.0660 -0.1537
16500W        W35354   9.073  11.469  17.211  0.1750  0.0643 -0.0839
16501W        W35355  14.144   0.999   2.080  0.0681 -0.1701 -0.3198
16502W        W35356   6.402   4.424   5.024 -0.0198  0.3076  0.3873
16503W        W35357   8.718   2.393  14.095 -0.0112 -0.2135 -0.3066
16504W        W35358  12.422  10.275   1.814 -0.1984 -0.3190  0.0258
16505W        W35359  13.117  16.835   1.549 -0.0626 -0.1810  0.1311
16506W        W35360  10.867   7.742  17.020 -0.0651  0.3069 -0.1746
16507W        W35361   0.319  17.448  13.680  0.3229  0.0141 -0.2984
16508W        W35362   8.984   4.947  16.073 -0.2526  0.3125 -0.0464
16509W        W35363  17.577   4.353   4.360 -0.0017 -0.1706 -0.0715
16510W        W35364  12.285  12.066   3.460 -0.2209 -0.1898 -0.1905
16511W        W35365   3.011   8.631   3.947 -0.1005  0.1033 -0.1298
16512W        W35366   1.931  14.379  16.170  0.3342  0.1889 -0.2773
16513W        W35367   7.087   8.120   5.098 -0.1447 -0.0174  0.2071
16514W        W35368  10.569   0.109  17.196 -0.0679  0.0754  0.1537
16515W        W35369  10.326   1.999  16.064 -0.3024  0.1400  0.0533
16516W        W35370  12.178   1.884   3.522  0.2203  0.0089 -0.0028
16517W        W35371   5.150  13.817  14.471 -0.1529  0.1515 -0.1640
16518W        W35372   1.958  14.504   1.211  0.1559  0.0212 -0.1322
16519W        W35373   4.322   5.911  14.841  0.0548 -0.0314  0.1740
16520W        W35374   3.271  10.309  16.496 -0.2134 -0.2611 -0.1456
16521W        W35375   0.704  16.491   3.511  0.1869 -0.0240  0.4969
16522W        W35376   2.347  16.996   0.097 -0.1830 -0.1526 -0.3507
16523W        W35377   3.679  12.026   1.918 -0.0449 -0.0861  0.1316
16524W        W35378   5.743   5.610   2.228  0.0547 -0.1800 -0.2925
16525W        W35379   9.034  14.924   2.481  0.1141  0.1578 -0.2030
16526W        W35380   3.381   9.275  16.508  0.2561 -0.1891  0.0603
16527W        W35381   2.572   5.583  15.700  0.0152  0.1931  0.2476
16528W        W35382   6.170   5.321   2.616  0.0412 -0.1606 -0.1521
16529W        W35383  10.943  10.972  16.334 -0.1581  0.1163 -0.2122
16530W        W35384  15.246  13.401  12.749  0.0702 -0.0326  0.0821
16531W        W35385   7.602  14.295  15.812 -0.1074 -0.0732 -0.3076
16532W        W35386   7.385   6.802   0.351  0.0356 -0.1064 -0.1273
16533W        W35387   8.895  17.426  16.577 -0.1866  0.1231  0.2204
16534W        W35388   5.630  17.233  14.759  0.1144  0.0703  0.0201
16535W        W35389   1.015   6.816  13.027 -0.4042 -0.1965 -0.0020
16536W        W35390   4.549  13.480  13.082 -0.1461 -0.1238  0.3628
16537W        W35391  10.148  11.887  15.354 -0.1580 -0.1090 -0.0655
16538W        W35392  16.940  10.586  15.911 -0.2585  0.1282 -0.0197
16539W        W35393  12.174   7.876  14.846 -0.2284 -0.1715 -0.0418
16540W        W35394  10.830   6.525  13.075 -0.2100  0.0693 -0.0310
16541W        W35395   4.598   1.701  16.841  0.1086 -0.1195 -0.2299
16542W        W35396  17.529   8.166  13.633  0.2425 -0.0948 -0.1018
16543W        W35397  11.507  10.003  16.584  0.0043 -0.0999  0.3472
16544W        W35398   5.931  15.418  14.119  0.1741  0.0727 -0.0018
16545W        W35399   4.475   9.904  14.770 -0.3011  0.1100 -0.0611
16546W        W35400   7.742   8.876  16.420  0.1000  0.0591  0.0903
16547W        W35401   9.289  16.315  15.138 -0.1178  0.1230 -0.0362
16548W        W35402   3.812  15.213   2.589 -0.1081 -0.3057 -0.1681
16549W        W35403   6.897   7.744   1.044 -0.0537 -0.0325 -0.0062
16550W        W35404   1.673  11.009   4.767  0.3070  0.0172 -0.2120
16551W        W35405   0.637   8.257   0.873  0.0500 -0.0989 -0.0258
16552W        W35406   5.856   6.182   4.966  0.0394  0.0592  0.2213
16553W        W35407  12.476  12.542   1.932 -0.0460 -0.0785 -0.1214
16554W        W35408   4.533   4.718   4.511  0.1771  0.0072 -0.0820
16555W        W35409   0.862   3.745   0.588 -0.1901  0.0713 -0.2118
16556W        W35410   7.853   5.877  15.561 -0.1499  0.1832  0.3058
16557W        W35411   3.285   3.858   3.932 -0.1531  0.0344  0.1744
16558W        W35412   3.017   0.579  13.061 -0.1087  0.0895 -0.0804
16559W        W35413  13.200   0.791  14.014 -0.1224 -0.1320  0.1525
16560W        W35414   0.274   8.431  17.215 -0.1837 -0.3027 -0.0887
16561W        W35415   0.403   1.588  16.521 -0.0441  0.1056 -0.0735
16562W        W35416   6.476   1.937  15.670 -0.2164 -0.1118  0.3260
16563W        W35417   0.140  12.891   1.486 -0.1671  0.0293  0.2717
16564W        W35418  10.254  11.130  12.594  0.0644  0.0804 -0.1692
16565W        W35419   9.798  12.885  12.453  0.0122  0.0112 -0.0827
16566W        W35420   4.861  11.996   3.250  0.0391  0.0402 -0.0242
16567W        W35421  16.090   3.461   3.010 -0.1328  0.1496  0.1690
16568W        W35422   7.607   0.670   2.346 -0.1903 -0.1069  0.1551
16569W        W35423   7.761  10.280   3.579  0.1086  0.0669 -0.3170
16570W        W35424   0.667   0.169   2.578  0.2001 -0.2045  0.1339
16571W        W35425  11.100   5.038   3.785 -0.0184 -0.0541 -0.0594
16572W        W35426   8.702  15.268  13.625  0.2470  0.1631  0.0499
16573W        W35427   8.159  16.432  16.890 -0.2463 -0.0092  0.2196
16574W        W35428  16.380  10.687  13.563  0.1194 -0.1129  0.2673
16575W        W35429  13.622  16.769   3.890 -0.0170  0.0024 -0.2158
16576W        W35430   3.088   0.767   4.559  0.1366  0.0821 -0.1949
16577W        W35431   3.329  10.644   4.854 -0.1043  0.0871 -0.0569
16578W        W35432  17.341  14.499   3.814  0.1334  0.2049  0.0509
16579W        W35433   5.068   0.829  13.249 -0.0402 -0.2695 -0.0780
16580W        W35434  15.392  16.549   3.436 -0.0288 -0.2268  0.1062
16581W        W35435   4.539  10.267   3.490  0.1478  0.1182  0.1810
16582W        W35436   0.435   9.878   0.524 -0.3008  0.1108  0.2833
16583W        W35437   9.489  14.823   1.077 -0.0150 -0.0708  0.1359
16584W        W35438   2.251   6.949  12.386 -0.2937 -0.1459  0.0214
16585W        W35439   4.123  16.278   4.706  0.1191 -0.1001  0.3261
16586W        W35440  15.366   8.540  12.247  0.1647 -0.0223  0.1569
16587W        W35441   5.008  13.665  15.384  0.2227  0.2174 -0.1219
16588W        W35442  12.994   9.333   3.831  0.0744  0.3301  0.0150
16589W        W35443  13.901  14.856   4.813 -0.2201 -0.0250  0.3206
16590W        W35444  14.474   3.264  13.996  0.0061 -0.1196  0.0974
16591W        W35445   5.139  11.104   4.333  0.1143  0.0202 -0.0307
16592W        W35446   3.891   5.680  13.653 -0.1148 -0.1929  0.2622
16593W        W35447   3.100   0.962  13.964  0.2434 -0.2728  0.1146
16594W        W35448  11.824  12.243   4.236 -0.1645  0.4564  0.1984
16595W        W35449  16.774   2.549  12.785  0.2365 -0.3437  0.1634
16596W        W35450  14.475   8.780   3.802 -0.0741 -0.1115  0.0691
16597W        W35451   8.260   4.388   2.827 -0.3381  0.1544  0.1236
16598W        W35452   8.196   1.712   2.703  0.3007 -0.2010 -0.0022
16599W        W35453  11.700  12.358  12.520 -0.1456 -0.1576 -0.0198
16600W        W35454  15.915  16.808   0.343  0.0363 -0.2924  0.1182
16601W        W35455  15.971  11.842  15.932 -0.0569 -0.1254 -0.1358
16602W        W35456   8.638  11.442  14.243 -0.1957 -0.2152 -0.2332
16603W        W35457  10.307  13.636   1.672  0.2069 -0.3103  0.0540
16604W        W35458   0.189  14.064   0.258  0.0631 -0.1598 -0.0447
16605W        W35459   8.506  15.679   2.726  0.0765  0.1012 -0.1338
16606W        W35460   1.724   5.962  17.010 -0.0162  0.0442  0.2104
16607W        W35461   7.556   3.438  12.264  0.0815  0.2707 -0.1672
16608W        W35462  13.468  15.737  13.976 -0.1918  0.0921  0.3472
16609W        W35463   8.444   1.281   0.245  0.1910  0.2158  0.0350
16610W        W35464   3.812   9.207   4.871 -0.0791 -0.0710  0.3764
16611W        W35465   9.992   9.504   4.950 -0.1872  0.2273  0.1372
16612W        W35466   8.649   2.172   2.008 -0.1873 -0.1139 -0.0885
16613W        W35467   1.617  16.982   4.467 -0.0902 -0.0907 -0.1217
16614W        W35468  17.259   2.123  14.403  0.1339 -0.3689  0.1275
16615W        W35469  11.577   2.614   3.120 -0.0918  0.1641  0.1336
16616W        W35470   4.876  10.691   4.572 -0.1963 -0.0818 -0.0355
16617W        W35471  11.075   7.974   1.239  0.0623  0.0925 -0.2719
16618W        W35472   3.999   6.128   2.036  0.1195  0.1067  0.0296
16619W        W35473   4.829  15.353  16.822 -0.1025 -0.1162 -0.0233
16620W        W35474   7.099   8.888  14.780  0.2153  0.1615  0.0861
16621W        W35475  11.354   0.035   3.005 -0.2989 -0.1534 -0.2777
16622W        W35476   9.042   1.567  12.661 -0.2580 -0.0026  0.0175
16623W        W35477  16.091  11.325  14.504  0.1238 -0.1161 -0.2576
16624W        W35478   8.710   2.106   5.302 -0.0837 -0.2091 -0.0161
16625W        W35479  14.274   0.481  13.296 -0.0214 -0.0478 -0.1857
16626W        W35480  14.192   5.125   0.809 -0.0288  0.1505  0.0634
16627W        W35481  16.462   2.358   1.868  0.0354  0.1043 -0.0536
16628W        W35482  10.259  11.399  12.161 -0.0603 -0.1582  0.0872
16629W        W35483   5.886  13.561  16.971  0.0847 -0.1557  0.1684
16630W        W35484   1.972   9.523   0.349  0.0663 -0.2421 -0.1929
16631W        W35485  16.426   2.862   3.995 -0.0623  0.1338 -0.0865
16632W        W35486  10.984  12.196   1.533 -0.4222  0.0465  0.0066
16633W        W35487   1.559   8.773  15.769 -0.2394  0.0984 -0.0600
16634W        W35488   6.391  15.293  16.705 -0.0906 -0.0147 -0.0099
16635W        W35489  14.736   1.138  13.243  0.1622 -0.1991  0.0265
16636W        W35490   8.513  11.723  16.684  0.4044  0.2444 -0.3967
16637W        W35491   9.499   7.327   2.962  0.2331 -0.1718  0.3150
16638W        W35492   9.051  13.730  16.169  0.2239  0.3768 -0.0452
16639W        W35493  14.881  13.540   1.736  0.1937  0.0004 -0.2594
16640W        W35494  10.377   2.911  13.844  0.0925  0.3828 -0.1355
16641W        W35495  16.108   5.013  12.237  0.1895 -0.0299 -0.0500
16642W        W35496   9.477  11.015   2.605  0.0047  0.2200 -0.1379
16643W        W35497   6.079  10.842  17.115 -0.0274  0.3372  0.0171
16644W        W35498   7.121   7.869  15.860 -0.4045  0.1959 -0.0756
16645W        W35499  14.364   8.774   3.295  0.3034  0.0435 -0.2470
16646W        W35500   6.708   8.486  15.603  0.0323 -0.0930  0.0620
16647W        W35501   2.867   9.748   5.840 -0.2243  0.1834 -0.1038
16648W        W35502   7.300   7.506  13.811  0.2357 -0.4771  0.0912
16649W        W35503  15.558  13.000   2.430 -0.2384 -0.0328 -0.1960
16650W        W35504   4.273  11.667  13.033 -0.3951 -0.1883 -0.5587
16651W        W35505  17.527   5.533   1.502  0.0572 -0.0747 -0.1280
16652W        W35506  13.343   8.278  14.338 -0.0363 -0.0439  0.4316
16653W        W35507  13.081   1.637  12.210  0.1394 -0.0810 -0.1235
16654W        W35508  11.630   8.736  13.050  0.2094  0.0306 -0.4000
16655W        W35509  16.434   8.243   2.007  0.0454  0.1940  0.1662
16656W        W35510  17.054  16.521  14.856 -0.1123 -0.1883 -0.0345
16657W        W35511   0.022   4.128   1.332 -0.1587 -0.1437 -0.1352
16658W        W35512  16.787   8.512   1.674 -0.2077 -0.2200  0.0437
16659W        W35513   5.710   9.069   4.655 -0.1629  0.0158  0.3891
16660W        W35514   0.038   1.513   0.343 -0.0118 -0.1351 -0.2160
16661W        W35515   4.611  17.231  12.384  0.0319  0.0378  0.0336
16662W        W35516   4.724   5.556  17.090  0.1232  0.0163  0.1766
16663W        W35517   2.536   6.101   3.475 -0.0343 -0.1104 -0.2930
16664W        W35518   4.156  16.730   0.486  0.0291 -0.1458 -0.2123
16665W        W35519   6.288  16.877  17.235 -0.0874 -0.1333 -0.1005
16666W        W35520   6.161  11.617   3.497  0.1231  0.0856 -0.0390
16667W        W35521   2.987  10.448   3.785 -0.0505  0.0535 -0.2318
16668W        W35522  14.352  12.651   3.238  0.1773  0.1960 -0.0431
16669W        W35523   2.347   3.553  15.327  0.1017  0.2522 -0.0332
16670W        W35524   8.930   7.649  16.176 -0.4104  0.0665 -0.0949
16671W        W35525   4.126   4.105   3.619 -0.2645  0.2854 -0.3003
16672W        W35526  15.874   1.112   4.830  0.0453  0.2789 -0.1541
16673W        W35527   1.447  14.548  12.645  0.1881  0.0851 -0.0541
16674W        W35528  13.155   2.541   1.052  0.3007 -0.1133 -0.0361
16675W        W35529   2.893  13.737   1.925 -0.0393 -0.0685 -0.3430
16676W        W35530   1.491  13.748   0.589  0.1990  0.0293 -0.1466
16677W        W35531   3.654   4.047   4.749 -0.3425 -0.0071  0.1169
16678W        W35532  15.802   6.666  13.872 -0.4604 -0.1115  0.1822
16679W        W35533   5.275   9.660   3.604  0.3410  0.1144 -0.0057
16680W        W35534   8.015  10.732  12.453 -0.1995 -0.0927  0.1954
16681W        W35535   3.609   5.504  11.244  0.1716 -0.0075 -0.2452
16682W        W35536  17.071   1.732  17.213 -0.1831 -0.1675 -0.2402
16683W        W35537  12.677  13.828   3.921  0.3687  0.0171  0.3014
16684W        W35538   9.392  10.288  13.943  0.1247 -0.1710  0.0477
16685W        W35539   8.018  17.138   0.686  0.0073  0.1710  0.2118
16686W        W35540   6.711   4.479  13.248  0.0467 -0.0846  0.1267
16687W        W35541   4.020   7.030  12.309  0.1516 -0.0601 -0.1260
16688W        W35542   9.378   7.562  14.217 -0.2334 -0.4229 -0.0709
16689W        W35543   0.690   3.540  14.545  0.1152 -0.1766 -0.2354
16690W        W35544   9.977  10.344   1.990 -0.0688  0.0422  0.2335
16691W        W35545   0.417   6.620   1.710  0.0205  0.1447  0.0208
16692W        W35546   8.254   3.055  16.042 -0.1701 -0.0036 -0.1426
16693W        W35547  16.810  14.866  15.966 -0.0551 -0.1598  0.0139
16694W        W35548  10.893  12.018  16.929  0.0882  0.0678 -0.0138
16695W        W35549   0.989   3.303  14.064 -0.0801  0.0487 -0.0601
16696W        W35550   7.919   3.664   3.217  0.0193 -0.1727  0.0164
16697W        W35551  12.314   4.381  16.428  0.0278  0.0011  0.1929
16698W        W35552  15.293   6.621   0.828  0.0935  0.1320  0.2149
16699W        W35553  11.856  13.594   1.356 -0.1110 -0.0084 -0.1630
16700W        W35554   5.419   7.507   1.314 -0.1380  0.1498 -0.3928
16701W        W35555  10.101  12.803   2.607 -0.0931 -0.2971 -0.1843
16702W        W35556  11.086   9.296  14.168 -0.5106 -0.0769  0.2237
16703W        W35557   3.573   8.910   4.466 -0.2440  0.1062 -0.0297
16704W        W35558   7.245   6.975  15.884 -0.2101  0.1524  0.0176
16705W        W35559   7.655   3.203  14.003 -0.1321  0.0559 -0.1424
16706W        W35560  13.957   8.394   3.474 -0.2056  0.0606  0.0616
16707W        W35561   6.766   8.401  14.657 -0.5749 -0.4650  0.0796
16708W        W35562  17.220   0.273  13.056 -0.1366  0.0310  0.1130
16709W        W35563   8.657   0.675  16.262 -0.0430 -0.2096 -0.1708
16710W        W35564  10.731   3.480  12.705 -0.1181 -0.1236  0.1446
16711W        W35565   1.752  13.663  12.639 -0.1635 -0.1650  0.0210
16712W        W35566  14.681  13.206  15.859  0.2102  0.0430  0.2737
16713W        W35567  11.515   2.548  13.062  0.0496  0.1121 -0.2379
16714W        W35568   3.467   8.479  16.546  0.0025  0.2817  0.3401
16715W        W35569  17.457  14.290  15.465  0.2741  0.1031 -0.1025
16716W        W35570  10.681  14.997  14.690  0.0671  0.0301  0.1555
16717W        W35571  17.074  11.394  16.513  0.0864 -0.2516 -0.0686
16718W        W35572   4.026   0.070  14.769 -0.1344  0.0166  0.0867
16719W        W35573  13.506   3.072  11.755  0.1220 -0.0378  0.1595
16720W        W35574  11.537   1.423  12.592 -0.0137  0.1138 -0.1929
16721W        W35575   1.852   7.388  13.630 -0.2531 -0.3398 -0.2217
16722W        W35576   8.342  17.334   5.470 -0.0989  0.0546 -0.0460
16723W        W35577   8.042   3.710  14.155 -0.1603 -0.0497 -0.0439
16724W        W35578   0.857   5.590   3.391  0.1105  0.1203 -0.0508
16725W        W35579   4.345   7.871  16.966  0.1048 -0.2379 -0.0853
16726W        W35580   5.792  16.829  15.177  0.0806  0.2110  0.3574
16727W        W35581  16.696   9.897  14.762  0.2162  0.1247 -0.0981
16728W        W35582   9.820   6.504   0.342  0.3365  0.1273 -0.1833
16729W        W35583  10.646   8.571   6.335  0.2854 -0.2505  0.1187
16730W        W35584  10.752   5.254  13.822 -0.0639 -0.1670 -0.0941
16731W        W35585  10.916   8.126   3.823  0.0111  0.2584 -0.1797
16732W        W35586   5.788  12.853   0.045  0.1527  0.1007 -0.1228
16733W        W35587  13.632   5.579  14.740 -0.3492  0.1234 -0.1727
16734W        W35588   2.895  16.386  13.587 -0.0716  0.1429 -0.1382
16735W        W35589  10.740  15.913  16.685 -0.0791 -0.1071 -0.0746
16736W        W35590  16.560   3.386   1.975  0.1079 -0.0999 -0.2583
16737W        W35591  12.815  11.482   1.146 -0.0473 -0.4854 -0.3434
16738W        W35592  10.438  16.627   1.539 -0.1651 -0.3107  0.3067
16739W        W35593   3.312  10.760   0.199 -0.0620 -0.2173 -0.0743
16740W        W35594  14.266  17.158  13.755  0.1565  0.0196  0.0852
16741W        W35595  11.125   2.396   3.102 -0.2675  0.1673 -0.0210
16742W        W35596  15.077  15.834   5.837 -0.0683 -0.5639 -0.1936
16743W        W35597   7.781   1.253   3.434  0.1313 -0.2098  0.1497
16744W        W35598  15.484   5.858  16.211 -0.0771 -0.0055 -0.0620
16745W        W35599   5.890  13.940   2.455  0.2024  0.0763 -0.1692
16746W        W35600  11.885   6.972  13.746 -0.1054  0.2102  0.1186
16747W        W35601   7.982   0.141  14.541 -0.0106  0.1784 -0.0124
16748W        W35602   6.725   3.402   1.525 -0.1593  0.2155 -0.0910
16749W        W35603   0.078   8.828   5.638 -0.1992  0.1034  0.1101
16750W        W35604  13.826   7.321  15.164  0.1456 -0.2326 -0.0865
16751W        W35605   6.895   9.670   5.452  0.0282 -0.3259  0.3445
16752W        W35606  16.675  11.982  13.343  0.2073  0.1678  0.1126
16753W        W35607   3.399   7.687   3.878 -0.1043 -0.3342  0.2162
16754W        W35608   4.479  17.039  13.082  0.2162 -0.0433  0.0772
16755W        W35609  15.308   5.428  16.016 -0.0970 -0.1184 -0.2450
16756W        W35610  16.453  12.878   3.154 -0.0457 -0.2372  0.0137
16757W        W35611  15.565  11.963  15.455  0.0350  0.0343 -0.1104
16758W        W35612   8.286  15.288  16.564  0.1017 -0.0932 -0.1927
16759W        W35613  10.393  13.793  15.406  0.3798  0.1608  0.0345
16760W        W35614  15.375   5.737   1.223  0.2048 -0.0693  0.0901
16761W        W35615   6.400   0.852   5.450 -0.0488 -0.1018  0.0288
16762W        W35616   4.613  15.123   2.253 -0.0198  0.1243 -0.0611
16763W        W35617   4.130  10.495   4.949 -0.0502  0.0064  0.3093
16764W        W35618   0.827  11.689   1.570 -0.1516 -0.1639  0.0505
16765W        W35619  12.727   4.286   2.539  0.0807 -0.1416 -0.2846
16766W        W35620  10.289   4.516   1.450 -0.1710 -0.1401  0.0002
16767W        W35621   7.297   2.226   3.298 -0.1512 -0.1198  0.1071
16768W        W35622   5.273   6.123   1.768 -0.1489 -0.1488 -0.0853
16769W        W35623   8.658  13.405  16.040  0.0883  0.0319 -0.0438
16770W        W35624  12.299   1.427   1.722  0.3627 -0.1392  0.1732
16771W        W35625  14.944   1.008  12.713  0.0076  0.2906  0.1461
16772W        W35626  13.700   7.894  12.960 -0.0278 -0.1563 -0.2078
16773W        W35627   4.521   0.734  15.157 -0.1204  0.0963 -0.1186
16774W        W35628  13.927  14.675  14.108 -0.1196  0.0975 -0.3526
16775W        W35629  15.496  15.601   3.758 -0.0613 -0.0907  0.0613
16776W        W35630  16.348  17.600   4.540 -0.1264 -0.0415  0.1410
16777W        W35631  16.182  10.565  12.277 -0.1289  0.2476 -0.0627
16778W        W35632  10.875   0.268   0.713  0.2669 -0.4500  0.1540
16779W        W35633   9.892   9.003  14.680  0.1665  0.0850  0.0823
16780W        W35634   3.635   8.165  16.184 -0.0784  0.1749 -0.2195
16781W        W35635  16.941  14.504  16.330 -0.1428 -0.0557 -0.0659
16782W        W35636   7.422  16.590   2.922  0.1320 -0.2259  0.0641
16783W        W35637   9.274   9.302   2.836 -0.3418 -0.2073  0.2151
16784W        W35638  15.785   7.150  16.902 -0.0160 -0.1224 -0.0307
16785W        W35639  11.945   0.161  15.016 -0.2153 -0.0366 -0.0303
16786W        W35640  16.031   7.602  15.679 -0.2120  0.5079 -0.1413
16787W        W35641  17.198   9.177   0.943 -0.2182 -0.2234  0.0092
16788W        W35642  11.704  12.542   3.865  0.1137 -0.0685  0.1191
16789W        W35643   1.946   8.957   1.960 -0.2517 -0.0563 -0.2440
16790W        W35644  13.077   5.884   2.739 -0.0620 -0.4459 -0.1383
16791W        W35645   2.376   2.607  16.929  0.3268 -0.0214  0.1164
16792W        W35646   9.780   9.436   1.430  0.1103 -0.2034  0.0365
16793W        W35647  16.540   1.792   4.010  0.0350  0.0903 -0.1036
16794W        W35648   9.331   4.445  17.088 -0.0423  0.0211  0.1350
16795W        W35649  12.235  13.322  13.531  0.2604  0.2831  0.2202
16796W        W35650   3.294  15.288  13.139  0.1275 -0.1090 -0.1364
16797W        W35651   7.714  16.113   0.603 -0.2125 -0.1368 -0.0844
16798W        W35652  15.202  12.777   3.019  0.0088  0.1103 -0.1909
16799W        W35653  17.105  11.101  15.766 -0.2107  0.3555 -0.0230
16800W        W35654  17.183  11.414  17.048 -0.3409 -0.1703  0.3389
16801W        W35655   3.477   0.402  13.384  0.1423  0.2357  0.0871
16802W        W35656  13.796  14.653  13.073 -0.0129 -0.4827 -0.0724
16803W        W35657  14.039  10.423  16.916  0.0787  0.4928  0.2456
16804W        W35658  17.528   9.047  13.536  0.0085  0.3012  0.0004
16805W        W35659   4.869   4.586   1.489  0.1859 -0.0549  0.2088
16806W        W35660   2.908   7.195   5.419  0.0906 -0.1286 -0.0875
16807W        W35661  15.519   9.143  15.549 -0.4772  0.1842  0.2974
16808W        W35662  10.984   9.394   0.153  0.2440 -0.1860  0.3084
16809W        W35663   5.922   2.111   2.831  0.2655 -0.0565 -0.1281
16810W        W35664  15.144   6.979   3.207 -0.0055  0.0190 -0.0324
16811W        W35665  11.121   1.583  16.264 -0.1120 -0.0343 -0.1121
16812W        W35666  16.333   7.215  11.993 -0.0573  0.1361  0.0042
16813W        W35667   3.585  11.555  12.401 -0.0387 -0.2727 -0.2419
16814W        W35668   5.819   4.652  12.854 -0.2489  0.5539  0.2414
16815W        W35669   1.239  16.625   0.096  0.1325  0.0340  0.2869
16816W        W35670   7.747   8.787  13.406 -0.0594  0.1998  0.0996
16817W        W35671   9.548   8.677  14.943 -0.1531  0.0670 -0.0292
16818W        W35672   6.172   6.229   3.424 -0.1467  0.2440 -0.0166
16819W        W35673  14.549  11.133  16.186  0.0936  0.0924 -0.2262
16820W        W35674   5.518   1.218   0.095 -0.4346  0.0220 -0.3078
16821W        W35675   6.677   2.902   1.309  0.0700  0.4222 -0.0266
16822W        W35676  14.973   3.328  11.496  0.1535  0.1972  0.0729
16823W        W35677  16.039  10.989   1.217 -0.1331  0.3887  0.1165
16824W        W35678   8.646  12.310  14.326 -0.1027 -0.3214 -0.2065
16825W        W35679   5.982   4.472   1.167 -0.2569  0.1500  0.0677
16826W        W35680   1.464   6.971   0.584  0.1773 -0.0006  0.0114
16827W        W35681   9.480   1.564   2.147  0.0835  0.3740  0.0210
16828W        W35682  13.717  14.605   3.475  0.1310 -0.0618 -0.0890
16829W        W35683  11.743  16.381   2.915 -0.2534 -0.1714 -0.4082
16830W        W35684   7.946   5.131   0.086 -0.1270 -0.3163  0.0401
16831W        W35685  17.188   1.188  17.135 -0.0291 -0.2231  0.1521
16832W        W35686  16.276  16.541   4.105  0.3096  0.3048  0.1192
16833W        W35687   7.554   2.753  16.998  0.1108 -0.0976  0.0679
16834W        W35688   4.943   1.304  16.568 -0.1993  0.3701  0.1820
16835W        W35689   1.815   6.346   5.261  0.0254 -0.1015  0.0040
16836W        W35690  10.002  12.803   2.093  0.1857 -0.2115 -0.0026
16837W        W35691   0.036  11.090  16.425  0.0427  0.2172  0.0206
16838W        W35692   4.156   4.835   0.797  0.1185  0.0557 -0.1362
16839W        W35693   1.997  14.119  11.847 -0.0125 -0.0945  0.0480
16840W        W35694   3.801   2.283  15.286  0.2004 -0.1798 -0.2032
16841W        W35695   7.436   4.805  13.473 -0.0431  0.1697 -0.2566
16842W        W35696  15.630   7.581  14.201 -0.3137 -0.1217  0.0166
16843W        W35697   6.316   0.330   2.346 -0.1268  0.0506 -0.3847
16844W        W35698  12.445   9.337  16.247  0.1300 -0.2631 -0.1553
16845W        W35699   0.195   9.480   4.302  0.2417  0.2086  0.0076
16846W        W35700  13.934  10.053   6.289  0.2860  0.0082  0.2979
16847W        W35701   8.125   9.390  16.050 -0.0191 -0.1354 -0.1227
16848W        W35702  11.103   7.449  14.756 -0.3748  0.0629 -0.0044
16849W        W35703  17.272   2.280  13.927 -0.3201 -0.2407 -0.0256
16850W        W35704   8.047   7.849  16.509  0.3693  0.2953 -0.0760
16851W        W35705  16.507   4.432  16.676  0.1998 -0.4357  0.1282
16852W        W35706   6.581   4.214   2.265 -0.0838  0.1752  0.0163
16853W        W35707  10.763  12.283   2.065  0.1065  0.1660 -0.3362
16854W        W35708   2.038   5.155   0.062  0.2822 -0.0692  0.0390
16855W        W35709   2.386   0.178   3.556 -0.1175  0.0569 -0.2345
16856W        W35710  11.529   0.798   0.909  0.0611  0.3548  0.1201
16857W        W35711   0.245  13.821  14.790  0.2091 -0.0599 -0.0564
16858W        W35712   4.025   3.151   3.758 -0.1529  0.0114  0.0105
16859W        W35713  10.161   0.041   5.277  0.0468 -0.0156  0.3641
16860W        W35714   2.216  16.230   5.190 -0.1735  0.0188  0.0650
16861W        W35715  10.432   0.990   0.891  0.2096  0.0198  0.0484
16862W        W35716  11.696  14.885  16.803 -0.1047 -0.2465  0.2230
16863W        W35717  14.018  16.980   4.155 -0.0586  0.0687 -0.3029
16864W        W35718   8.936   5.016   0.323  0.0626 -0.0970  0.0676
16865W        W35719   1.883   1.027  16.768  0.1403  0.0661 -0.2214
16866W        W35720   8.273   6.074  13.627 -0.1682  0.1046  0.2332
16867W        W35721  10.828  14.432  12.836  0.2173 -0.1035 -0.2475
16868W        W35722   1.558   6.973   4.086  0.1289 -0.0168 -0.0316
16869W        W35723   8.976   8.150  16.236  0.1043 -0.0801 -0.1364
16870W        W35724   7.308  15.822  15.603 -0.1629  0.1107  0.0493
16871W        W35725  14.056  15.498  12.597  0.0220 -0.2344 -0.1002
16872W        W35726   4.949  17.496   4.661  0.1331 -0.3832  0.1716
16873W        W35727  13.766   6.203   6.042 -0.1194  0.1534  0.0126
16874W        W35728   7.629   0.742  15.504 -0.3138  0.0287  0.0439
16875W        W35729   0.902  13.154  13.740  0.0759  0.0172  0.0133
16876W        W35730  14.710  10.316   3.542 -0.0311  0.0703 -0.1156
16877W        W35731  12.253   6.258   3.218 -0.0115  0.0296 -0.1361
16878W        W35732  13.446   8.725  13.334 -0.2443 -0.3450  0.2067
16879W        W35733  11.405  10.462   3.066 -0.0332 -0.2643 -0.2736
16880W        W35734   3.706   2.808  15.875  0.0721  0.2796 -0.0174
16881W        W35735   2.555  15.446   4.529  0.1569  0.2917 -0.0192
16882W        W35736   3.950  16.100  16.328 -0.1285 -0.0608  0.1505
16883W        W35737   1.614   2.856   0.304  0.0904 -0.1433  0.0386
16884W        W35738   8.494  16.720   3.732  0.1458 -0.1581  0.2740
16885W        W35739  12.108   6.142  14.619  0.1578  0.1363  0.0191
16886W        W35740   1.868   4.447   1.824  0.2990 -0.3502  0.1226
16887W        W35741  12.929  10.167   0.609  0.2022 -0.0837  0.1148
16888W        W35742  10.993  11.540   3.099 -0.0032 -0.1563  0.3523
16889W        W35743   6.221  17.025   2.862  0.1472  0.0380 -0.2220
16890W        W35744   6.685   1.609   0.500  0.1694 -0.0480  0.0573
16891W        W35745   7.646  12.460  17.125  0.0227 -0.0868  0.1003
16892W        W35746  13.169  17.005  14.763 -0.0458  0.1926  0.1485
16893W        W35747   2.695   2.733   0.136 -0.0944  0.0824  0.1518
16894W        W35748  15.540  16.597  13.757 -0.2156  0.0679 -0.1943
16895W        W35749  13.560  10.674   4.271 -0.2408  0.1762 -0.5470
16896W        W35750  16.054   0.414   2.971 -0.1178  0.1146 -0.1196
16897W        W35751   8.560  16.650  13.536 -0.0201 -0.1450 -0.2193
16898W        W35752  14.333   1.785   1.715 -0.0776  0.0178  0.3582
16899W        W35753   2.176   6.633   1.617  0.3517 -0.1256  0.1979
16900W        W35754  12.199  16.899  13.445 -0.0883  0.2787  0.0765
16901W        W35755  13.031   7.357   1.835  0.0950 -0.0912 -0.2282
16902W        W35756   3.995   0.342  17.062  0.2580  0.3593 -0.2993
16903W        W35757   1.979   2.549   4.511  0.1601  0.0679 -0.0173
16904W        W35758   3.500  10.518   1.719  0.1687 -0.1001 -0.0856
16905W        W35759  12.604   7.248  15.811  0.2838 -0.1351 -0.3147
16906W        W35760   6.964   1.290   0.795  0.2176 -0.1393  0.1655
16907W        W35761   1.206  10.057   3.746 -0.0143 -0.2165  0.0379
16908W        W35762   2.158  12.968  14.191 -0.0917  0.2439 -0.1022
16909W        W35763   1.744  11.437   4.534 -0.0389 -0.0682 -0.0049
16910W        W35764  13.867   3.218   2.374  0.0478  0.1442 -0.1412
16911W        W35765   5.217  10.727  16.133 -0.1518  0.2555  0.0013
16912W        W35766  10.266  11.044  16.591 -0.4239 -0.4501 -0.0620
16913W        W35767   7.342  11.966  14.321 -0.0888 -0.0543  0.0376
16914W        W35768   0.206   8.900   5.137  0.1509 -0.5376  0.2168
16915W        W35769   3.480  11.252  14.103 -0.0459  0.2963  0.2079
16916W        W35770   4.332  10.941   0.437 -0.4459  0.1866  0.1569
16917W        W35771  16.454   4.256  12.563 -0.1104  0.2034  0.0813
16918W        W35772   6.595  10.041  13.417  0.1621  0.2078 -0.0677
16919W        W35773  17.141  13.453   4.513 -0.1063 -0.0655 -0.0781
16920W        W35774   7.103   6.337   2.940 -0.0948 -0.1107  0.1411
16921W        W35775   2.823  13.384   0.814 -0.3309 -0.1188 -0.0295
16922W        W35776   2.356  14.197  12.186  0.1907 -0.3087 -0.0906
16923W        W35777   1.225  15.864   5.141 -0.0458 -0.1558 -0.1919
16924W        W35778   2.455  13.917  16.802 -0.2646  0.2740  0.1683
16925W        W35779   8.197   9.173   0.059  0.2160 -0.1494 -0.3646
16926W        W35780  11.310   0.519   0.558 -0.1325  0.0492 -0.1967
16927W        W35781  13.070   6.297   1.383  0.0649 -0.0210 -0.2994
16928W        W35782   2.609  15.572   2.212  0.2614 -0.0345 -0.2465
16929W        W35783  15.857   8.502  13.592 -0.1348 -0.2700  0.1303
16930W        W35784   9.715   0.899   0.647  0.2331  0.0448 -0.0543
16931W        W35785   6.503   3.655   3.637  0.0453  0.0872 -0.1297
16932W        W35786  10.941  16.441   0.806 -0.0604 -0.5180 -0.2521
16933W        W35787  10.969   9.352  12.441  0.0502  0.0330  0.1727
16934W        W35788  13.064   8.525   0.627  0.4793  0.1428 -0.2204
16935W        W35789   1.076  12.577   5.068  0.3967  0.1664 -0.1481
16936W        W35790   1.112  16.271  12.836  0.0418 -0.0712 -0.0964
16937W        W35791   3.465  13.988  12.092  0.0794 -0.1653  0.1708
16938W        W35792   1.459  16.902   5.362  0.0784 -0.1408 -0.2861
16939W        W35793  12.959   3.032  15.055 -0.0683  0.1719  0.0352
16940W        W35794  17.434   4.192   2.556  0.1664 -0.0918 -0.1264
16941W        W35795  15.899  12.282  15.778  0.0796 -0.0330 -0.1345
16942W        W35796   5.159   9.334   1.801  0.1415 -0.0299 -0.1008
16943W        W35797   3.926   0.728  14.165 -0.2983 -0.1350  0.0002
16944W        W35798  14.261   3.299   4.282 -0.0493 -0.0215 -0.2563
16945W        W35799   4.279  11.730  13.556 -0.1091  0.2663 -0.0027
16946W        W35800  12.865   9.895  12.983 -0.1067  0.1407 -0.0057
16947W        W35801  15.875  12.698  13.857 -0.0616 -0.1364  0.0050
16948W        W35802  13.943   6.756  15.800  0.0076  0.0464 -0.0467
16949W        W35803   3.044   5.750  16.030 -0.1178 -0.2645  0.3067
16950W        W35804  15.892   0.085   2.002  0.0264  0.0138 -0.0259
16951W        W35805   8.718  14.624   2.283 -0.1197 -0.0656  0.0397
16952W        W35806  10.576  13.970   1.365 -0.2242  0.3927  0.1014
16953W        W35807   1.652   0.682   4.941 -0.1643  0.1812 -0.2416
16954W        W35808   3.129   8.950   0.092  0.1631 -0.0294  0.0387
16955W        W35809   8.361   8.782   0.920 -0.1157  0.0488 -0.1602
16956W        W35810   0.665   5.814   2.668  0.0327  0.1375 -0.1456
16957W        W35811   7.643   7.241  13.587 -0.2697 -0.0604 -0.1350
16958W        W35812   7.670   9.810  14.837 -0.0083 -0.2677 -0.0929
16959W        W35813  15.536  14.014   0.739  0.0578 -0.1846  0.0113
16960W        W35814  16.111  16.100  13.672  0.1987 -0.0678 -0.0668
16961W        W35815  12.684   6.576  14.983  0.1549 -0.1738 -0.0167
16962W        W35816  10.778   6.477  16.018 -0.2738 -0.0047  0.3462
16963W        W35817   7.018   2.526  11.225  0.1421 -0.1896  0.1993
16964W        W35818  13.439   7.061  15.270  0.1958  0.1259 -0.0166
16965W        W35819  14.252   9.726   2.133  0.0148  0.1024 -0.0926
16966W        W35820   0.085  14.504  12.465 -0.0050 -0.1974  0.2077
16967W        W35821   3.067  15.670  12.888  0.1380  0.2072  0.0748
16968W        W35822   8.514   9.617  14.794  0.2146  0.1674  0.0201
16969W        W35823   8.547   3.534   3.130  0.1630  0.0628 -0.0387
16970W        W35824   9.092  10.857  13.474 -0.1150 -0.0785  0.1602
16971W        W35825  11.057   7.490   4.736  0.1047 -0.1102  0.2309
16972W        W35826   4.068  13.929   3.714 -0.2703  0.1801 -0.0940
16973W        W35827   8.853  12.648  16.624 -0.1602  0.1530  0.2944
16974W        W35828   9.469   4.048   4.583  0.0786 -0.1457 -0.1136
16975W        W35829   8.002  10.661   4.394  0.0764  0.1929  0.0015
16976W        W35830  16.550   6.349   2.835  0.2581 -0.0970  0.0838
16977W        W35831  11.920  17.189   3.948  0.1003  0.0747 -0.1269
16978W        W35832  13.157   6.384  15.790  0.0778  0.0987 -0.1525
16979W        W35833   9.310  11.919   4.156 -0.2216 -0.0321 -0.0984
16980W        W35834  16.322   6.842   2.927 -0.0889  0.1281 -0.3350
16981W        W35835   5.657  12.901   4.657  0.2226  0.1844  0.0479
16982W        W35836  11.455  14.021  16.488  0.0428 -0.2132  0.1191
16983W        W35837  15.453   9.331  13.261 -0.1491  0.1333 -0.0425
16984W        W35838   4.320   3.326   2.016  0.0361 -0.0197  0.1519
16985W        W35839   7.095   1.010   3.860 -0.2859 -0.2150 -0.2002
16986W        W35840   3.371  11.832  16.919  0.2209  0.4384  0.1410
16987W        W35841  13.446   0.177   2.906 -0.1643  0.2256 -0.3206
16988W        W35842   1.358   7.896  13.246 -0.0696  0.2801 -0.1329
16989W        W35843  13.848   6.464   2.708  0.4266  0.1352  0.3476
16990W        W35844   6.490  16.757   3.270  0.0888  0.1381  0.1367
16991W        W35845   6.927   5.514  14.427 -0.2121 -0.0436 -0.0448
16992W        W35846   4.228  15.881  15.694 -0.5120 -0.0095 -0.0430
16993W        W35847   2.559   1.604   3.285  0.1510 -0.1625 -0.1734
16994W        W35848  13.130  16.771  12.862  0.2546 -0.2683 -0.0736
16995W        W35849  12.686   8.382   3.945  0.2198  0.1336  0.0623
16996W        W35850   1.797   5.117   2.655  0.0387 -0.1548 -0.2224
16997W        W35851   4.135   2.747  16.871 -0.0227  0.0604 -0.1535
16998W        W35852   1.179   5.667   2.077  0.1400 -0.1848  0.0435
16999W        W35853   6.477   2.588  15.436  0.1244 -0.0485  0.0111
17000W        W35854   6.783   5.470   0.821 -0.1231  0.1789  0.1728
17001W        W35855  11.145   1.319  15.244 -0.0206  0.0375  0.2152
17002W        W35856   5.640   3.304  14.046  0.0940 -0.1291 -0.1812
17003W        W35857   3.489  16.279  16.525  0.0191  0.0694 -0.2298
17004W        W35858   2.759  14.212   0.254 -0.0648  0.3348  0.1397
17005W        W35859   2.633   5.928  17.099 -0.2441 -0.0932 -0.1133
17006W        W35860  17.338  14.821   1.550  0.1848 -0.1100 -0.1399
17007W        W35861  13.423  10.410   3.885  0.0235  0.1931 -0.0093
17008W        W35862  15.769   5.204   4.432  0.2052  0.1926  0.0382
17009W        W35863  13.239  15.446  11.769  0.1189  0.1077  0.1675
17010W        W35864   0.738  16.858  14.914  0.0141 -0.2255 -0.1330
17011W        W35865  17.084  14.003  17.040 -0.2226 -0.1305 -0.1171
17012W        W35866   9.077  10.900   1.074 -0.1699  0.4278  0.0271
17013W        W35867   2.521   8.161   0.698  0.1922 -0.2213  0.0389
17014W        W35868  16.903   8.295   1.172  0.1567 -0.0344 -0.2566
17015W        W35869   3.357   4.101  14.224 -0.3825  0.1220  0.0084
17016W        W35870  14.992  17.245  13.455  0.1926 -0.0974  0.3741
17017W        W35871   9.469   2.656   0.631 -0.3294 -0.2095 -0.1195
17018W        W35872   9.478   1.791   0.205 -0.1650  0.2298 -0.0183
17019W        W35873   4.111   9.648   0.659  0.1828  0.0215  0.2260
17020W        W35874   6.164   6.756  12.236 -0.1178  0.1315  0.4205
17021W        W35875   5.062  12.490   2.052 -0.1598  0.0875  0.2116
17022W        W35876  13.353   0.012   2.262 -0.0462  0.2779 -0.2966
17023W        W35877   4.363   8.958  13.741 -0.3476  0.0618  0.1238
17024W        W35878  16.867  10.677   0.855 -0.0094  0.1372 -0.2155
17025W        W35879   8.556   5.671  13.739 -0.1386  0.3834  0.2611
17026W        W35880   1.709   6.413  16.171 -0.0712  0.0777 -0.3698
17027W        W35881  16.703  15.075  15.464 -0.0223 -0.1243 -0.1820
17028W        W35882  16.726   8.862   3.976  0.1010 -0.1557 -0.1846
17029W        W35883  17.283  14.928   4.905 -0.0095 -0.2647  0.0311
17030W        W35884  17.113   4.630  11.567  0.2017  0.3151  0.0760
17031W        W35885   5.020  13.226  16.664  0.1425 -0.0294  0.1886
17032W        W35886   0.207   7.699   4.808 -0.2526  0.0877 -0.3631
17033W        W35887   0.753   7.233   3.988  0.3473 -0.1528  0.0907
17034W        W35888  16.631  12.212   0.574  0.0984 -0.2253 -0.3310
17035W        W35889   0.674   8.803   4.939  0.1401 -0.0077 -0.0027
17036W        W35890   7.736   9.915   3.977 -0.1460 -0.1262 -0.2664
17037W        W35891   4.437  13.958   3.129  0.2407  0.2084 -0.0796
17038W        W35892  14.790  11.336  14.709  0.1303 -0.0849 -0.0775
17039W        W35893   8.573   1.735  14.791 -0.2540  0.0305 -0.3230
17040W        W35894  12.961   0.541  15.999 -0.0218  0.0368 -0.2375
17041W        W35895   6.945  12.122  12.666  0.3091 -0.1322  0.3534
17042W        W35896   5.376   9.242   0.963  0.0295 -0.1643 -0.1542
17043W        W35897   2.150   0.307   6.234 -0.4202  0.1806 -0.1193
17044W        W35898   2.622   0.239  12.235 -0.0347  0.2042  0.0833
17045W        W35899   1.614  10.211   0.651 -0.3995  0.2655  0.2941
17046W        W35900   5.221   3.586  14.780 -0.0159  0.3081 -0.0777
17047W        W35901  17.003   3.896   0.710  0.0300  0.0223 -0.2325
17048W        W35902  13.084  15.710   2.367  0.1788  0.0205  0.2959
17049W        W35903   7.547   9.467  15.145  0.0178 -0.0493  0.0226
17050W        W35904  17.312   1.091  12.722  0.0456 -0.0596 -0.0350
17051W        W35905   9.769  15.677  15.667 -0.5618  0.4432 -0.0677
17052W        W35906  11.803   0.960   3.452 -0.0941 -0.0618  0.1434
17053W        W35907  10.022  13.522  13.016  0.0796  0.0421 -0.4148
17054W        W35908  10.499  14.032  14.427  0.1279 -0.2203 -0.0327
17055W        W35909   2.773   6.294  11.746 -0.2926  0.1512 -0.2391
17056W        W35910   4.834   8.881   1.629  0.2436 -0.1472 -0.0417
17057W        W35911   2.127   8.463  15.591  0.3241 -0.3052 -0.0970
17058W        W35912   5.756   8.577   2.711 -0.2097  0.1699 -0.0576
17059W        W35913   5.616  11.116  17.082  0.2046 -0.0133 -0.1785
17060W        W35914  14.025   8.716  12.745  0.0934 -0.2517 -0.0247
17061W        W35915   2.201  12.570  16.593 -0.1304  0.2519 -0.1699
17062W        W35916  11.497  15.013  12.551  0.0312 -0.1642  0.0124
17063W        W35917   0.066  10.307   2.269 -0.2689 -0.1350  0.0569
17064W        W35918   8.211   4.896   2.680  0.0483 -0.0580  0.1552
17065W        W35919   7.954  15.428   1.465  0.1083 -0.0497 -0.1666
17066W        W35920   2.009  11.262  15.748 -0.3811  0.0585 -0.1219
17067W        W35921   9.805   7.181   4.855  0.0111  0.0728  0.0065
17068W        W35922   9.371   6.110  12.015 -0.0159  0.1596 -0.1175
17069W        W35923   3.236   8.819   0.748  0.3014  0.1211 -0.2154
17070W        W35924   3.652  12.878  15.476  0.0659 -0.0786  0.0353
17071W        W35925   0.648  11.134  14.417  0.0139 -0.1857  0.1772
17072W        W35926   8.237   9.499  16.683  0.1968  0.2316 -0.1938
17073W        W35927   9.892   5.799  13.199  0.1165 -0.2675 -0.0831
17074W        W35928  10.135  13.817   4.151  0.2719 -0.0381  0.0137
17075W        W35929   8.413   6.045  12.385  0.1308 -0.0212  0.0701
17076W        W35930  11.730   2.565   3.880  0.0587 -0.1975 -0.0126
17077W        W35931   1.517   1.830   0.910  0.2321  0.4569  0.0972
17078W        W35932   7.473  17.124  16.635 -0.1075  0.0025 -0.3087
17079W        W35933   1.111   0.220  12.185 -0.0983  0.3093  0.1784
17080W        W35934   7.948   6.653  13.268 -0.1263 -0.0327 -0.0509
17081W        W35935   2.001  13.023  16.622  0.2551 -0.1034 -0.1232
17082W        W35936   1.886  15.538  16.931 -0.2445 -0.0032 -0.3700
17083W        W35937  11.444   5.912   2.927 -0.0876  0.2268 -0.0617
17084W        W35938  14.171  12.514   4.496 -0.2151  0.0291  0.3392
17085W        W35939  12.388   5.639   4.722 -0.2385 -0.0594  0.1238
17086W        W35940  12.368   8.821  12.607  0.1380 -0.2527 -0.4787
17087W        W35941   9.375  12.779   3.766 -0.0426  0.1526  0.1513
17088W        W35942   3.788   1.180   1.038  0.1377 -0.2206  0.1558
17089W        W35943  13.587   7.440  16.983 -0.0021 -0.1673 -0.0385
17090W        W35944   3.275   0.041  13.170 -0.1851 -0.1839  0.2076
17091W        W35945  14.082   6.043   2.461 -0.1588  0.1791  0.3204
17092W        W35946   0.695  16.244  13.080 -0.1342  0.0787 -0.1225
17093W        W35947  15.882   5.142   0.024 -0.1740 -0.2925 -0.0479
17094W        W35948  17.413   7.299   1.100  0.1464  0.1172 -0.2399
17095W        W35949   6.773   6.241  13.318 -0.5224 -0.0667  0.0470
17096W        W35950   4.000   2.090   3.775  0.0723  0.0076  0.0374
17097W        W35951  11.271   5.047   3.264  0.1098  0.0661 -0.0208
17098W        W35952  11.960  14.323  13.661  0.1187 -0.2584 -0.0543
17099W        W35953  15.291   0.895  16.238 -0.3570 -0.0604 -0.0226
17100W        W35954   5.464  14.445   3.109  0.0775 -0.2401 -0.0705
17101W        W35955   3.363  17.289  17.034 -0.1469  0.2496 -0.1105
17102W        W35956   6.116   6.560  13.264  0.1353  0.0650  0.4476
17103W        W35957  13.030   1.565   4.733 -0.0154 -0.0380  0.1380
17104W        W35958  13.934   3.507  14.725 -0.0476 -0.0377  0.4098
17105W        W35959  15.220  12.356   2.661  0.1362 -0.2878 -0.0287
17106W        W35960  10.633   7.189  14.794 -0.2282 -0.0486  0.0508
17107W        W35961  15.258   6.299  16.048 -0.0546  0.4575 -0.2101
17108W        W35962   7.101  13.163  14.128 -0.1593 -0.0348 -0.0421
17109W        W35963  13.069   1.145  16.492  0.0454  0.2652  0.0998
17110W        W35964   4.237  15.573   5.014  0.3501 -0.1983  0.1268
17111W        W35965   7.416   5.967   2.408 -0.1194  0.2380  0.0344
17112W        W35966  10.927  16.362  16.842  0.0255 -0.0002 -0.0297
17113W        W35967   9.546   5.338   2.985 -0.0572  0.3290  0.2773
17114W        W35968   7.892   8.746   1.782 -0.0757 -0.1808  0.0602
17115W        W35969  12.528  11.628  15.888  0.2055  0.5539 -0.0622
17116W        W35970   9.646   4.678   0.586 -0.0321 -0.1595 -0.0993
17117W        W35971  13.198  14.670  12.374 -0.0847 -0.2035  0.1147
17118W        W35972   9.428  14.271  13.058  0.0533 -0.1260  0.2644
17119W        W35973   0.208   9.215   3.337 -0.2772  0.1225 -0.0314
17120W        W35974  17.245  12.249  12.587  0.2116 -0.1723 -0.2932
17121W        W35975   2.487  12.329   5.056  0.2697  0.2218 -0.1715
17122W        W35976   7.132  17.388  12.555 -0.1811 -0.2292 -0.1085
17123W        W35977   1.536  15.467   0.781  0.1336  0.0482  0.0599
17124W        W35978  12.495  13.516  17.215 -0.2307  0.0571 -0.0240
17125W        W35979   4.890   2.154  12.640  0.0621 -0.1775  0.1210
17126W        W35980   1.465   1.898  12.673 -0.1291 -0.0860 -0.1902
17127W        W35981   7.863  12.650  11.984  0.1919  0.0558 -0.1698
17128W        W35982  14.354  12.493   2.015  0.0603  0.2096  0.3371
17129W        W35983   2.717  11.430  13.845  0.1104  0.1455  0.0681
17130W        W35984   6.935  11.250  16.978  0.2611 -0.0358 -0.0072
17131W        W35985   1.062   6.132   0.714 -0.0080 -0.1531  0.1001
17132W        W35986   2.971  14.638  14.683  0.1714  0.1279 -0.0419
17133W        W35987   8.004   8.061  13.888  0.2322  0.1937  0.1064
17134W        W35988  17.275   7.376   0.135 -0.1918  0.2339 -0.0548
17135W        W35989   1.433  14.217  15.438  0.0680  0.2630  0.1382
17136W        W35990  13.700   6.696   2.237  0.0609 -0.3991 -0.1858
17137W        W35991   6.578  13.065  14.289 -0.2957  0.0086  0.0793
17138W        W35992   0.829  14.519  14.784 -0.3297 -0.0586 -0.0330
17139W        W35993   4.026  16.057  11.891 -0.4282  0.1428 -0.0804
17140W        W35994   0.360   8.356  13.908 -0.2953 -0.0143 -0.2029
17141W        W35995  17.215   1.762  15.392 -0.1332  0.0323 -0.0656
17142W        W35996   1.336  14.227   0.663  0.3381 -0.1994 -0.0473
17143W        W35997   4.898   9.510  14.775  0.1757 -0.1012  0.1253
17144W        W35998   5.123   4.058   5.013 -0.0429 -0.0528  0.0245
17145W        W35999   5.062   1.620  16.950  0.3275 -0.2067 -0.1533
17146W        W36000   3.524   1.012  14.239  0.1650 -0.1188 -0.2811
17147W        W36001  14.509   8.517  14.301 -0.0901 -0.1124  0.1420
17148W        W36002   1.439   3.432   3.897  0.1346 -0.1471 -0.1930
17149W        W36003   3.690   2.696   1.404 -0.0176 -0.4081  0.2326
17150W        W36004  15.961   3.707  11.575  0.2060 -0.2093 -0.3273
17151W        W36005  16.746   7.046  11.671 -0.1238  0.3445 -0.3029
17152W        W36006   4.567   7.508  17.240 -0.0968 -0.6833  0.0818
17153W        W36007  15.068   8.455  16.676 -0.0099 -0.3903  0.1623
17154W        W36008  10.588  13.944  16.235  0.2334 -0.0977 -0.0556
17155W        W36009   3.337  17.293   1.611 -0.1854 -0.0884  0.2145
17156W        W36010   5.546  17.311   1.913  0.3045 -0.0397 -0.2992
17157W        W36011  12.326  12.393  14.727 -0.4089 -0.0526 -0.1680
17158W        W36012   4.741   0.801   3.246  0.1974 -0.2385 -0.0830
17159W        W36013   5.203   4.439   2.721  0.1654 -0.0720  0.0526
17160W        W36014   6.736  12.402   4.343  0.0582 -0.1976  0.0384
17161W        W36015  11.317   8.297   5.337 -0.0145 -0.0520  0.0805
17162W        W36016   0.048  15.866   3.748 -0.1317  0.4059 -0.2071
17163W        W36017  11.190   5.142  15.949  0.1884 -0.0350  0.0422
17164W        W36018   6.201   7.052   2.656 -0.2607 -0.0179  0.0066
17165W        W36019  14.633  12.905  14.219 -0.0751 -0.1449  0.1298
17166W        W36020  14.966   6.974   0.974  0.3284  0.0261 -0.2061
17167W        W36021  11.329  16.096   0.679 -0.0804 -0.0318 -0.0441
17168W        W36022   2.753  11.822   0.369  0.1299 -0.1666  0.1568
17169W        W36023   2.562   8.047  13.022  0.4281 -0.2186  0.0525
17170W        W36024   1.769  10.428  14.123 -0.1418 -0.0346 -0.2012
17171W        W36025  10.010   9.641  16.558  0.0887  0.0027 -0.0532
17172W        W36026  12.113  11.294  16.781  0.0519  0.1950 -0.0289
17173W        W36027  16.637   5.720  12.043  0.1409 -0.2617  0.1223
17174W        W36028   0.013  14.632  16.246 -0.1016 -0.1492 -0.0727
17175W        W36029   4.767   7.347  12.842  0.2920 -0.1948 -0.2621
17176W        W36030  10.234   7.278   1.454 -0.1603 -0.0991  0.0696
17177W        W36031  10.543  13.514   0.904  0.0545 -0.0224  0.1696
17178W        W36032   8.199  11.891  14.829 -0.3267 -0.3175  0.2022
17179W        W36033  15.843  11.783   5.015 -0.1243 -0.2755  0.2559
17180W        W36034  11.515   0.642   2.269  0.1255 -0.0262 -0.0706
17181W        W36035   1.527   4.952   0.057  0.3946  0.1817  0.1289
17182W        W36036   8.382  11.938   4.517  0.0134 -0.3073  0.0999
17183W        W36037  11.094  17.293   2.109  0.2797  0.0540 -0.1355
17184W        W36038  15.887  11.986   3.919  0.1812 -0.1275 -0.0422
17185W        W36039   5.635  16.065   4.343 -0.0915 -0.1354  0.1389
17186W        W36040   2.602  12.838   5.300 -0.0275  0.0472  0.2440
17187W        W36041   2.779  13.787  17.218 -0.2099 -0.0650 -0.0090
17188W        W36042   4.057   7.761   5.121  0.1704 -0.1147 -0.2173
17189W        W36043  11.849  14.654  12.409  0.3086  0.1757 -0.1388
17190W        W36044  16.690  15.574   2.415  0.1249 -0.0791  0.0567
17191W        W36045   7.285   0.667  14.995  0.4160 -0.0041 -0.1425
17192W        W36046   8.795   7.080  14.677 -0.0735  0.0499 -0.1061
17193W        W36047   6.974   3.522   1.100  0.2553  0.1473  0.1255
17194W        W36048  11.186  10.046   2.309  0.4683 -0.0121  0.0923
17195W        W36049   6.020   3.301  12.286 -0.1621 -0.1420  0.0590
17196W        W36050   8.531   5.803  17.141 -0.3398  0.2805  0.1475
17197W        W36051   4.188   1.350   2.615  0.0935 -0.0158 -0.4219
17198W        W36052  16.127   0.813   0.813 -0.1660 -0.2216  0.0174
17199W        W36053   0.135   9.598   2.930 -0.0120 -0.0902  0.0826
17200W        W36054   2.388  14.303  17.107 -0.3217  0.1846 -0.2852
17201W        W36055  12.026  11.779   3.934  0.0863  0.1920 -0.0529
17202W        W36056   0.599   5.477   4.724  0.1134  0.1019  0.0519
17203W        W36057   8.616  13.736   2.976  0.0631 -0.0238 -0.0624
17204W        W36058  11.545   7.038  16.137 -0.0875  0.3413  0.0105
17205W        W36059   9.097   6.714   1.460 -0.2204  0.3070  0.1340
17206W        W36060   9.688  10.566   1.578 -0.7777 -0.0014  0.3967
17207W        W36061   6.687  14.344  16.016 -0.3549 -0.4063  0.2102
17208W        W36062  15.871  15.139   0.116 -0.2539  0.0776 -0.0171
17209W        W36063  12.837   5.003   4.092  0.2479  0.0090 -0.0307
17210W        W36064   7.979   7.342   0.029 -0.1272 -0.0543 -0.2927
17211W        W36065   3.879   1.634   0.132  0.0098  0.0373  0.0606
17212W        W36066   0.642   2.090  12.222  0.0243 -0.2658  0.0670
17213W        W36067   7.839  15.954   4.822  0.2231  0.1542 -0.0594
17214W        W36068   8.506  12.127   2.848 -0.0934  0.0395  0.2090
17215W        W36069  14.789   8.588   4.971 -0.1776 -0.1340  0.2346
17216W        W36070  15.883   5.898   2.126 -0.0979  0.0615  0.1306
17217W        W36071   8.646   4.230  11.929 -0.2242  0.0883 -0.0105
17218W        W36072   6.650  12.141  14.199  0.1398  0.2101  0.1508
17219W        W36073   6.218  12.675  13.169  0.0728  0.4290  0.3204
17220W        W36074  13.364  12.279  12.417  0.2320  0.1227  0.1000
17221W        W36075  12.412  17.137  14.020 -0.2568  0.2933  0.1138
17222W        W36076   9.474   6.065  14.158 -0.1682 -0.0962 -0.2860
17223W        W36077   9.942  11.336   2.586  0.1088 -0.1322  0.2327
17224W        W36078   8.038  16.974  12.777 -0.2151  0.2771 -0.3705
17225W        W36079   0.617   6.817   0.147  0.1101 -0.0927  0.4686
17226W        W36080   3.861   2.485  12.670  0.1796  0.0853 -0.1428
17227W        W36081   5.021   4.397  14.017  0.0667 -0.0997 -0.0234
17228W        W36082  17.304   8.414   4.545 -0.2714 -0.2133 -0.3813
17229W        W36083   3.100   0.553  11.795 -0.1572 -0.1836 -0.0612
17230W        W36084  13.332  16.447   0.821  0.0018  0.3639  0.0675
17231W        W36085   7.914   5.014   1.493 -0.3883  0.0743 -0.1735
17232W        W36086   4.092   7.120   4.239  0.2154 -0.2703 -0.1047
17233W        W36087   9.376   4.507   1.301  0.2516 -0.1584 -0.0990
17234W        W36088  14.713  15.167   2.791  0.4459 -0.0525 -0.0810
17235W        W36089  15.148  17.087   2.411 -0.0551  0.1845  0.0279
17236W        W36090   7.244  15.808  14.644  0.1177  0.0169 -0.1317
17237W        W36091  15.273   0.689  14.868 -0.2717 -0.1207 -0.1732
17238W        W36092   9.393  14.352   4.874 -0.0455  0.0036  0.2248
17239W        W36093   2.712  11.565  14.397  0.0479  0.0115 -0.2600
17240W        W36094  11.459   1.113  13.034 -0.2354  0.1036 -0.1675
17241W        W36095   3.833   6.263  16.289 -0.0515 -0.0324  0.2284
17242W        W36096   7.405  14.797   3.749 -0.0467 -0.1467  0.1550
17243W        W36097   8.432   9.982  17.199 -0.1142 -0.2589  0.3806
17244W        W36098   4.644  12.275   0.287 -0.0026 -0.1604 -0.2406
17245W        W36099  14.347   2.644   2.887  0.0305  0.2140  0.3997
17246W        W36100   5.280   7.072   0.937 -0.0865  0.1691 -0.1650
17247W        W36101  10.927   3.051   1.809  0.0952 -0.0786  0.2244
17248W        W36102   4.626  17.377   4.196 -0.3595 -0.2194  0.1555
17249W        W36103   6.273   5.012  14.676 -0.2808 -0.1444 -0.0298
17250W        W36104   7.555   6.194  16.965 -0.1680 -0.1416  0.1567
17251W        W36105  15.069   7.684  14.420 -0.3053 -0.0047  0.2027
17252W        W36106   4.849  12.820  16.949 -0.2195 -0.1192 -0.0626
17253W        W36107   8.025   9.918  16.770 -0.0045 -0.1073 -0.3321
17254W        W36108  12.006  12.042  12.241 -0.1550  0.2995 -0.5221
17255W        W36109   5.869  14.779   5.157  0.1056  0.3502  0.3321
17256W        W36110   4.585   2.319   0.259  0.1044  0.3372  0.0555
17257W        W36111   7.795  16.070   4.319 -0.2263  0.0750 -0.0191
17258W        W36112   3.275  11.782   0.123  0.3061  0.0516 -0.0931
17259W        W36113   4.432  13.847  13.978 -0.1519 -0.1330  0.3303
17260W        W36114  10.045   8.206   3.911 -0.0529 -0.0192  0.1223
17261W        W36115   8.726   5.666   3.199 -0.3810 -0.3961 -0.0475
17262W        W36116   1.458   6.834  11.424 -0.0733 -0.1308 -0.2440
17263W        W36117  11.198  14.105  13.025  0.0276 -0.2395  0.0090
17264W        W36118   3.212   2.587   1.021  0.1497  0.2864 -0.1783
17265W        W36119   1.714  16.889  12.672  0.1149  0.1176  0.2660
17266W        W36120   5.121   1.545  15.049 -0.0448 -0.1254  0.3745
17267W        W36121   6.472  11.473   3.168  0.0081 -0.1880  0.1393
17268W        W36122  15.097  10.823   5.012 -0.1692 -0.0379 -0.0416
17269W        W36123   3.265  11.817   1.802  0.0405 -0.0986  0.0786
17270W        W36124   4.759   2.420  13.535  0.1469 -0.0323 -0.2730
17271W        W36125   9.311   3.295  12.872 -0.3949  0.0906 -0.0885
17272W        W36126  11.063  10.999  12.509  0.0332 -0.0005  0.1706
17273W        W36127   1.587   1.712  13.152 -0.1818  0.3386  0.0339
17274W        W36128  10.446   4.070  14.153 -0.3663 -0.0159  0.1671
17275W        W36129   1.240   1.444  14.184 -0.1409  0.3464 -0.0385
17276W        W36130  13.281   2.551   1.878 -0.5588 -0.0602 -0.0496
17277W        W36131   1.308  12.825  15.439  0.1095  0.0691 -0.2495
17278W        W36132   0.288  16.583   4.829 -0.0974  0.2426  0.1501
17279W        W36133  10.369   9.675  15.768 -0.0029 -0.1704  0.2517
17280W        W36134  13.311   4.880   2.390  0.0080 -0.3482  0.0916
17281W        W36135  12.013  10.786   1.497 -0.6527  0.2416 -0.0375
17282W        W36136   1.150   6.031  14.976  0.3958  0.0791  0.5475
17283W        W36137   0.728   9.401  14.210 -0.3253 -0.1890  0.4203
17284W        W36138  13.435   1.436  13.543 -0.3330  0.3064 -0.0177
17285W        W36139   5.221   9.658   4.118  0.1778  0.0052 -0.2094
17286W        W36140  13.972   8.455   3.982  0.2592 -0.1401  0.0796
17287W        W36141  13.874  16.760  16.998  0.0533  0.1437  0.0208
17288W        W36142  10.851   4.379  13.303 -0.1207 -0.0296 -0.2024
17289W        W36143  16.490   6.424   0.761 -0.6025 -0.3661  0.0768
17290W        W36144   1.579   0.801  14.276  0.6406  0.1440  0.3484
17291W        W36145  10.796   9.283   2.363  0.0512 -0.0435 -0.0749
17292W        W36146  13.900   7.981   3.235 -0.0607  0.0916 -0.2002
17293W        W36147   8.433  16.244  13.282 -0.1357  0.0691  0.0309
17294W        W36148  15.164  16.117  17.057 -0.0351  0.0759 -0.0808
17295W        W36149  11.654   4.019  11.724 -0.3237  0.0588 -0.0921
17296W        W36150   5.650   8.516  13.881  0.1574 -0.0134  0.3449
17297W        W36151   2.554  11.760  12.879  0.2940  0.0590  0.0724
17298W        W36152  12.584  14.417  17.244 -0.1323 -0.3045  0.1853
17299W        W36153   2.868  15.475  13.568 -0.0209 -0.0198 -0.1026
17300W        W36154   6.080  10.721  16.100  0.0468 -0.2526 -0.2130
17301W        W36155  12.646   0.901  13.679 -0.0918  0.1968 -0.2303
17302W        W36156   2.299  13.454   4.742  0.1079 -0.0961 -0.0867
17303W        W36157   2.189  14.913  15.061 -0.3331 -0.1899  0.1569
17304W        W36158  12.879  16.241   2.254  0.4813 -0.1309 -0.2507
17305W        W36159  14.278  15.040   3.207  0.1084  0.0949 -0.0557
17306W        W36160   0.650  10.017   3.626  0.2109  0.1347 -0.0052
17307W        W36161  13.845   3.459  13.451 -0.1441 -0.3133 -0.1222
17308W        W36162   5.062   5.000  14.697 -0.2829  0.1960 -0.0602
17309W        W36163   0.399   3.397  13.444 -0.0034  0.0266 -0.1780
17310W        W36164   4.885  10.691   2.007 -0.0315 -0.3637  0.1913
17311W        W36165  14.539  10.037  15.413 -0.0456  0.0115  0.0579
17312W        W36166   8.567  12.272  14.800  0.4781  0.2363 -0.2991
17313W        W36167   2.415  15.684   0.490 -0.2200  0.1307  0.0025
17314W        W36168  10.326   3.174   1.245 -0.1992 -0.1592 -0.1186
17315W        W36169  17.010  14.031  12.377  0.2370  0.2040 -0.2211
17316W        W36170  14.177   5.100  16.266  0.0263  0.1572  0.1244
17317W        W36171  17.236  16.668   2.306  0.0691  0.0769 -0.0960
17318W        W36172   6.999   1.412   5.034  0.1347 -0.1275 -0.2134
17319W        W36173  16.478   3.257   1.149 -0.0828  0.0507 -0.0086
17320W        W36174  14.400  11.324  13.506  0.3014  0.1075  0.6454
17321W        W36175   0.540   2.820  13.005 -0.2623 -0.2153 -0.2556
17322W        W36176  11.716  14.236   4.781 -0.2323  0.4911 -0.2208
17323W        W36177  16.864  14.963  12.276 -0.3762  0.0112 -0.0650
17324W        W36178   1.871   2.333   2.191  0.3542  0.3173 -0.0178
17325W        W36179  17.295   2.746  13.701 -0.0548  0.0201  0.1321
17326W        W36180   9.508  13.141   1.928  0.2007  0.0986  0.3393
17327W        W36181   3.451   3.256   5.719 -0.0163 -0.2608  0.2664
17328W        W36182  13.394  16.771   2.927  0.0387 -0.0443  0.1422
17329W        W36183   0.186   5.249  14.115  0.2048 -0.2582 -0.0043
17330W        W36184  10.957   2.676   3.510 -0.1028  0.4305  0.0710
17331W        W36185   6.360  14.327  12.395  0.0097 -0.3301  0.1400
17332W        W36186  17.498   0.497   2.151 -0.2127  0.4438  0.3515
17333W        W36187  13.960   1.537   1.365 -0.2102 -0.3060  0.0696
17334W        W36188   8.843  13.010  15.004 -0.0464  0.4858  0.3091
17335W        W36189  10.141  15.104  13.077  0.0647 -0.1841 -0.0245
17336W        W36190  15.830   2.931  12.110  0.1884  0.2344 -0.1950
17337W        W36191  13.514   8.579   3.696  0.1357  0.1419 -0.0644
17338W        W36192  13.006   1.191  15.982 -0.1903  0.1443  0.2189
17339W        W36193  10.458  14.162   1.841  0.1083 -0.3812 -0.1190
17340W        W36194   7.683  11.507  14.381  0.3076 -0.2930 -0.0227
17341W        W36195  15.712   5.124   2.360  0.0334 -0.0607  0.0346
17342W        W36196   2.612  14.883  16.477 -0.1881  0.1793 -0.0296
17343W        W36197   0.977   4.258   4.443 -0.2689 -0.0116  0.0046
17344W        W36198   9.197   9.769  13.892 -0.0430 -0.1087  0.3237
17345W        W36199   5.702  10.069  13.809 -0.1454  0.1598  0.2094
17346W        W36200   2.494   4.024  17.149 -0.0544 -0.0734 -0.1499
17347W        W36201   2.701   0.270  17.048  0.1597 -0.1929 -0.0528
17348W        W36202  12.691   6.449  15.474  0.0509  0.0819  0.1929
17349W        W36203  11.279  15.942  15.276 -0.0207  0.2209  0.1032
17350W        W36204   1.380   2.744  16.789 -0.0436 -0.1531  0.1453
17351W        W36205   6.179   7.575   0.817  0.0660  0.0377  0.1695
17352W        W36206  14.526  14.584   3.994  0.3399 -0.2703  0.1751
17353W        W36207   4.873  11.621  12.448  0.0154 -0.2261  0.2193
17354W        W36208   9.656   4.263  15.411  0.0738  0.0069  0.1146
17355W        W36209  15.515   3.222   5.187 -0.0378 -0.2065 -0.2100
17356W        W36210  13.377   8.640   4.274 -0.0272  0.0020  0.2090
17357W        W36211  12.342  15.153  13.056 -0.0139 -0.0506 -0.1413
17358W        W36212   9.812  14.939  15.951  0.0219 -0.1633 -0.0411
17359W        W36213   3.761   0.639   3.709  0.1762 -0.1866 -0.0387
17360W        W36214   7.843   8.672   3.624  0.1866  0.1344  0.2040
17361W        W36215   4.215   5.648  12.514  0.2403 -0.2252  0.0654
17362W        W36216  14.257   7.259   4.203  0.3083  0.0121 -0.1054
17363W        W36217  13.732   6.510   5.631 -0.1844  0.1188  0.1146
17364W        W36218   8.192  16.229   0.228 -0.3117  0.0353 -0.1442
17365W        W36219  15.751  12.645  16.822 -0.0526 -0.1605 -0.0765
17366W        W36220  11.184   2.290   4.651  0.2160  0.1108  0.1471
17367W        W36221  17.035  11.736   1.903 -0.2317 -0.1645 -0.0287
17368W        W36222  15.755  12.771  15.485  0.1550 -0.1402 -0.3892
17369W        W36223   4.764   8.187  15.202 -0.3582  0.0621  0.1699
17370W        W36224   9.223  14.690   2.048 -0.0651 -0.0485  0.2303
17371W        W36225   6.836   7.976  16.876 -0.1839  0.1371  0.1241
17372W        W36226  11.913  11.052   1.946 -0.2390  0.0315 -0.1530
17373W        W36227  11.159  11.722   0.899  0.1174 -0.1752 -0.0070
17374W        W36228  15.921  17.162  13.348  0.0271  0.1755  0.1147
17375W        W36229   2.024   3.164  10.862 -0.0096  0.3205  0.1275
17376W        W36230   3.311  11.373  15.378 -0.1520  0.2447  0.0379
17377W        W36231   0.268  15.920   2.530  0.0228 -0.0227 -0.0708
17378W        W36232  10.065  13.049   4.848  0.0718 -0.1017  0.0765
17379W        W36233   3.721   2.679   3.050 -0.0252 -0.0205 -0.1737
17380W        W36234   2.555   9.382  12.147 -0.0840 -0.1402  0.1398
17381W        W36235  16.479  11.873   1.088 -0.1363 -0.1224 -0.0124
17382W        W36236   3.163   8.403   4.892 -0.0759 -0.1788 -0.0064
17383W        W36237   4.407   5.458  16.697 -0.0724 -0.2985  0.0173
17384W        W36238   7.457   6.147  15.560  0.2049  0.1075  0.1598
17385W        W36239   0.795   1.959  12.765  0.0648 -0.1083 -0.0381
17386W        W36240  15.981  10.444   0.389 -0.0191  0.0969  0.0555
17387W        W36241   2.738   5.380  15.210 -0.3020  0.0425 -0.0820
17388W        W36242  10.725   4.241   1.337 -0.0246 -0.0745  0.1776
17389W        W36243  11.540  12.564  15.995 -0.0663 -0.2024 -0.0773
17390W        W36244  11.747   6.254   2.709 -0.2216 -0.0333  0.0705
17391W        W36245   7.393  12.435  16.497  0.1147  0.2003 -0.0775
17392W        W36246   9.099   6.160  12.494  0.0924  0.3717  0.0242
17393W        W36247  15.022  10.447  16.523  0.1830 -0.0117  0.3398
17394W        W36248   0.823  14.724  15.277 -0.0815 -0.2567 -0.5245
17395W        W36249  14.575  16.836   0.060 -0.0317  0.0411 -0.2209
17396W        W36250   7.541  17.405  13.717 -0.1440 -0.0594  0.1151
17397W        W36251   2.078   0.189  12.329  0.0281 -0.1791 -0.0802
17398W        W36252   9.124   9.415   1.225 -0.0598 -0.1345  0.0362
17399W        W36253   9.120  16.833  13.620  0.0357 -0.6200  0.1273
17400W        W36254   7.602  15.535   3.590 -0.0347  0.0951 -0.2696
17401W        W36255  10.738   0.025  13.220 -0.0635 -0.1063  0.0321
17402W        W36256  15.417   7.090   2.456  0.0031 -0.0963  0.2473
17403W        W36257   5.221  13.907   1.944 -0.1458 -0.2108 -0.0748
17404W        W36258  13.575  15.861   3.564  0.1029  0.6176  0.1189
17405W        W36259   9.594   5.900  16.416  0.0657  0.2188  0.1171
17406W        W36260   3.219   8.217  13.782  0.0171  0.4298 -0.1190
17407W        W36261  12.560   7.683  14.238 -0.0582 -0.1220 -0.2249
17408W        W36262   2.718   3.446   0.603 -0.1530 -0.0654  0.0057
17409W        W36263  12.685   1.799   4.410  0.0941  0.0174  0.0271
17410W        W36264  11.400  16.044   0.187  0.0843 -0.2657  0.4030
17411W        W36265   1.879   4.586  17.209  0.3553 -0.0315 -0.0408
17412W        W36266  16.314  17.560   1.643  0.2327  0.0581  0.1357
17413W        W36267  11.709   3.096   3.055 -0.5842 -0.0818  0.0301
17414W        W36268  10.962  13.277   3.259 -0.0756  0.0485 -0.1741
17415W        W36269  12.474   7.624   0.346  0.0698  0.3168  0.0358
17416W        W36270   0.387  11.602  15.127  0.0381 -0.2072  0.0812
17417W        W36271   0.017  10.822   0.355  0.1844  0.0656 -0.0249
17418W        W36272   8.307   3.927   2.970  0.1015  0.2394 -0.1005
17419W        W36273   7.444   9.913  15.432 -0.1871 -0.1606  0.2185
17420W        W36274   9.640  16.535   0.220 -0.0665 -0.1409  0.3454
17421W        W36275   7.707  12.549   2.877 -0.1229  0.1034 -0.0082
17422W        W36276   5.192   9.885  13.002  0.0365  0.2098  0.0115
17423W        W36277  16.016  12.381  15.307 -0.2313  0.3441  0.0222
17424W        W36278  16.816   7.732  12.506  0.0790  0.1070 -0.0509
17425W        W36279  16.624  13.379  14.812  0.2756  0.1672 -0.1165
17426W        W36280   2.483  17.537   0.716  0.0390  0.0940  0.2429
17427W        W36281   6.727  10.639  14.956 -0.1320  0.2842 -0.0102
17428W        W36282  12.166  14.442   0.317 -0.1470 -0.0538 -0.2155
17429W        W36283  13.083   0.941  12.948 -0.0853  0.1682  0.0376
17430W        W36284  11.192  11.407  13.370  0.0728  0.4179 -0.1367
17431W        W36285  11.507   5.752  15.305  0.2190  0.1261  0.0242
17432W        W36286  17.358  13.807  14.899  0.1628  0.1354 -0.3267
17433W        W36287  16.157   5.525  15.165  0.1825 -0.0087 -0.3227
17434W        W36288   2.611  12.093  15.767 -0.0940  0.2854  0.1479
17435W        W36289  12.578  16.835   3.042  0.1494  0.1311 -0.0754
17436W        W36290   7.276   6.715   1.789 -0.3194  0.3990 -0.1682
17437W        W36291  15.169   0.095   5.262 -0.3360 -0.0929  0.0158
17438W        W36292   5.122  13.566  13.197  0.0941  0.2260 -0.0551
17439W        W36293   8.674   5.193  15.739 -0.2457  0.1983 -0.0782
17440W        W36294   1.651   9.778   5.465 -0.3241 -0.0632 -0.0974
17441W        W36295   6.962  17.436  15.356 -0.0357 -0.1933 -0.0014
17442W        W36296   2.246   8.943  16.432 -0.0544 -0.2276 -0.2540
17443W        W36297   3.393   9.536   2.944  0.0582 -0.1528 -0.2273
17444W        W36298   3.483   2.140  17.086 -0.2129 -0.1331 -0.1747
17445W        W36299  16.298   9.148   1.848  0.0291 -0.1213 -0.0599
17446W        W36300   5.671  10.922   5.157 -0.0780  0.1802 -0.2431
17447W        W36301  11.884  10.782   0.261  0.0357 -0.0149 -0.3216
17448W        W36302  13.616  10.550  14.921 -0.1744  0.0667  0.0448
17449W        W36303  13.810  10.032  14.111 -0.1093  0.2312 -0.1035
17450W        W36304   3.002   2.840   3.829  0.0416  0.4280  0.0851
17451W        W36305   8.242  12.029   5.004 -0.3402 -0.2060 -0.2218
17452W        W36306   6.082   8.013  13.083  0.1986 -0.3212  0.5580
17453W        W36307  15.125   4.762  13.455  0.2863 -0.3259  0.0118
17454W        W36308  10.354   9.140  14.537  0.1539 -0.1053 -0.2723
17455W        W36309   8.063  16.567  16.416  0.3496 -0.1805  0.1364
17456W        W36310   0.813   3.365   4.443 -0.0670  0.0475 -0.1489
17457W        W36311  11.496  16.995   0.577 -0.1916 -0.0712 -0.2847
17458W        W36312  11.822   0.629  12.045 -0.0420 -0.3028 -0.1958
17459W        W36313   8.605  13.912  16.023 -0.1216  0.1290  0.0144
17460W        W36314  13.545  16.439  16.098  0.0199  0.4598  0.1783
17461W        W36315   9.684   9.975   2.912 -0.0296 -0.0645  0.0758
17462W        W36316   3.398  12.550  12.808 -0.0467 -0.0242 -0.0310
17463W        W36317   6.324   3.545   4.108  0.0933  0.2318 -0.0474
17464W        W36318  17.019   9.999  16.769 -0.0589 -0.1678  0.2499
17465W        W36319   2.239   9.619  15.240  0.0576 -0.2367 -0.0435
17466W        W36320  14.126  11.328  17.060 -0.0494  0.2282  0.1286
17467W        W36321  16.789   3.019  13.783  0.0057  0.1031 -0.1360
17468W        W36322   6.573   7.908  14.111 -0.3037 -0.2251 -0.1033
17469W        W36323  17.002  16.504  16.775 -0.0517  0.0132  0.0384
17470W        W36324   0.490   7.047  16.951  0.0954  0.0598  0.1002
17471W        W36325  10.247   7.223  15.204  0.0143  0.2191  0.0698
17472W        W36326  15.016   9.386   0.183 -0.2436  0.1190  0.1733
17473W        W36327   3.351  12.856  16.305  0.3121 -0.1728  0.2242
17474W        W36328  13.915   2.064  14.074  0.2190 -0.4390 -0.1566
17475W        W36329   4.062  17.287   0.414 -0.0237  0.0340  0.2716
17476W        W36330   5.331   5.021  11.740  0.0869 -0.1354 -0.1303
17477W        W36331   7.141   5.419   1.753 -0.0052  0.1242 -0.0448
17478W        W36332  14.037  16.688   4.622  0.0248 -0.2597 -0.0545
17479W        W36333   9.431   4.446  12.428  0.1186 -0.2577 -0.0568
17480W        W36334  10.529  17.216   1.314 -0.2613  0.1497  0.1230
17481W        W36335  11.466  12.891  14.744 -0.0646 -0.3534 -0.0577
17482W        W36336   6.391   9.010   0.886 -0.1000 -0.0098  0.3367
17483W        W36337   9.961   5.023   0.284  0.1685 -0.0797  0.3477
17484W        W36338   2.962   2.029  13.678  0.1077 -0.0707  0.0391
17485W        W36339   4.939   4.710   3.100  0.3218 -0.0067 -0.1056
17486W        W36340   2.635  13.893   1.496 -0.1064 -0.0926 -0.0411
17487W        W36341   1.097   1.276   1.639 -0.1748  0.4042 -0.1885
17488W        W36342  12.942   3.989   1.170  0.2647 -0.0066  0.2893
17489W        W36343  12.348   2.131   0.982 -0.0714  0.3253  0.0597
17490W        W36344   1.707   1.190   4.899 -0.0077 -0.1007 -0.0474
17491W        W36345  12.816  16.167   4.730  0.1195 -0.0546  0.1841
17492W        W36346  15.621   0.633  12.834 -0.3186 -0.2148 -0.1898
17493W        W36347   1.714   5.257  10.742  0.0459 -0.1942 -0.0012
17494W        W36348   1.851  15.537   0.355 -0.3761  0.0585 -0.0161
17495W        W36349  13.821   1.729  15.910 -0.0726 -0.1813  0.1427
17496W        W36350   6.434   9.447  13.478 -0.0162  0.0553  0.0477
17497W        W36351  15.612  17.535   4.543  0.1083 -0.2225 -0.2784
17498W        W36352   2.605  13.792  12.994  0.2481 -0.2528 -0.3882
17499W        W36353  16.827   8.194  12.908  0.0726 -0.2482 -0.2614
17500W        W36354   4.831   8.185  16.125  0.1967  0.1694 -0.0242
17501W        W36355   4.011   7.086   2.599 -0.1335 -0.0146  0.3873
17502W        W36356   3.085  10.559  13.154 -0.1151 -0.2294 -0.0463
17503W        W36357  16.416   6.697   4.030 -0.1258  0.2093  0.1054
17504W        W36358   7.614   9.479   2.880 -0.2870  0.0187  0.1085
17505W        W36359   9.284   8.887   3.725  0.1346  0.0771  0.1018
17506W        W36360  10.708   4.806  17.053  0.1294 -0.1928 -0.1588
17507W        W36361   5.301  17.041  12.553 -0.0460  0.0454 -0.3179
17508W        W36362  12.039   8.980   1.470 -0.2552  0.2874 -0.1449
17509W        W36363   4.242   5.287   2.578 -0.1692  0.1674  0.1663
17510W        W36364  15.070  14.421  14.121  0.0333 -0.0909  0.0513
17511W        W36365   3.178  14.312  12.657 -0.1359  0.1074  0.0542
17512W        W36366   7.882   4.128   3.762  0.1191  0.0949  0.1353
17513W        W36367   7.848   5.392  13.269 -0.0148 -0.0458  0.3276
17514W        W36368  16.697  16.129  16.808  0.2754  0.0375 -0.0892
17515W        W36369   9.570  13.260  16.787 -0.1344  0.2283 -0.1900
17516W        W36370   4.977   3.051  12.729  0.3662 -0.3644  0.4578
17517W        W36371   9.161   9.402   0.727  0.0343  0.3105 -0.3368
17518W        W36372   4.204   9.932  12.831 -0.0931  0.1446  0.2958
17519W        W36373   3.673  16.770  12.977  0.2371  0.0989  0.1088
17520W        W36374  13.945  14.192   3.258  0.2533  0.0146 -0.1308
17521W        W36375  11.720  14.954   2.400  0.1617  0.2131 -0.1164
17522W        W36376   0.845   2.191   3.789 -0.2395  0.0938  0.3685
17523W        W36377   9.173   1.136   3.288  0.2037  0.1088 -0.0496
17524W        W36378  14.896   3.571  12.647 -0.2784  0.0344 -0.0037
17525W        W36379   9.105   1.259   6.184  0.0980  0.1618  0.1205
17526W        W36380  17.121  13.553   1.609  0.2093 -0.0019  0.3798
17527W        W36381  10.274   3.393  12.447 -0.1879  0.0938  0.0560
17528W        W36382   9.385  14.641   4.087 -0.0310 -0.0289 -0.1100
17529W        W36383  11.872   5.396  15.310  0.1186  0.2830 -0.1916
17530W        W36384  13.659  16.617   0.513 -0.0046 -0.0275 -0.0876
17531W        W36385   4.873  15.572  14.430  0.0855  0.2144  0.0256
17532W        W36386  10.626  15.861   5.107  0.1555 -0.1277  0.3058
17533W        W36387   7.836   1.750   5.340 -0.1370  0.1281 -0.0314
17534W        W36388   2.774  15.871  12.376 -0.1521 -0.0601  0.1490
17535W        W36389   4.772   8.442   1.868 -0.1167 -0.0057 -0.1449
17536W        W36390   1.868   7.560  15.997  0.1301  0.1002 -0.1947
17537W        W36391   0.204   2.264   2.076 -0.1481 -0.2351 -0.0039
17538W        W36392  12.219   4.334   0.263 -0.1596  0.2298  0.0566
17539W        W36393  15.508  17.100  15.519 -0.1093  0.2081  0.1455
17540W        W36394   9.372   3.629   4.066 -0.4960  0.3999  0.1443
17541W        W36395  16.135   6.370  15.767  0.0938  0.2800 -0.0805
17542W        W36396   1.043  11.633   0.267 -0.1125 -0.0604 -0.0071
17543W        W36397  11.095  11.417   3.747 -0.0080  0.1241  0.0286
17544W        W36398   5.406  11.905   4.041 -0.1414  0.1214  0.1033
17545W        W36399   6.654   4.864   3.333 -0.2415 -0.0732  0.0805
17546W        W36400   0.897  10.232  12.635 -0.1662 -0.1202 -0.2918
17547W        W36401  14.658  15.204  17.018  0.3121  0.3259 -0.0499
17548W        W36402  13.148  15.852   4.435 -0.0307 -0.2138  0.1947
17549W        W36403  16.018   3.099   5.876  0.2015  0.0003  0.0620
17550W        W36404   3.737  14.301  17.209 -0.0893  0.1026  0.0283
17551W        W36405  16.603   1.739  14.358 -0.0199  0.1478 -0.0638
17552W        W36406  12.693   0.848  16.294 -0.0762 -0.3587  0.4555
17553W        W36407  15.183   4.604   0.458 -0.2841 -0.4337  0.1741
17554W        W36408   5.748  10.593   2.715 -0.0707 -0.1519 -0.1199
17555W        W36409  12.680   3.857   0.231 -0.4086 -0.2180  0.1450
17556W        W36410   3.825  16.069  13.534 -0.2428 -0.2476 -0.2884
17557W        W36411  13.239   8.311  13.190  0.2618 -0.0582 -0.2605
17558W        W36412   6.907   1.650  15.741 -0.0716 -0.0796  0.1654
17559W        W36413  16.510  13.828  12.262 -0.1963  0.0317  0.0653
17560W        W36414   9.775   2.445  12.530  0.0032  0.2263  0.2696
17561W        W36415  10.287   1.812  14.783  0.1315  0.2277 -0.1782
17562W        W36416   3.725  14.803  12.098 -0.1823 -0.0759  0.0590
17563W        W36417   6.971  14.612   4.195 -0.0824 -0.3126 -0.0502
17564W        W36418   9.320   3.574  14.703  0.0626 -0.0908 -0.2439
17565W        W36419  12.955  17.207   5.095 -0.0772  0.0023  0.0605
17566W        W36420   1.738   4.325   1.045 -0.2616 -0.0089 -0.3310
17567W        W36421  12.987   1.623   2.698 -0.2946 -0.1058 -0.0769
17568W        W36422   7.159   3.963  17.177 -0.0107 -0.2704  0.4018
17569W        W36423  16.814  14.861   1.335  0.0835  0.1793  0.0550
17570W        W36424   2.662  14.416   5.590  0.0412  0.0298  0.0942
17571W        W36425  13.437   2.232  12.790  0.0516 -0.0256  0.3650
17572W        W36426   3.102  17.133  16.028  0.0149 -0.1656 -0.4230
17573W        W36427   9.506   3.631  15.990  0.0206  0.0109 -0.1001
17574W        W36428   5.744  12.228  16.634 -0.0780  0.3699 -0.1095
17575W        W36429  13.331   7.656   0.594  0.0876  0.0177  0.0724
17576W        W36430   6.049   5.395   3.074  0.2822  0.4269  0.1397
17577W        W36431  12.556   1.782   1.959  0.1115 -0.2413  0.0404
17578W        W36432   7.507  15.160   1.297 -0.1032 -0.2487  0.1958
17579W        W36433  14.705  12.410  16.558 -0.1240 -0.0428  0.0151
17580W        W36434   3.193   4.559  15.266 -0.1340 -0.3432 -0.0751
17581W        W36435  11.170   5.880  13.610  0.2138  0.3380 -0.2557
17582W        W36436   0.190   2.314   1.553 -0.0315  0.1435 -0.1625
17583W        W36437   9.610   3.275   5.221 -0.2464  0.0965 -0.2272
17584W        W36438  13.077   1.399  14.141  0.0612  0.1489 -0.0204
17585W        W36439  16.405   5.353  14.626 -0.0547 -0.0774  0.0901
17586W        W36440  16.251   6.509  16.677  0.0298  0.3842  0.2659
17587W        W36441   7.732   9.369  16.905  0.0470 -0.1980 -0.1572
17588W        W36442  14.099   5.651  11.237 -0.0776 -0.0302 -0.0363
17589W        W36443  11.526   8.638   3.570 -0.1269  0.2089  0.0601
17590W        W36444  16.658   1.501   4.389  0.3276 -0.4732 -0.0471
17591W        W36445  14.863   6.944  11.741 -0.4231  0.0426 -0.1845
17592W        W36446  15.125   3.027   4.465 -0.0336 -0.0316 -0.0179
17593W        W36447   9.220   1.121  15.065 -0.2614 -0.2082  0.0424
17594W        W36448   2.133   1.958   3.149 -0.1158  0.0504 -0.2138
17595W        W36449  15.819   0.603   1.246  0.1735 -0.0767  0.2917
17596W        W36450   7.702  11.972  15.125  0.0432  0.1944 -0.1451
17597W        W36451   1.364  16.217   1.290 -0.0484 -0.0704 -0.1033
17598W        W36452  14.379  16.368   3.295  0.5114 -0.0776  0.1514
17599W        W36453   5.894   6.154  13.800 -0.1613  0.4453 -0.2081
17600W        W36454  11.375  13.202  12.443 -0.0539  0.0291  0.2260
17601W        W36455   6.114  15.857   1.188 -0.3167  0.3119  0.0043
17602W        W36456  11.577   9.230   1.229 -0.0881 -0.4332 -0.2124
17603W        W36457   1.759   7.684  15.510  0.1173  0.0321  0.3479
17604W        W36458   0.252   3.067  14.271 -0.3188  0.1125 -0.1081
17605W        W36459   2.797   4.414   3.308  0.0260  0.1933 -0.2063
17606W        W36460   2.098  17.018  15.821  0.3974 -0.0182 -0.3901
17607W        W36461  13.170  16.939   4.725  0.1471  0.1746  0.0685
17608W        W36462  11.150   6.089  16.012 -0.1392  0.3289 -0.1666
17609W        W36463  15.355   2.799  16.382 -0.1374  0.4050 -0.1438
17610W        W36464  14.091   6.578   1.977  0.2241 -0.2478 -0.0805
17611W        W36465   2.856   8.813   5.087  0.1211  0.1503 -0.0149
17612W        W36466   1.986   0.944   0.044  0.0055  0.0675  0.0462
17613W        W36467   5.253   3.069  12.045 -0.4438 -0.0450 -0.1608
17614W        W36468   5.930  10.381   1.757  0.0423 -0.2189  0.2853
17615W        W36469   4.248   5.235   0.500  0.5172 -0.3396  0.3936
17616W        W36470  11.795  15.224  13.849 -0.0295  0.0381 -0.0960
17617W        W36471  13.050  11.298   3.108 -0.3786  0.2779  0.1698
17618W        W36472  15.292  11.438   2.419 -0.1393 -0.0242 -0.1599
17619W        W36473   4.277   4.948   3.937 -0.2028  0.4190 -0.1530
17620W        W36474   8.379  14.349   5.033 -0.0785  0.2829 -0.2002
17621W        W36475   0.650   8.905   5.423 -0.1656  0.0788  0.2942
17622W        W36476  16.622  10.915  16.527  0.2332 -0.1611  0.0628
17623W        W36477  13.939   8.638  13.593 -0.2909  0.2567  0.0424
17624W        W36478   9.130   6.313   4.547  0.2246  0.2890 -0.2037
17625W        W36479  11.290  14.345   4.519  0.1889 -0.0536 -0.0381
17626W        W36480   9.261   5.436  15.658  0.0594 -0.0812  0.1345
17627W        W36481   5.561  12.412   4.443 -0.0014  0.0731  0.0975
17628W        W36482   2.272  13.320   0.994  0.0770  0.2095  0.0539
17629W        W36483   6.017  14.188   0.401  0.1948 -0.1384 -0.1068
17630W        W36484   0.044  15.686  14.494 -0.0337  0.0628 -0.2851
17631W        W36485  12.017  10.004   4.873 -0.2580 -0.0075  0.0248
17632W        W36486   7.730  12.913   5.098  0.2203 -0.1870  0.0183
17633W        W36487   4.304  10.048   0.841  0.0670 -0.1857 -0.0943
17634W        W36488  12.090   0.606   3.566 -0.0371  0.1397 -0.0417
17635W        W36489   0.691   1.257  12.222 -0.2190  0.0845 -0.0432
17636W        W36490   3.835  15.182   1.685 -0.2710 -0.1129  0.0717
17637W        W36491  12.493   6.041  15.707  0.1494  0.0590 -0.1417
17638W        W36492   4.567  14.328  12.904  0.1302 -0.0615 -0.0634
17639W        W36493   1.825  14.612   1.911  0.2221 -0.1592 -0.1405
17640W        W36494   0.489   5.385  12.180 -0.0253  0.0376  0.0412
17641W        W36495   9.906   6.714   1.345 -0.3156 -0.3690  0.2794
17642W        W36496   4.261   1.373   4.233  0.0054  0.1040  0.2669
17643W        W36497   9.048   1.438   2.380 -0.3630 -0.0790  0.0557
17644W        W36498   5.472   4.264  12.613  0.0301  0.1351  0.1423
17645W        W36499  16.830   8.463   2.743  0.1401 -0.2972  0.1085
17646W        W36500  12.044   1.724  16.363 -0.1205  0.0185  0.0381
17647W        W36501   2.047   6.862   2.058  0.1983  0.3346  0.2003
17648W        W36502   3.199  15.104  12.645 -0.0487 -0.3724 -0.0227
17649W        W36503  14.938  17.209  12.187  0.0130  0.2994  0.1393
17650W        W36504   0.697   7.444   1.893 -0.0859 -0.0114 -0.0597
17651W        W36505   2.227  13.560   2.573  0.1798  0.2012 -0.2824
17652W        W36506  10.131  11.378  15.581  0.1958 -0.0325  0.0260
17653W        W36507   3.120   7.792   5.405 -0.2010 -0.1753  0.0745
17654W        W36508  10.370   4.776  16.113 -0.1765 -0.0755 -0.3582
17655W        W36509  11.512   1.467   4.089  0.0310  0.0995  0.1251
17656W        W36510  11.090  14.878  15.974 -0.0655  0.0006 -0.2901
17657W        W36511   7.716   6.613   3.647  0.3605 -0.0862 -0.1759
17658W        W36512  13.423  10.422   5.239  0.0180  0.2764  0.0502
17659W        W36513  17.488   3.655  12.226  0.1144 -0.1858  0.0579
17660W        W36514  14.899   2.635  16.829  0.2084  0.0597 -0.0953
17661W        W36515   5.408   0.612   0.737  0.1550 -0.1587 -0.1041
17662W        W36516   1.010   7.364  16.949  0.1939 -0.0339 -0.0226
17663W        W36517  13.498   0.365   4.931  0.1176  0.0310  0.2255
17664W        W36518   8.111   8.933  12.253 -0.0439  0.1178 -0.0843
17665W        W36519   3.385   2.251   1.722  0.0317 -0.2853 -0.0733
17666W        W36520   7.703  12.768  15.297 -0.2989  0.1795 -0.0527
17667W        W36521   2.760  11.203  16.814 -0.0371  0.2326 -0.0974
17668W        W36522  12.460   9.445   3.604 -0.1645  0.1568 -0.1728
17669W        W36523   1.585   5.757  15.975 -0.0538  0.1661  0.2040
17670W        W36524   6.871   4.241   4.688  0.0333  0.1601 -0.3509
17671W        W36525  13.822   3.008   0.213  0.0157 -0.1318  0.2903
17672W        W36526  11.509   3.881   4.389  0.1490  0.0135 -0.0148
17673W        W36527  14.829  15.402  15.172 -0.0986  0.1940 -0.3720
17674W        W36528   0.556   9.852   4.096  0.2932 -0.0480 -0.3515
17675W        W36529   1.437  15.999   2.376 -0.1141  0.2274 -0.2968
17676W        W36530  11.807   8.709  15.589 -0.0708  0.0917  0.0457
17677W        W36531  13.024   6.309   2.102  0.2808  0.1881 -0.0109
17678W        W36532   0.128   6.357  12.482 -0.5093  0.0510 -0.1344
17679W        W36533   0.026   6.094   0.912  0.2385  0.1766  0.5786
17680W        W36534  14.994   9.920  15.666  0.0478  0.0910 -0.0634
17681W        W36535   0.708  16.801   2.280 -0.0265 -0.1586 -0.1956
17682W        W36536   2.109  11.041  12.708  0.0650 -0.3177  0.1433
17683W        W36537   1.774  11.535   2.585  0.2230 -0.2899 -0.1468
17684W        W36538  15.764   2.702   5.752 -0.0063 -0.0024  0.1179
17685W        W36539   6.491   2.749   3.526 -0.2573 -0.2672  0.3242
17686W        W36540  11.143   4.946   0.862  0.1981  0.4039 -0.0349
17687W        W36541  17.256  11.127  13.125  0.1926  0.2123  0.1229
17688W        W36542  16.735  10.139   4.857  0.0521  0.0309  0.3349
17689W        W36543  13.087   9.308  15.117  0.2725 -0.0529  0.0784
17690W        W36544   4.251   2.599  14.379 -0.3256 -0.1890 -0.0865
17691W        W36545   3.725  10.881  14.670  0.0700 -0.1713  0.0341
17692W        W36546   5.374   5.426   3.523 -0.1138  0.0811 -0.4517
17693W        W36547   9.505   9.387   5.098  0.1967 -0.2288  0.1065
17694W        W36548   3.338   5.423   4.470 -0.1135  0.1233 -0.3139
17695W        W36549   0.403  16.958   2.699 -0.4468 -0.0127 -0.0980
17696W        W36550  11.946   3.389   4.383 -0.0271 -0.2525  0.1905
17697W        W36551   1.978   2.687  16.010  0.1415 -0.0855 -0.0381
17698W        W36552   6.624  15.411   0.023 -0.1761 -0.0927  0.1354
17699W        W36553   6.793  11.235  15.967 -0.0223  0.1135 -0.0531
17700W        W36554   3.311  15.697   1.228 -0.0542  0.0875 -0.1745
17701W        W36555   2.302   5.273  16.029 -0.1932 -0.0132  0.1985
17702W        W36556  10.761  13.780  11.919 -0.1639 -0.0984  0.1739
17703W        W36557   9.221  10.273   4.823 -0.0841  0.2588  0.2106
17704W        W36558  10.712   2.345   1.697 -0.0961  0.0239  0.3823
17705W        W36559   2.970   6.469  15.478 -0.0057 -0.3050 -0.1686
17706W        W36560  16.527   7.431  16.791 -0.0346  0.0568 -0.1858
17707W        W36561   0.102  15.424  11.956 -0.0865 -0.2157  0.2659
17708W        W36562   4.665   8.948  12.906 -0.2507 -0.1318 -0.0564
17709W        W36563  17.397  16.015  16.207  0.0334  0.3738  0.1223
17710W        W36564   4.031   9.142  15.207  0.0418 -0.0753  0.0219
17711W        W36565  12.895  16.201   4.200  0.1129 -0.1819 -0.0750
17712W        W36566  10.523  11.335   3.700 -0.0981  0.0905  0.0953
17713W        W36567  14.760  11.342  14.190  0.2619  0.1903  0.5978
17714W        W36568   3.337  16.522  14.321  0.2075  0.1542  0.2289
17715W        W36569   4.988  10.259   0.350  0.1078  0.0296  0.2233
17716W        W36570   1.287  10.854   5.083 -0.1584 -0.0318 -0.2940
17717W        W36571  15.104  14.054   1.090  0.1557 -0.1300 -0.2606
17718W        W36572   7.575   6.629  15.575  0.0707  0.3867  0.1688
17719W        W36573  16.158  14.332  14.424 -0.0459 -0.0480  0.2440
17720W        W36574  12.884  11.450  15.558 -0.0785  0.5132 -0.3959
17721W        W36575   2.568  15.608  13.954 -0.1450 -0.0145 -0.0168
17722W        W36576  16.399  13.097   6.145 -0.0391 -0.0064  0.2020
17723W        W36577   7.431  10.064   4.717  0.0483 -0.2766 -0.3965
17724W        W36578  12.366  13.015   1.040 -0.0732  0.1935  0.4167
17725W        W36579   7.324   1.637  16.618 -0.2090  0.0570  0.0169
17726W        W36580  13.978   7.526   2.126  0.1396  0.0718  0.1683
17727W        W36581  10.647   2.998  13.372 -0.0809 -0.3601  0.3088
17728W        W36582   0.414  16.615   3.939  0.0029 -0.0086  0.2542
17729W        W36583   4.765  14.287   0.852 -0.1682 -0.0999 -0.0411
17730W        W36584   3.465   7.714  16.157  0.0001 -0.0288  0.0866
17731W        W36585   7.414  15.247  11.715  0.0543  0.0826  0.2151
17732W        W36586  15.878   5.634   0.637  0.2592 -0.0641 -0.0394
17733W        W36587   6.098   3.394  13.785 -0.4135 -0.1605 -0.3485
17734W        W36588   3.919   2.919  14.513  0.1520 -0.0424  0.1236
17735W        W36589  13.997  10.911  15.016 -0.1415  0.0403  0.3045
17736W        W36590   0.027   0.635  14.703  0.0872 -0.0436  0.0236
17737W        W36591   1.952  14.787  14.206  0.1694 -0.1327 -0.0892
17738W        W36592  14.381   9.026  14.492 -0.1463  0.0927  0.0454
17739W        W36593   0.205  16.469  15.139  0.0065  0.2026  0.3622
17740W        W36594  13.808  12.714  17.177 -0.0512 -0.1183 -0.2333
17741W        W36595   3.837  11.728   4.570  0.3226  0.0353  0.0064
17742W        W36596   0.144   1.956   1.177 -0.2502 -0.1213  0.0813
17743W        W36597   0.616  17.335  14.959  0.1750  0.0543 -0.0177
17744W        W36598   5.410  10.351  14.278 -0.0553  0.3573  0.0890
17745W        W36599  14.855  10.145  16.872  0.0065 -0.4497  0.3726
17746W        W36600   9.075  13.327  16.926  0.1378 -0.2160 -0.0926
17747W        W36601  17.471  10.055  17.034 -0.1606  0.0348 -0.0026
17748W        W36602  13.945  17.317  17.238 -0.2445 -0.0083  0.2316
17749W        W36603   8.853  17.095  15.366  0.0178  0.1366  0.2248
17750W        W36604  10.347   6.494   2.233 -0.3105  0.0310 -0.0713
17751W        W36605  11.101   1.261  13.332  0.2164 -0.2200  0.0813
17752W        W36606   2.397  17.422  15.711  0.0137 -0.1183  0.0128
17753W        W36607  12.032   5.998   3.977  0.2313  0.2686  0.0320
17754W        W36608  13.565   9.405  15.977  0.1703  0.0830  0.0908
17755W        W36609  16.250   0.269   3.744 -0.1095  0.0013  0.1670
17756W        W36610  11.932   9.037   0.423 -0.2351  0.0594  0.1440
17757W        W36611   9.957  10.276  12.791  0.0155  0.2258  0.0893
17758W        W36612   8.131   2.697   2.080  0.0533  0.2913 -0.0428
17759W        W36613  14.208   5.781  16.949 -0.2944  0.2245  0.2325
17760W        W36614  12.866   8.077  16.261 -0.2411 -0.0577 -0.0802
17761W        W36615   8.691  10.443   4.811  0.0534 -0.0296 -0.0784
17762W        W36616  11.944   2.268  12.316 -0.0634  0.1278 -0.0535
17763W        W36617   8.663   3.606   1.936  0.1602  0.0201 -0.2140
17764W        W36618  12.660   9.793  15.980 -0.2539  0.0526 -0.2472
17765W        W36619  10.023  10.515  17.098 -0.0126  0.2119  0.1643
17766W        W36620   6.072   9.447   4.594  0.3743  0.3190 -0.0701
17767W        W36621  13.446   7.518  16.480  0.1743 -0.1931 -0.0360
17768W        W36622  16.470   1.761  15.782 -0.2782  0.2229  0.3151
17769W        W36623  14.263  11.029  16.644  0.2318 -0.0773  0.0876
17770W        W36624   8.573  16.999   5.222  0.3699 -0.0643  0.1624
17771W        W36625  17.127   5.779  13.357 -0.0543  0.2306 -0.1288
17772W        W36626  17.385   8.205   1.043 -0.2255 -0.2273  0.1720
17773W        W36627   8.542   4.405  15.397 -0.2594 -0.0461  0.0446
17774W        W36628  11.877  17.215  12.216 -0.0036 -0.1170 -0.0346
17775W        W36629   4.561  15.964   0.159  0.3140 -0.0501  0.2495
17776W        W36630  11.576   4.512   1.255 -0.0120 -0.2105 -0.1699
17777W        W36631  14.329   7.531   5.123  0.0788  0.1420 -0.2023
17778W        W36632  16.072   5.406   1.106  0.2541  0.0927  0.0458
17779W        W36633   3.158   2.791  15.164  0.3338  0.4108 -0.3126
17780W        W36634  10.251   1.565  11.765 -0.0066  0.0605 -0.1371
17781W        W36635   5.324   4.299   1.526  0.0823  0.2563 -0.3008
17782W        W36636  13.097   1.029  12.334 -0.0853  0.0882  0.2085
17783W        W36637  17.055  16.036  14.685 -0.0765  0.2437  0.0913
17784W        W36638  13.729   1.372  16.848 -0.0951 -0.3962  0.3367
17785W        W36639  16.919  14.552  16.951 -0.0098  0.1662 -0.1868
17786W        W36640  12.186  10.818   2.710  0.4134 -0.0856 -0.0512
17787W        W36641  17.312  13.177  12.470 -0.2874  0.0022  0.2907
17788W        W36642   9.904   1.268   4.326 -0.0231  0.3242  0.0337
17789W        W36643   5.708  13.854  12.729 -0.0814  0.1298 -0.2495
17790W        W36644   3.966   0.252   0.446 -0.1393  0.0500  0.1829
17791W        W36645  17.394  15.608   3.331  0.3793 -0.0736  0.0143
17792W        W36646   9.619   0.757  15.200 -0.0885  0.1211 -0.0601
17793W        W36647  16.633   7.128  15.254  0.3883  0.4029 -0.1960
17794W        W36648   6.028  16.096   2.709  0.0415 -0.0194  0.0146
17795W        W36649   7.292   5.337   0.749 -0.0392 -0.3396  0.1566
17796W        W36650  14.314   9.651  14.752 -0.0428  0.0221  0.1515
17797W        W36651   8.567  10.192  12.768  0.0132  0.0696 -0.0284
17798W        W36652  15.154  15.238  12.539 -0.1415 -0.1015 -0.0740
17799W        W36653  16.575   9.114   4.450 -0.1381 -0.0374 -0.3147
17800W        W36654   2.500  16.765   3.910  0.0579 -0.0082  0.1461
17801W        W36655   0.171   3.526   3.665 -0.2778 -0.0739 -0.3974
17802W        W36656   3.310   5.310   2.175  0.1448 -0.2324 -0.0022
17803W        W36657  17.114   6.872  14.509  0.2252  0.0666  0.0296
17804W        W36658   4.040   2.294   2.848 -0.2738  0.0635 -0.0982
17805W        W36659  14.329   8.603   2.791 -0.0550 -0.1014 -0.2216
17806W        W36660   8.474  14.463   4.200  0.0307  0.0600 -0.0252
17807W        W36661   2.945   8.684  13.753 -0.1784 -0.3733  0.0061
17808W        W36662   9.770  16.993  15.453 -0.2090  0.0060 -0.0045
17809W        W36663   1.920   0.516  15.619 -0.1437  0.0806 -0.0997
17810W        W36664  10.325  13.985  13.555  0.0787  0.0733  0.0021
17811W        W36665  16.506   2.566   2.392  0.1280 -0.0830  0.2902
17812W        W36666   0.257   7.439  14.074  0.4537 -0.2557 -0.0785
17813W        W36667  12.168   9.042   2.331 -0.5443  0.0844 -0.0649
17814W        W36668   8.922   6.377   0.096  0.3507 -0.2130 -0.1503
17815W        W36669   1.708   6.773   1.624  0.0513 -0.0820 -0.4020
17816W        W36670  10.759   8.743  16.366  0.1141  0.0475  0.1263
17817W        W36671  16.764   9.306   0.696  0.5202 -0.1082 -0.0417
17818W        W36672  13.836  17.435   1.131  0.2247 -0.1949  0.3929
17819W        W36673   4.081   4.021   0.363 -0.1998 -0.0109  0.0650
17820W        W36674   0.969   1.600  12.434  0.0077  0.1479  0.0893
17821W        W36675   8.711   4.905   4.838  0.2405 -0.1510  0.0197
17822W        W36676  13.591   1.214   1.155 -0.0578 -0.1543  0.0834
17823W        W36677   2.406   4.722  14.063  0.1627  0.0577  0.1812
17824W        W36678  11.734  13.496   2.104 -0.1149 -0.2021 -0.0696
17825W        W36679  13.879   4.176  16.465 -0.0948 -0.1704 -0.0271
17826W        W36680   8.886  11.068   0.182  0.1145 -0.1387 -0.0740
17827W        W36681   8.086   7.420   0.540  0.1460 -0.1981  0.2581
17828W        W36682   6.511   5.950   0.628 -0.1110 -0.1818 -0.0866
17829W        W36683   9.544   5.954   2.252 -0.1643 -0.2008 -0.4691
17830W        W36684  16.457   2.928  14.306  0.3021  0.2993  0.0900
17831W        W36685   0.497   6.869   4.860  0.3127  0.2045  0.3214
17832W        W36686  12.499   8.535   3.510 -0.0572 -0.3372 -0.2104
17833W        W36687  10.251  13.047  12.167  0.1728 -0.1232  0.4498
17834W        W36688  17.508   7.107   4.192  0.1340 -0.0869 -0.3322
17835W        W36689   5.073  16.397  16.634  0.2625 -0.2247 -0.0416
17836W        W36690   9.102   5.937  17.201 -0.3083  0.6432 -0.1902
17837W        W36691   1.981   0.255   3.144  0.1924 -0.1759 -0.1792
17838W        W36692   5.859  10.935   4.653 -0.0612  0.2806 -0.3204
17839W        W36693   9.206  10.035   0.547  0.1548 -0.1455  0.0635
17840W        W36694  13.146   0.312  13.953  0.0037  0.0017  0.1667
17841W        W36695  15.259  11.775   5.250 -0.1934  0.1403  0.1012
17842W        W36696   0.863   5.705  11.985  0.0757 -0.4369 -0.1292
17843W        W36697   4.060  16.205   1.184 -0.0248 -0.2779 -0.1991
17844W        W36698   3.261   0.390   2.505  0.1279  0.5853  0.0527
17845W        W36699  15.975  16.879  16.670 -0.1892  0.0403  0.1795
17846W        W36700  13.103  10.018  13.780 -0.0543 -0.0782 -0.0029
17847W        W36701  17.551   6.703  14.730  0.1559  0.2430 -0.3969
17848W        W36702   4.158   0.881  16.970 -0.0097 -0.1311  0.0301
17849W        W36703  10.052   3.915  13.833 -0.1330 -0.1978  0.0190
17850W        W36704   5.262  16.323   2.334  0.0374 -0.2893 -0.0205
17851W        W36705  15.925  11.605   5.670  0.0074 -0.0184  0.0673
17852W        W36706  14.619   4.378   2.932 -0.0519  0.1678  0.0892
17853W        W36707  13.493   6.714   3.091  0.0113 -0.1465 -0.1236
17854W        W36708   6.587  13.118   2.611  0.0183  0.1812  0.0527
17855W        W36709   0.496   4.069   1.460 -0.2045  0.0455  0.2177
17856W        W36710   4.731   6.578   0.802  0.1674 -0.0367  0.2506
17857W        W36711   2.086  10.477   1.876 -0.0757  0.0957 -0.1808
17858W        W36712   5.567   1.497   0.531 -0.1456 -0.1386 -0.1139
17859W        W36713   8.015   7.921   1.888  0.0822  0.2541 -0.2530
17860W        W36714   6.983  13.098  17.157  0.0647 -0.1175  0.2477
17861W        W36715   1.613   8.523   3.955 -0.2567 -0.0080 -0.1794
17862W        W36716   0.522   8.821   3.879 -0.1519 -0.0837  0.1863
17863W        W36717  11.386  13.897   0.842  0.1734  0.0547  0.0228
17864W        W36718  13.407  17.242   2.826  0.1901  0.1513 -0.2585
17865W        W36719  14.884   3.411  13.336  0.1388 -0.0810  0.3072
17866W        W36720   0.380  10.735  14.752 -0.1449 -0.0979  0.1940
17867W        W36721   5.970   5.153  15.568  0.2252  0.1080  0.2475
17868W        W36722   7.807   1.574  16.907  0.2810  0.0437 -0.0545
17869W        W36723   7.246  14.595  17.228  0.0542  0.1542  0.0882
17870W        W36724  11.093   9.978   5.108  0.1128 -0.1483 -0.0437
17871W        W36725  16.300   8.406   0.354 -0.0004  0.1165  0.2916
17872W        W36726   0.794   5.927  17.065  0.1141  0.0921  0.0975
17873W        W36727   6.233   0.021   4.964  0.1864  0.1126 -0.2976
17874W        W36728   3.154   7.507  11.991  0.0261  0.1196  0.1891
17875W        W36729   2.175  12.808  12.089 -0.3503  0.0329  0.3416
17876W        W36730  15.938   8.299   1.573 -0.1446  0.1748  0.3624
17877W        W36731  11.406  12.956  13.908 -0.1398  0.2839  0.1990
17878W        W36732   8.226   3.324   3.447 -0.2670  0.1557  0.2442
17879W        W36733  14.606   1.456   1.413 -0.1297 -0.2973  0.0419
17880W        W36734  10.660   5.787  11.980 -0.0886  0.0033  0.0161
17881W        W36735   1.503   3.770  16.584  0.0838 -0.0420 -0.1714
17882W        W36736  13.476  10.052   0.978 -0.3310 -0.0230 -0.0277
17883W        W36737   1.591  11.348   2.172 -0.5103  0.1430  0.3146
17884W        W36738   5.311  15.375   2.748  0.0601  0.0830  0.0573
17885W        W36739  12.761  12.108  13.047 -0.0947  0.2014  0.2728
17886W        W36740   7.627   4.639   5.845  0.1406  0.0877 -0.0822
17887W        W36741   5.745  13.876   1.929 -0.0874  0.2364  0.0874
17888W        W36742  13.954   8.870   3.660  0.0195 -0.0403 -0.0555
17889W        W36743   7.727   1.943  12.155  0.1567 -0.0886  0.2422
17890W        W36744   9.862   4.748   2.818  0.2835 -0.0803 -0.0030
17891W        W36745   9.444  15.345   3.146  0.0399  0.2219 -0.1369
17892W        W36746   9.985  13.274  17.174 -0.1225 -0.3085 -0.0275
17893W        W36747   0.320  14.871   1.254  0.2954 -0.3289 -0.1237
17894W        W36748  14.984   4.550   2.109 -0.1917 -0.1248 -0.1492
17895W        W36749  11.708   0.007   3.361 -0.0375 -0.0679 -0.0964
17896W        W36750  14.549  13.676  12.386 -0.1663  0.0031 -0.4268
17897W        W36751   7.740   4.497  14.663  0.2249 -0.4354 -0.1096
17898W        W36752   0.496  16.479   2.697  0.0013 -0.1215  0.3304
17899W        W36753  13.596   3.322  15.134  0.3098  0.0521 -0.0754
17900W        W36754  17.242  14.530  15.937  0.1516  0.2219  0.0683
17901W        W36755   0.399  15.048  15.228  0.1872  0.1725 -0.0596
17902W        W36756   1.468  14.221   2.219 -0.4428 -0.0298 -0.1256
17903W        W36757   7.378   3.129   4.513  0.0590 -0.2728 -0.1360
17904W        W36758   3.443   7.120  13.655 -0.1063  0.1619 -0.1869
17905W        W36759   9.028   0.005   2.034 -0.1994  0.1017 -0.0457
17906W        W36760   1.639  14.740  13.716 -0.0045 -0.0660 -0.4708
17907W        W36761   7.980   7.260  16.405  0.0706 -0.2097  0.2568
17908W        W36762  12.826   4.818   2.390  0.3532 -0.0554  0.2768
17909W        W36763   4.544   8.747  13.361 -0.5150 -0.0072 -0.0227
17910W        W36764   0.925  15.171   2.363  0.1274  0.1413 -0.1380
17911W        W36765  16.533  16.724   2.946  0.2446  0.1478 -0.1617
17912W        W36766  10.454  11.528   3.039 -0.0381 -0.0714  0.0097
17913W        W36767  14.926  16.089   2.518 -0.1101 -0.1690  0.0750
17914W        W36768   6.719  13.046  13.820  0.2135 -0.1700  0.0324
17915W        W36769  12.705   1.600   0.179 -0.0039 -0.0335  0.0489
17916W        W36770   3.732   5.289   2.714 -0.0561 -0.0126 -0.3200
17917W        W36771   0.657   3.567   3.506  0.0858 -0.1662  0.0202
17918W        W36772  11.564  12.953   3.620 -0.0392  0.1303  0.0625
17919W        W36773  10.974   1.833   5.185  0.2824 -0.4128  0.0063
17920W        W36774  12.218  16.323   3.716 -0.2383 -0.2351 -0.2125
17921W        W36775   5.411   8.288  12.373  0.1253 -0.0340 -0.0371
17922W        W36776   0.233  12.417   4.444  0.0041  0.1081  0.2897
17923W        W36777   2.400   0.657  13.706 -0.0080 -0.3235 -0.1459
17924W        W36778  14.366   3.043  15.124  0.1003 -0.0331 -0.1212
17925W        W36779   4.307   4.836  13.146  0.1682  0.2577 -0.1122
17926W        W36780  17.350  13.035  13.539 -0.0706  0.3093 -0.1377
17927W        W36781  15.883   5.260  13.320  0.0822  0.1622 -0.2100
17928W        W36782  10.606   6.426   2.688  0.2416  0.0779 -0.0803
17929W        W36783   5.274  12.580   1.021  0.4202  0.1005 -0.0183
17930W        W36784  16.058   7.827   1.667 -0.0136 -0.5184  0.3887
17931W        W36785   3.429  14.246  13.901 -0.2191 -0.0014 -0.2250
17932W        W36786  12.262   2.897   1.368  0.2555  0.0633  0.3351
17933W        W36787  11.238  11.876   2.699  0.0433 -0.3352 -0.0486
17934W        W36788  12.545   2.386  16.924  0.2234 -0.1567 -0.1158
17935W        W36789  16.483   5.951   0.076 -0.0173 -0.0378 -0.2881
17936W        W36790   1.951   8.751   2.825 -0.2060  0.0640 -0.1176
17937W        W36791   1.817   5.451   4.863 -0.0164 -0.2406  0.0308
17938W        W36792  16.668  17.179   2.916  0.0895 -0.0667  0.0641
17939W        W36793   0.963   5.727   1.538 -0.0608  0.0546 -0.1042
17940W        W36794   5.342   7.810  14.376  0.1800  0.3541  0.1952
17941W        W36795   6.663  10.658  15.493  0.3263  0.1877 -0.1553
17942W        W36796   7.279  14.687  12.431 -0.0230  0.1041 -0.0707
17943W        W36797   8.786   9.512   4.769  0.1276  0.0314 -0.2589
17944W        W36798   8.823   7.095   1.719  0.2718 -0.0229  0.1943
17945W        W36799   0.458   0.045  12.499 -0.0186  0.1063  0.0292
17946W        W36800   4.330  16.526   0.883 -0.0453 -0.0803  0.5535
17947W        W36801   9.859   1.944   5.027 -0.0498  0.1536 -0.0903
17948W        W36802  13.383   9.272  16.430 -0.1580  0.0340  0.0973
17949W        W36803   4.835   1.706  12.853 -0.2498  0.1654 -0.1726
17950W        W36804   3.778  12.067   2.547  0.0624  0.1560 -0.0590
17951W        W36805  12.324  16.587   0.199  0.0343  0.1115 -0.0963
17952W        W36806  13.816  14.150  17.228 -0.0740 -0.0673 -0.0068
17953W        W36807  14.300  13.553   3.657 -0.2940 -0.2738  0.3173
17954W        W36808  14.853   4.155  13.858  0.0566  0.1479 -0.1027
17955W        W36809   4.592  11.324   5.329  0.0641  0.0983  0.1258
17956W        W36810   2.783   4.756   1.810  0.0349  0.0216 -0.2140
17957W        W36811   7.557  14.094  14.298  0.2036  0.2288 -0.2325
17958W        W36812   2.730   7.292  15.138  0.0391 -0.0514 -0.1483
17959W        W36813   6.850   8.402   4.748 -0.1626 -0.0060 -0.0527
17960W        W36814  13.351   3.748  13.999 -0.1263 -0.0710 -0.0037
17961W        W36815   0.896   8.220  14.088 -0.0224  0.0450 -0.0692
17962W        W36816   4.397   7.607   2.186 -0.1811  0.0958  0.1599
17963W        W36817   8.794  16.821  13.970  0.0722  0.0688  0.2383
17964W        W36818  15.287   8.498   5.850 -0.1627  0.0238 -0.0220
17965W        W36819   8.440   1.786  15.731  0.0538  0.0509  0.0303
17966W        W36820   0.105   1.524  12.910  0.1122  0.0390  0.2148
17967W        W36821  10.711  11.698   5.072  0.0313 -0.1122  0.0082
17968W        W36822   3.048  12.751   2.154 -0.2219 -0.0149 -0.1423
17969W        W36823   0.778   0.233   0.739  0.2161  0.0067 -0.1004
17970W        W36824  16.904   0.685   4.883  0.0596 -0.0475  0.2827
17971W        W36825   3.485  13.966  14.627  0.0678  0.0446  0.3277
17972W        W36826   0.312  11.330  14.675  0.2137  0.1356  0.3865
17973W        W36827  12.546   5.078  15.757  0.3415  0.0922 -0.1062
17974W        W36828   9.182  17.039   4.298 -0.3961 -0.1246  0.1445
17975W        W36829  12.275   5.211  16.131  0.1769  0.0858 -0.0068
17976W        W36830  13.797   7.106  12.620 -0.1250 -0.1897 -0.5981
17977W        W36831  11.706   8.810   2.435  0.1630 -0.1107 -0.3031
17978W        W36832   3.542  16.366  12.610  0.1394 -0.0980  0.1683
17979W        W36833   8.645   7.845   0.239 -0.0524 -0.1637 -0.1463
17980W        W36834   9.974  12.399  16.983 -0.2924 -0.0899 -0.3673
17981W        W36835   8.258  11.416   3.216  0.2952 -0.0065  0.0344
17982W        W36836   0.617  17.326   2.372  0.0115 -0.2540 -0.1419
17983W        W36837   1.776   1.060   3.420  0.3067 -0.0899 -0.2401
17984W        W36838   7.872   2.884   0.556 -0.0256  0.1766 -0.3437
17985W        W36839   7.521  15.057  12.154  0.1743  0.1834  0.1331
17986W        W36840   2.980  11.775  16.591  0.0411  0.2250 -0.1820
17987W        W36841   9.555  14.783  14.481 -0.5195  0.1187 -0.0870
17988W        W36842   4.687  17.498  15.604  0.1969  0.2708  0.0990
17989W        W36843  16.175  15.857   3.180 -0.2522  0.0068 -0.0374
17990W        W36844  16.356   8.180  14.269  0.2275  0.0566  0.2946
17991W        W36845   4.268   7.399  15.727  0.0471  0.4444 -0.1418
17992W        W36846  14.542   8.435  15.201  0.0882  0.1731  0.0750
17993W        W36847   3.530  13.327   3.798  0.1126 -0.3706 -0.0188
17994W        W36848  17.016   3.569  15.961 -0.0075  0.2889  0.1261
17995W        W36849  13.137  12.646   4.218 -0.0622 -0.2227 -0.1170
17996W        W36850  13.378  14.758  15.466  0.1895 -0.0186  0.1045
17997W        W36851   8.439  16.507   4.934  0.0644 -0.4298  0.2717
17998W        W36852   2.909  14.654   4.254 -0.1043 -0.0252 -0.0254
17999W        W36853   2.360   4.155  11.655 -0.3068  0.1074 -0.1684
18000W        W36854   5.709   5.417  14.526  0.1305  0.2791  0.0705
18001W        W36855  12.788   0.162  14.912 -0.3665 -0.2061  0.0238
18002W        W36856   8.757   7.244  12.553  0.0996 -0.0452  0.0374
18003W        W36857  16.159   4.714   5.238  0.1355 -0.1057 -0.0823
18004W        W36858   3.477   7.860   5.018  0.0492 -0.2505 -0.2815
18005W        W36859   8.884   1.823   1.731  0.6199 -0.3764 -0.1306
18006W        W36860   9.607   3.623   2.936 -0.1984 -0.1911 -0.0828
18007W        W36861   6.071  16.355  15.099 -0.1132  0.3285 -0.1341
18008W        W36862  17.366   0.160   1.436 -0.1864  0.1265  0.0287
18009W        W36863  15.064   0.227  13.366  0.0124 -0.1965  0.0626
18010W        W36864   4.711   9.440   4.790  0.3598  0.0395  0.0350
18011W        W36865   6.864   2.107   0.720 -0.2191  0.1584 -0.0551
18012W        W36866   9.105  10.926  14.735  0.0099  0.3414 -0.2619
18013W        W36867   6.277  16.241  13.328 -0.0577 -0.1161 -0.1594
18014W        W36868   4.432   9.613  14.390  0.1154 -0.1302 -0.1078
18015W        W36869  17.234   5.140  13.484 -0.1706 -0.0025  0.0404
18016W        W36870  14.977   8.801  12.524 -0.1916 -0.2765  0.0519
18017W        W36871  16.046   2.512   1.632  0.2025  0.0115  0.0441
18018W        W36872  12.022  11.513  15.083 -0.1406 -0.0020  0.0127
18019W        W36873   3.490  12.583  12.311  0.1910  0.3393  0.0328
18020W        W36874   1.769  16.451   3.203  0.3942  0.1494  0.1541
18021W        W36875   1.201   1.023   0.186 -0.0498  0.0292 -0.1582
18022W        W36876   2.521  10.193  12.594  0.0770 -0.5418  0.2242
18023W        W36877   4.184   1.691  12.800 -0.1985  0.0858  0.2522
18024W        W36878   2.159   6.728  16.361 -0.0321  0.1345 -0.1949
18025W        W36879   7.283   9.569  16.231 -0.2360  0.0113 -0.1709
18026W        W36880   8.693   1.851   0.625  0.0042 -0.1801  0.0738
18027W        W36881   0.372   8.394   4.098  0.0437 -0.2816 -0.0542
18028W        W36882  16.780   6.476  15.859 -0.0414 -0.1784 -0.1801
18029W        W36883   3.362   3.506   4.360  0.0148 -0.0725 -0.0667
18030W        W36884   0.438  13.595   0.330  0.2932  0.1349  0.1339
18031W        W36885   0.371  12.023   4.782  0.0418 -0.1551 -0.1777
18032W        W36886   6.659   1.607  16.212 -0.0862  0.2261 -0.1714
18033W        W36887   3.622   7.090  14.171 -0.0873  0.2016 -0.1053
18034W        W36888   9.475   5.721  15.076  0.0346  0.1195  0.2192
18035W        W36889   6.386   3.943  12.408 -0.2683  0.4551  0.0698
18036W        W36890  13.589   8.923  13.857  0.0439 -0.1092 -0.2276
18037W        W36891   5.758   0.515  14.339  0.2384  0.1538 -0.0600
18038W        W36892   4.084   0.374   0.892 -0.0561  0.2283  0.2113
18039W        W36893   0.980   8.847   3.082 -0.0457  0.1629 -0.0539
18040W        W36894   0.331  14.584   0.813  0.2205 -0.2055 -0.1733
18041W        W36895  14.118  14.203  16.482  0.0476  0.2420 -0.0160
18042W        W36896  11.006  11.293  14.932 -0.0793  0.1737  0.1134
18043W        W36897   4.934  11.478  16.683 -0.2835  0.0222 -0.2233
18044W        W36898  13.550   5.676  16.389 -0.1686  0.0318 -0.2081
18045W        W36899  16.348   7.551  12.445 -0.1053  0.0614  0.3198
18046W        W36900   7.266   7.918   3.595 -0.2507 -0.2427 -0.0948
18047W        W36901   5.163   1.672  14.527  0.1382  0.0132 -0.1214
18048W        W36902  12.953  14.379  13.459  0.0413  0.1057  0.0182
18049W        W36903  11.956  14.973  14.278  0.1400 -0.0258  0.0847
18050W        W36904  14.915  13.712   2.307  0.0869 -0.0988 -0.0953
18051W        W36905   0.670   3.235   0.548  0.2720 -0.0474  0.2855
18052W        W36906   7.686   3.944  13.895  0.1179 -0.1243 -0.4297
18053W        W36907   3.674  12.894  14.243 -0.5909 -0.4524  0.1194
18054W        W36908  15.132  12.065  15.165 -0.1408  0.3982 -0.0595
18055W        W36909   8.894   7.985  13.996 -0.1695 -0.2916 -0.1428
18056W        W36910   9.098   1.623  14.538  0.0007 -0.0836  0.0263
18057W        W36911   0.267   8.986   6.138 -0.1244  0.3473  0.1072
18058W        W36912  11.857   7.533  12.766 -0.1092  0.2596  0.1605
18059W        W36913   2.736  11.883   3.159 -0.1908 -0.2504 -0.1563
18060W        W36914  14.164  16.958  15.614 -0.4419  0.0555  0.3351
18061W        W36915   7.148   3.461   2.566 -0.2492 -0.0219 -0.2154
18062W        W36916   7.519  10.601   3.310  0.0348  0.2150 -0.0037
18063W        W36917  10.693  17.022   1.686  0.0859  0.1640 -0.0797
18064W        W36918   8.947  15.165  11.089  0.1299  0.0657  0.0356
18065W        W36919   7.452   9.507   4.716  0.2358  0.2985  0.0980
18066W        W36920  10.180   2.555   1.340 -0.0229  0.3228 -0.1108
18067W        W36921  16.054   2.957  15.637  0.0449  0.0325  0.2660
18068W        W36922  16.980  11.946   2.320  0.0053 -0.0698 -0.1318
18069W        W36923  15.481   7.690   0.362 -0.0153 -0.4358 -0.2090
18070W        W36924  14.055  10.702   4.124 -0.0581 -0.1656 -0.0784
18071W        W36925   6.279  10.914  13.439  0.0255 -0.1089 -0.2523
18072W        W36926   5.846   9.240   2.268  0.1168  0.2296  0.1343
18073W        W36927  14.332  10.007   2.551 -0.1276 -0.2273 -0.0398
18074W        W36928   8.851  10.499  13.077  0.2484 -0.2357  0.2448
18075W        W36929   8.325   2.076   3.277 -0.0470 -0.2360  0.0716
18076W        W36930  14.434   9.974   5.689  0.1628 -0.6937  0.0424
18077W        W36931  12.335  12.512  15.530  0.0054  0.1148  0.0495
18078W        W36932  12.920  13.867  17.150 -0.0488  0.2526  0.4737
18079W        W36933   0.917   0.334   4.022  0.0024  0.0298 -0.1736
18080W        W36934   1.962   3.151   0.650 -0.0877 -0.2157 -0.0504
18081W        W36935  14.291   7.697   3.306  0.3093  0.3107  0.2090
18082W        W36936   8.574   5.987  14.083  0.2532  0.1293 -0.1720
18083W        W36937  10.370  11.213   1.095 -0.1399  0.1747 -0.0974
18084W        W36938   7.692  16.384   0.058 -0.0732  0.1931  0.1426
18085W        W36939   4.357   7.095   2.947 -0.3630  0.1211 -0.1735
18086W        W36940   1.984  13.150   4.469 -0.1613 -0.2817 -0.0012
18087W        W36941  13.171   9.032  13.098 -0.2047  0.0764 -0.0567
18088W        W36942  11.855   5.666  14.742  0.2307 -0.1418  0.1499
18089W        W36943   9.576  16.997  13.503  0.0005 -0.0759 -0.0686
18090W        W36944  11.019   4.072   3.282 -0.0607 -0.1585 -0.0254
18091W        W36945  10.075   4.350   3.063 -0.2259 -0.1909 -0.0238
18092W        W36946   4.959  17.196  16.227  0.0837 -0.2278  0.0283
18093W        W36947   3.575   8.929  16.823 -0.2289 -0.1505 -0.0376
18094W        W36948  11.985  10.191  16.257  0.0542 -0.2451 -0.0251
18095W        W36949   6.985   4.614  10.854  0.1486 -0.2072 -0.2430
18096W        W36950   5.687   7.919  14.018  0.1282 -0.1563 -0.6162
18097W        W36951  14.102   9.339  16.233  0.0253 -0.3238 -0.0059
18098W        W36952  17.003   9.786   2.449  0.3437 -0.1145  0.0991
18099W        W36953  12.979   5.631   4.459  0.2695  0.0783 -0.1417
18100W        W36954  12.842   9.367   1.099 -0.1683 -0.3092  0.1980
18101W        W36955   3.506  12.490   2.095  0.3117  0.0942 -0.0610
18102W        W36956  12.868   1.333   0.754  0.3208 -0.0394 -0.2775
18103W        W36957   8.665  17.082  16.806 -0.1870  0.2166  0.1718
18104W        W36958  11.041   4.538   3.489  0.0753 -0.2237  0.0959
18105W        W36959   3.690   8.562  13.111  0.2635  0.5942 -0.3139
18106W        W36960  16.011   2.604   4.135 -0.2406  0.0380 -0.0227
18107W        W36961  15.187  11.455   0.928 -0.0727 -0.1474  0.2585
18108W        W36962  11.185   1.747  14.903 -0.0259  0.0274 -0.0486
18109W        W36963   1.763   8.308  11.902 -0.0653 -0.1507  0.1839
18110W        W36964   5.100   5.148   3.002 -0.0770  0.2108 -0.0002
18111W        W36965   8.497  14.534  15.936  0.1102  0.3117 -0.3313
18112W        W36966  14.159   1.352  13.806  0.0133 -0.1198 -0.2066
18113W        W36967  10.541  14.972   5.001 -0.2168 -0.4438  0.1785
18114W        W36968  14.013   3.612   1.103  0.0157  0.1954  0.0596
18115W        W36969   0.731  11.815   2.058  0.0960  0.0513  0.3343
18116W        W36970   8.258   2.177  13.968 -0.0159  0.0986  0.0413
18117W        W36971  11.565  16.028  16.047 -0.1075  0.1659  0.0879
18118W        W36972  10.321  16.446  16.768 -0.0919 -0.1121  0.1358
18119W        W36973  11.050  13.572   4.659  0.1134 -0.1766 -0.0001
18120W        W36974   5.730   1.714  17.240 -0.1520 -0.1556 -0.1773
18121W        W36975   5.155   6.772   5.460  0.1514  0.3818  0.1784
18122W        W36976  15.823  17.219  15.133 -0.1696  0.0840  0.1374
18123W        W36977   7.685   8.436  12.377 -0.1765 -0.2402  0.0851
18124W        W36978   0.242  12.229  15.780 -0.1522 -0.0984 -0.0775
18125W        W36979  14.959   4.633  15.469  0.0567  0.4595 -0.0785
18126W        W36980   3.669   7.232  17.016  0.2613  0.2103 -0.0829
18127W        W36981   6.855  11.813   2.953 -0.2151 -0.1470  0.1045
18128W        W36982   9.354  11.237  12.107  0.1077 -0.0686  0.1305
18129W        W36983   1.832   2.297  15.571  0.2204  0.0105 -0.3791
18130W        W36984  10.238  15.001   3.007 -0.1256 -0.2754  0.1064
18131W        W36985  11.923   2.112   4.881 -0.0328  0.1775 -0.3805
18132W        W36986   2.836   5.808  12.691 -0.2127 -0.0714  0.2430
18133W        W36987   9.563   8.600   4.601  0.0844  0.6742  0.3294
18134W        W36988   1.638   9.420   3.319 -0.1689  0.2033  0.0921
18135W        W36989   9.109   8.840  13.629  0.1099  0.0511  0.1661
18136W        W36990  14.067   3.639   2.828  0.1654  0.0441 -0.1065
18137W        W36991  12.863  10.269   3.917  0.0773  0.1513 -0.0772
18138W        W36992   8.305   0.572  12.526 -0.1165  0.4796 -0.0040
18139W        W36993   0.474   3.870   0.231 -0.2436  0.1287 -0.1889
18140W        W36994   9.197   7.003  13.060 -0.2925 -0.0308 -0.1812
18141W        W36995   2.498  13.352  15.049 -0.0368 -0.0956 -0.2641
18142W        W36996  15.454   0.411  13.844 -0.3030 -0.0161 -0.1570
18143W        W36997   7.254   5.407  12.185  0.4205  0.1122 -0.0698
18144W        W36998   7.485   1.707   1.996 -0.0159  0.1498  0.2115
18145W        W36999  14.707   4.639  17.000  0.0649  0.0413 -0.0009
18146W        W37000   7.177   4.078  13.922 -0.2771  0.0493  0.0790
18147W        W37001   4.423   4.381   3.353 -0.2134 -0.3094  0.0631
18148W        W37002   5.051   1.224   0.495 -0.0068 -0.3529  0.0341
18149W        W37003   7.406  14.302  14.777 -0.0216  0.0966 -0.2433
18150W        W37004   8.250  15.470  12.308 -0.1969  0.0244  0.1601
18151W        W37005   0.645   7.707   0.509 -0.3342  0.0673 -0.1836
18152W        W37006   6.464  14.095   1.289  0.0470 -0.0979 -0.1730
18153W        W37007  14.608   0.334   2.331  0.0920 -0.2016 -0.2649
18154W        W37008  11.424   6.450  12.325  0.0385  0.0772  0.2977
18155W        W37009   8.203   5.495  15.790 -0.0550 -0.2044  0.0009
18156W        W37010  14.542   7.494   2.896  0.0889 -0.2511  0.1916
18157W        W37011  14.487  10.072  14.878  0.3614  0.0498  0.1570
18158W        W37012  11.375   6.957  17.247  0.0503  0.1323  0.0368
18159W        W37013   0.059  13.857  15.372 -0.0353  0.2904  0.1836
18160W        W37014  11.575  10.648  17.077  0.2128  0.0801 -0.2339
18161W        W37015  11.178   7.450   3.783 -0.0961 -0.1030 -0.3597
18162W        W37016   6.589   4.063  16.058 -0.2519  0.2086 -0.0834
18163W        W37017   2.050   0.903  14.054 -0.2153 -0.1247 -0.2104
18164W        W37018  14.299  13.414  13.332 -0.1120  0.0555 -0.1313
18165W        W37019  11.830   6.002   4.648 -0.1888 -0.1928  0.0172
18166W        W37020  16.717   7.311  16.342 -0.2993 -0.2228 -0.0370
18167W        W37021  13.734  12.707   1.781  0.1793  0.2816 -0.1948
18168W        W37022   7.734  12.308  12.809 -0.0327  0.0049 -0.1038
18169W        W37023   4.103  13.560   4.600  0.1950  0.1473 -0.1236
18170W        W37024  15.214   8.423  12.909  0.1346  0.1622  0.2856
18171W        W37025  11.135  10.602  13.778 -0.1959  0.1921  0.1440
18172W        W37026   5.834  13.226  14.590 -0.0159 -0.2028 -0.2440
18173W        W37027   4.600   5.680   4.561 -0.4029 -0.3374  0.0104
18174W        W37028  14.687  12.972   1.860 -0.0089 -0.3735 -0.2158
18175W        W37029   8.444  13.668   2.119  0.0123 -0.2008  0.1764
18176W        W37030  12.676   1.239   5.031  0.1390  0.0178 -0.0797
18177W        W37031  11.194   8.470  15.846  0.4628  0.1879  0.0288
18178W        W37032  15.485   2.025   2.684 -0.1694 -0.0340 -0.1909
18179W        W37033  10.859   3.801  13.983 -0.0009 -0.2889 -0.1622
18180W        W37034   1.857   2.078  14.247 -0.1923  0.1363  0.2116
18181W        W37035  11.773   8.675  15.078  0.1058  0.1704 -0.1667
18182W        W37036  15.574  14.800  14.098  0.0899  0.1890 -0.1205
18183W        W37037  15.607   7.783  13.005 -0.0744 -0.0873  0.2787
18184W        W37038   7.777  15.427  12.445  0.0311 -0.0267  0.0170
18185W        W37039   8.579   5.214  13.936 -0.1449  0.0009 -0.0524
18186W        W37040  16.406   3.326   0.213  0.2074 -0.2477 -0.3893
18187W        W37041  14.712   0.635  13.435 -0.1747  0.0465 -0.0182
18188W        W37042  16.226   2.273   4.426  0.0223 -0.1914  0.3448
18189W        W37043  12.422  10.895   0.127 -0.2201  0.2862 -0.1240
18190W        W37044   5.476   2.064  16.161 -0.0438  0.1589 -0.1318
18191W        W37045  13.069   9.875   3.080 -0.0896  0.0360 -0.0227
18192W        W37046   1.589   7.308   0.991  0.3170 -0.0260  0.0556
18193W        W37047   5.177  12.011   3.558  0.1802 -0.2561 -0.0932
18194W        W37048  13.613   2.783   3.190 -0.0162 -0.0512 -0.0982
18195W        W37049   3.743  17.284   1.177 -0.1493  0.3479  0.2168
18196W        W37050  17.035  11.166   3.614  0.0122 -0.2992 -0.1279
18197W        W37051  13.731   6.742   0.822  0.0610  0.1716  0.1239
18198W        W37052   0.808  11.682   4.680  0.0119 -0.2509 -0.1607
18199W        W37053  16.515  11.894   3.427 -0.0980 -0.2102  0.3764
18200W        W37054   2.210   4.317  14.451  0.0344  0.3746  0.3679
18201W        W37055   2.674   1.135  13.698  0.0114 -0.1352  0.0097
18202W        W37056   6.032  11.349  13.386  0.3165  0.2213 -0.5510
18203W        W37057   5.040   7.997  16.582  0.1993  0.0591  0.2818
18204W        W37058   6.348   7.529   2.267  0.0238  0.0895  0.5436
18205W        W37059   6.236  12.943  17.118  0.0416  0.0340 -0.0487
18206W        W37060   3.243  11.610   0.634 -0.0432  0.0781  0.1871
18207W        W37061  11.308   4.402  17.073 -0.0544  0.0840  0.1588
18208W        W37062   4.819  16.956  14.888  0.2695  0.2572 -0.1323
18209W        W37063   6.219   0.562  15.369 -0.1554  0.0553 -0.0170
18210W        W37064  12.575   8.795   5.344  0.2009  0.1974  0.2438
18211W        W37065   6.344   1.452   3.614  0.1166  0.1345 -0.1305
18212W        W37066  16.009   1.551  12.170  0.2556  0.1230 -0.1891
18213W        W37067   6.499   2.421  14.749 -0.3044  0.0996 -0.3796
18214W        W37068   7.340   6.351   2.163 -0.1012 -0.0395  0.0651
18215W        W37069  10.636  15.294  16.239 -0.3098 -0.1519 -0.1142
18216W        W37070  12.037   6.769   0.127  0.0726 -0.1122  0.0025
18217W        W37071  15.279   3.263  12.755  0.0853  0.0601 -0.0885
18218W        W37072  17.167   9.847  14.951  0.0281  0.2855 -0.0754
18219W        W37073   6.280   4.434  16.231 -0.0502 -0.1138  0.2410
18220W        W37074  14.138   1.173  15.021  0.0378  0.2717 -0.1023
18221W        W37075  13.240  14.379   3.452 -0.3328  0.0109  0.0768
18222W        W37076   7.604  10.435   5.688  0.2877  0.1175 -0.0941
18223W        W37077   1.878   3.862  12.586 -0.0378 -0.1669  0.0597
18224W        W37078   1.785  10.391  14.596  0.1320 -0.0894 -0.0849
18225W        W37079   9.827   1.982  16.154  0.0476 -0.0366 -0.0034
18226W        W37080   7.789   2.132   3.439 -0.1108 -0.2254  0.0188
18227W        W37081  16.309   3.076  16.965  0.3143  0.1270 -0.0975
18228W        W37082   8.582   7.440   3.884  0.1592 -0.3007 -0.1505
18229W        W37083   3.411   8.852  13.631  0.1173 -0.0161  0.3054
18230W        W37084   7.576   3.291  14.903  0.0825 -0.3133 -0.3705
18231W        W37085   3.876   6.325  13.901 -0.2307 -0.3385 -0.1397
18232W        W37086  16.021  16.209  11.921  0.3243  0.3303  0.2830
18233W        W37087  10.599   9.187   4.802  0.1126 -0.1906 -0.0163
18234W        W37088   1.064  12.203   2.464  0.1092 -0.0544  0.0162
18235W        W37089  12.223   9.411  17.197  0.0549 -0.1159  0.3394
18236W        W37090  13.939  14.973  15.385  0.5631  0.1397  0.2015
18237W        W37091   0.126   9.307   0.194  0.0264 -0.1727  0.1315
18238W        W37092   0.261  15.887   4.343 -0.1020  0.0961  0.0027
18239W        W37093   0.967   9.299   3.060 -0.1333 -0.0185  0.2770
18240W        W37094   6.218   1.155  12.781  0.0558 -0.0528  0.3261
18241W        W37095   0.521   6.476  15.457 -0.0673 -0.0199  0.0408
18242W        W37096  16.773  12.907  14.800 -0.2146  0.0992  0.2781
18243W        W37097  16.635   9.561  14.315 -0.4064 -0.0177 -0.2011
18244W        W37098  10.236   2.165  14.345  0.0581 -0.0552 -0.0989
18245W        W37099  15.994   7.463  13.255  0.2044 -0.2474 -0.0863
18246W        W37100  17.414  15.244   0.807  0.3182 -0.1227 -0.1465
18247W        W37101   2.359  12.269   4.568  0.0851 -0.0929 -0.1850
18248W        W37102   8.544   6.114   3.707  0.1356  0.0088  0.1459
18249W        W37103   1.860   6.138  15.758  0.2219 -0.0637  0.1582
18250W        W37104  10.040   2.227  15.333  0.1474  0.3064  0.1256
18251W        W37105   6.190   0.262   1.858  0.0453 -0.0680 -0.1199
18252W        W37106   9.266   9.607   0.269 -0.1518  0.1531  0.1219
18253W        W37107   9.124  12.862  13.385 -0.0298  0.3172  0.1212
18254W        W37108  12.897   9.934   1.735 -0.1960  0.1708  0.2369
18255W        W37109  14.473  15.821  14.325  0.0772 -0.0569  0.1021
18256W        W37110  14.352   9.189  14.948  0.0159  0.0531 -0.0689
18257W        W37111   9.721  11.755   5.945 -0.0036  0.0376  0.0787
18258W        W37112  11.931   2.190   2.545 -0.0934 -0.2073 -0.5415
18259W        W37113   3.309   8.235   3.734 -0.0496  0.2546  0.0647
18260W        W37114  11.729  13.376  15.763  0.0139  0.0759  0.1350
18261W        W37115   1.584   7.366   5.260 -0.2770 -0.0004  0.0439
18262W        W37116  15.836  13.863  15.453 -0.1877 -0.2339 -0.1822
18263W        W37117  14.876  12.448   1.878  0.1531 -0.1061 -0.2220
18264W        W37118   1.629   1.411   4.397 -0.1037  0.2233 -0.1539
18265W        W37119  11.898   9.926  12.916  0.0136 -0.0220 -0.1172
18266W        W37120  14.830  17.405  13.925 -0.0382  0.0678 -0.1801
18267W        W37121  13.547  17.136  12.154  0.2278  0.0489  0.1336
18268W        W37122   8.951   5.396   2.383 -0.1847  0.0551  0.2752
18269W        W37123   7.537  16.289   1.033  0.2223  0.0534  0.2859
18270W        W37124   0.962   4.446  13.179 -0.1504 -0.3793  0.1371
18271W        W37125   5.184  11.117   0.641  0.0073  0.0486  0.1130
18272W        W37126  12.919  15.047  13.114 -0.2395 -0.3110 -0.0101
18273W        W37127   8.987  17.542   1.054 -0.2978  0.2256  0.0288
18274W        W37128   0.762  13.930  16.339  0.1761 -0.3150  0.2057
18275W        W37129  10.747   4.687   6.054  0.2964 -0.2186  0.2675
18276W        W37130   6.096  10.189  16.310 -0.0207  0.2421 -0.0884
18277W        W37131   8.961  16.030  14.452  0.1077  0.4936  0.5050
18278W        W37132  12.716   0.322  17.064 -0.0103 -0.3278  0.0177
18279W        W37133  10.164   3.679   1.787 -0.1887  0.1621  0.0728
18280W        W37134  11.676  10.312   0.242  0.3417  0.0145 -0.2145
18281W        W37135  13.604   1.420  11.579 -0.0491  0.1271 -0.1173
18282W        W37136  14.399   6.135  11.378  0.0411 -0.0132  0.0162
18283W        W37137   6.554   1.907  14.762  0.0348 -0.3623  0.0808
18284W        W37138   3.880   6.165   2.513  0.0312  0.0469 -0.0919
18285W        W37139   1.283   4.920  12.495 -0.0164 -0.1213  0.2376
18286W        W37140  12.274   3.529   1.935 -0.1504  0.0487 -0.0235
18287W        W37141   1.633  16.727  16.299  0.0758 -0.0238  0.1768
18288W        W37142   7.024  15.478  12.763  0.2068  0.0603 -0.2314
18289W        W37143   2.578   2.209   2.133  0.1394  0.1304 -0.3931
18290W        W37144   3.264   7.715  12.987  0.1769 -0.2120 -0.0340
18291W        W37145  16.819  12.732  16.430 -0.2143 -0.3241  0.0045
18292W        W37146   9.615   5.363   4.841 -0.1282 -0.0336  0.0010
18293W        W37147  14.764  11.317   3.088 -0.1004 -0.2079  0.1259
18294W        W37148   3.249   2.743   2.076  0.2218 -0.0316  0.2838
18295W        W37149   7.053   0.190   0.009  0.2093  0.2505  0.0092
18296W        W37150  10.541   8.280   3.552  0.0095  0.0461  0.1906
18297W        W37151   8.293  11.098  13.396  0.0668  0.1570  0.1486
18298W        W37152  13.345  15.226  16.574 -0.1479  0.2371  0.1143
18299W        W37153   1.217   2.043   3.414  0.2545 -0.2112 -0.1890
18300W        W37154  10.314  10.281  13.740 -0.1067 -0.0256  0.1832
18301W        W37155   0.634   9.837   5.455  0.0619 -0.1860  0.0035
18302W        W37156  17.193   5.034   2.330  0.0017 -0.3727  0.0367
18303W        W37157  11.828   4.381  12.170  0.1042  0.2226  0.1825
18304W        W37158  13.642   8.288  17.202  0.1164  0.0609  0.2054
18305W        W37159  10.268   9.010  15.009 -0.0509 -0.1710 -0.0171
18306W        W37160   5.624   5.856   2.684 -0.0137 -0.0428  0.4358
18307W        W37161  10.878   9.340   0.675  0.1097  0.0487  0.0655
18308W        W37162   4.929   7.965   3.624 -0.2357 -0.0839 -0.0359
18309W        W37163  14.670   8.077  13.091  0.0596 -0.1448 -0.1786
18310W        W37164  12.949  13.688  16.701 -0.0696  0.0116  0.1089
18311W        W37165   2.240   7.900  13.849  0.2292  0.2540  0.0039
18312W        W37166   2.879   0.309   1.554 -0.0339 -0.0725  0.1897
18313W        W37167   1.439  12.918  13.285  0.0864 -0.0907 -0.0368
18314W        W37168   8.834  15.502  14.492 -0.2451 -0.1695 -0.1237
18315W        W37169   2.560   1.567  14.574 -0.1295 -0.2023  0.1021
18316W        W37170  17.298  14.375   3.279 -0.3224  0.0785  0.1036
18317W        W37171  16.862   4.330  13.035 -0.1441 -0.0240  0.1674
18318W        W37172  12.624   3.454   2.295 -0.1785 -0.2015  0.0088
18319W        W37173   6.476   9.529   1.606  0.0271 -0.1145 -0.1835
18320W        W37174  10.529   0.572  13.958 -0.1076  0.0409  0.4051
18321W        W37175   2.206  13.455  16.813 -0.1061  0.3684 -0.0152
18322W        W37176   2.523   4.443  16.679  0.0837 -0.0841  0.1746
18323W        W37177   1.868   7.838  12.352 -0.1613  0.1761 -0.0001
18324W        W37178   2.886   5.797  11.716 -0.2296 -0.0069 -0.1097
18325W        W37179   9.655   1.297  13.230  0.0033 -0.1462 -0.0477
18326W        W37180   5.344  17.164  17.091  0.3282 -0.2141 -0.0113
18327W        W37181  10.530   4.521   3.469  0.0281  0.0414 -0.0302
18328W        W37182   5.046  12.301  15.452 -0.2978 -0.0750  0.2108
18329W        W37183  16.179   5.031   4.141  0.2726 -0.3781  0.0016
18330W        W37184  14.126  10.664  14.192 -0.2112 -0.4798 -0.2679
18331W        W37185  16.154   3.853   1.127  0.0432 -0.3368  0.2699
18332W        W37186  10.197   4.932  17.113 -0.1853  0.1201 -0.0061
18333W        W37187  13.886   1.373   0.807 -0.1394 -0.2626  0.1380
18334W        W37188  14.888  14.354  14.806 -0.1745 -0.1855 -0.1540
18335W        W37189  14.130   6.932  13.763  0.0241 -0.0590  0.2421
18336W        W37190   3.108   5.429   3.995  0.4246  0.2497 -0.1829
18337W        W37191   1.011   6.796  17.088  0.0802 -0.0240 -0.1624
18338W        W37192   2.640   4.542   4.025 -0.2260 -0.0986  0.1756
18339W        W37193   7.360   4.651  15.023 -0.0014 -0.0143 -0.0507
18340W        W37194  10.247  10.679  12.837 -0.0784  0.3412  0.3068
18341W        W37195   7.390  11.610   0.416 -0.3100 -0.1956  0.0736
18342W        W37196   8.746  12.161   4.839  0.2170 -0.3479  0.1465
18343W        W37197  14.230  14.680   3.534  0.1136 -0.0402 -0.1103
18344W        W37198   6.953   1.015  14.894 -0.1442  0.5548 -0.0763
18345W        W37199  17.358   4.916   4.486  0.2262  0.1942  0.1372
18346W        W37200   4.473   6.040   1.410 -0.1627 -0.0314 -0.1115
18347W        W37201  15.062  17.571  11.865 -0.1244  0.0811 -0.0071
18348W        W37202  17.403  17.111   3.957 -0.2483 -0.0547 -0.1923
18349W        W37203   9.328  17.546   1.646 -0.1748  0.0139 -0.2911
18350W        W37204   4.356   4.929  13.779 -0.2042 -0.0697  0.0555
18351W        W37205   6.355   7.879   3.799 -0.2703  0.0165 -0.2185
18352W        W37206   8.089   1.855   1.992  0.0929  0.3502 -0.1043
18353W        W37207  15.700   6.401   5.535  0.2938 -0.1602  0.0866
18354W        W37208   7.051  16.179   3.782 -0.3751  0.0099 -0.1142
18355W        W37209   6.904   2.407  13.758 -0.1678 -0.0351 -0.1630
18356W        W37210   1.407   7.284  14.172  0.2248  0.0206  0.2304
18357W        W37211  15.825   6.718  11.890  0.0235  0.0141 -0.1794
18358W        W37212   2.542  15.265   1.376  0.1538  0.2350 -0.1201
18359W        W37213   3.078  12.702   0.623  0.0976 -0.2888  0.0580
18360W        W37214   9.197   5.632  12.252  0.1891 -0.0900 -0.0727
18361W        W37215  13.535  11.321   4.417  0.1799 -0.2440  0.1203
18362W        W37216  14.091  16.238   2.773 -0.0016  0.2335  0.3128
18363W        W37217   8.337  11.019   4.135  0.2010  0.0584  0.3272
18364W        W37218   6.150  14.734  15.585 -0.3503  0.0217 -0.0253
18365W        W37219   6.819  10.111   0.538  0.2462 -0.1631  0.2378
18366W        W37220   3.683   9.463   0.400  0.1871 -0.0790 -0.1786
18367W        W37221  12.374  14.571  15.603  0.0667 -0.1324  0.0997
18368W        W37222   3.022   2.333   2.250 -0.0933  0.1167 -0.1467
18369W        W37223   3.010   1.375  14.289  0.1724 -0.1683  0.0298
18370W        W37224   7.674  12.891   1.085  0.1263  0.3025 -0.0384
18371W        W37225  12.319   4.731   2.507 -0.0822 -0.0958  0.0064
18372W        W37226  13.935   6.205   1.039 -0.1800 -0.0406 -0.0673
18373W        W37227  16.610  13.545  15.272  0.1740 -0.1095 -0.3171
18374W        W37228   8.055  12.686  17.100  0.2689  0.0586 -0.1003
18375W        W37229   6.476   3.311   2.022  0.3089 -0.0122  0.0541
18376W        W37230  17.454  16.572   3.238 -0.0385  0.4780  0.1283
18377W        W37231   2.141   1.983   1.833 -0.0037 -0.1527  0.0758
18378W        W37232  11.484  17.324   2.565 -0.0689  0.0104  0.0717
18379W        W37233   7.226   3.306  13.573 -0.1083  0.1866 -0.1774
18380W        W37234   3.030  15.558   3.154  0.1989 -0.3373 -0.3330
18381W        W37235   9.621   9.761   1.034  0.0886 -0.0171 -0.0862
18382W        W37236   8.220   1.241   3.044  0.0407  0.2145  0.0239
18383W        W37237  13.628   2.364   3.445  0.0583 -0.0137  0.2210
18384W        W37238  16.358   9.747  16.623  0.3516 -0.0437 -0.1241
18385W        W37239  15.650  17.236  13.839  0.0434  0.0561 -0.2401
18386W        W37240  16.090  12.885   4.289  0.4588 -0.0320 -0.5403
18387W        W37241   3.964   8.635   0.458  0.0328  0.0091 -0.1311
18388W        W37242   3.577  11.028   3.013 -0.0530 -0.1267 -0.2621
18389W        W37243   9.818   3.706  15.601 -0.3648  0.1430  0.0142
18390W        W37244   7.096   0.345  16.685  0.0164 -0.4325  0.2262
18391W        W37245  11.393   9.202   3.158 -0.4250  0.1392  0.1925
18392W        W37246  16.772  11.204  16.954 -0.1261  0.1090 -0.0056
18393W        W37247   8.444  13.810  14.695 -0.0688  0.2017  0.0972
18394W        W37248  15.954   5.066   4.982  0.0538  0.0247 -0.1141
18395W        W37249   5.747  15.269   0.391 -0.0866  0.2209 -0.0778
18396W        W37250   2.203   6.639  14.878  0.1526  0.1973 -0.1166
18397W        W37251  17.509  10.773   2.831 -0.2062 -0.0164  0.2060
18398W        W37252  15.572  14.236   0.285 -0.0512 -0.0891  0.2171
18399W        W37253   5.852   0.712   2.217 -0.1587 -0.0354  0.4128
18400W        W37254   3.224  15.577   5.249  0.0603 -0.2651 -0.0113
18401W        W37255   4.881   0.154   0.162 -0.1379 -0.3380  0.2128
18402W        W37256  15.090   0.240  15.105 -0.0956  0.0924 -0.3033
18403W        W37257   5.293   9.125  12.686  0.1146 -0.3397  0.0472
18404W        W37258  17.142  16.359  13.179 -0.1437 -0.2749  0.2199
18405W        W37259  14.693   6.314  14.272  0.1570  0.1872  0.1235
18406W        W37260  11.142  15.868  15.793  0.0823 -0.1995  0.5429
18407W        W37261  10.513   9.294  12.173  0.1630  0.0041  0.3162
18408W        W37262  12.218   5.033  13.142 -0.1660  0.0276 -0.3984
18409W        W37263   1.601  16.166   3.713 -0.1317  0.1126 -0.1385
18410W        W37264  15.498  10.953   5.311  0.1681 -0.0514  0.3257
18411W        W37265   5.583   1.761  15.059 -0.0807 -0.2453  0.2594
18412W        W37266  16.010  11.499   0.448  0.1376 -0.4030  0.0761
18413W        W37267   2.916   8.150   4.528  0.5055  0.2471  0.0285
18414W        W37268   1.264   8.425  12.437  0.0242 -0.0756 -0.3485
18415W        W37269  14.943  16.518  15.068 -0.0237 -0.3532 -0.1056
18416W        W37270   5.391   3.057   4.304  0.1567 -0.0093  0.1057
18417W        W37271  16.787  12.252  12.389 -0.0428 -0.2010  0.1077
18418W        W37272  12.399   1.361   2.194  0.1202  0.3121  0.1936
18419W        W37273  17.312   5.031  12.367 -0.3426  0.3452  0.0011
18420W        W37274  14.845  11.504   0.199 -0.0640  0.0811  0.1921
18421W        W37275  11.980  15.596  15.232  0.2296 -0.1664  0.0960
18422W        W37276  13.310   3.193  14.697 -0.0911 -0.0470 -0.0655
18423W        W37277  14.391  10.093  17.147  0.1063  0.1464  0.4188
18424W        W37278  10.414   9.727   4.701  0.1368  0.0542 -0.0173
18425W        W37279   1.785   6.565   0.520 -0.1707 -0.1266 -0.0109
18426W        W37280   7.950  13.336   4.801 -0.2607  0.1464  0.1020
18427W        W37281   1.171  13.134   1.685 -0.0283 -0.0005  0.0761
18428W        W37282   3.824  17.070  16.691 -0.1680  0.0282 -0.3060
18429W        W37283   3.049  15.320  17.142  0.0383 -0.2153 -0.0579
18430W        W37284  13.550  14.673  14.629  0.1009 -0.0187 -0.0550
18431W        W37285   1.253  14.157  13.019  0.0823 -0.0616 -0.1403
18432W        W37286  14.651  14.665   1.854 -0.1079 -0.0838  0.2767
18433W        W37287   2.067   8.740  15.095 -0.3761  0.0590 -0.2517
18434W        W37288  11.663   8.920  14.069  0.0315  0.2303 -0.2617
18435W        W37289   6.542   3.509   0.924  0.2410  0.3806  0.1156
18436W        W37290  13.949  12.796   2.246 -0.1930  0.1895 -0.1500
18437W        W37291   0.740  10.347  16.614  0.1743  0.0310 -0.1735
18438W        W37292   3.021  15.104  16.701  0.4206  0.1161 -0.0372
18439W        W37293   8.347  14.629  13.610  0.5029 -0.0017 -0.3199
18440W        W37294  10.458   1.780  15.255  0.0599 -0.0940 -0.0308
18441W        W37295  10.195   8.613   1.051  0.1825 -0.0544 -0.0902
18442W        W37296   8.594  12.751  15.868  0.2121 -0.0667  0.1130
18443W        W37297  11.477   5.774   5.010  0.0210  0.2741 -0.4194
18444W        W37298   9.565  12.955  16.258 -0.0559 -0.3034  0.2056
18445W        W37299   1.932   7.233   0.565  0.0885  0.1727  0.0476
18446W        W37300   2.179  15.091  12.659 -0.1497 -0.0715  0.1131
18447W        W37301  16.555  11.698   1.670  0.2136 -0.0191 -0.0117
18448W        W37302   8.322  16.757  14.056 -0.0802  0.0558 -0.0334
18449W        W37303  16.065   4.784  16.871 -0.2316  0.1557 -0.0420
18450W        W37304  16.694   8.628  15.813  0.1802  0.0942  0.0867
18451W        W37305  15.470   6.478   5.094 -0.1920 -0.4339 -0.0576
18452W        W37306  10.642   3.054   0.740 -0.0544 -0.2300 -0.0613
18453W        W37307  10.506   5.496   1.651 -0.1474 -0.0295 -0.3196
18454W        W37308  17.292   1.594   4.233  0.3092  0.1524 -0.0336
18455W        W37309  13.422  14.692  16.664  0.1849 -0.0683 -0.4743
18456W        W37310   3.374  16.800  15.306  0.0505 -0.0181 -0.2505
18457W        W37311   1.591  10.576   1.118  0.0519  0.0596 -0.2834
18458W        W37312  14.969   7.428  15.641  0.0214  0.0582 -0.1027
18459W        W37313   6.739   1.009   1.320  0.0688 -0.3242  0.0349
18460W        W37314   9.669  13.692  14.110  0.4603 -0.1166  0.0286
18461W        W37315   6.471  14.967   3.407  0.0727 -0.2207 -0.0929
18462W        W37316   4.777  11.844  13.766 -0.0795  0.0128 -0.1469
18463W        W37317  12.653   1.533  12.510 -0.0450  0.2342  0.0200
18464W        W37318   3.594   6.430   5.419 -0.1004 -0.1688  0.1054
18465W        W37319   0.279  16.946  16.593  0.3604 -0.0545 -0.0244
18466W        W37320  12.188  14.073  12.754  0.1662 -0.0677  0.1986
18467W        W37321  14.458   6.723  15.669 -0.0305  0.2167 -0.1260
18468W        W37322  12.153  10.431   4.551  0.0185  0.2087 -0.1517
18469W        W37323  12.627   1.926  14.683  0.0238  0.1191  0.2836
18470W        W37324   5.679   6.610   4.737  0.2574 -0.1022  0.0982
18471W        W37325   1.955   4.921  16.320 -0.0041  0.0473  0.0705
18472W        W37326   6.729  14.442   4.678  0.1090  0.1091  0.2919
18473W        W37327   4.914   6.043  13.616  0.1683 -0.2582 -0.1301
18474W        W37328  15.806   4.303  13.636 -0.1611 -0.2588  0.3685
18475W        W37329   4.589  11.559   2.555 -0.1961 -0.2396  0.0819
18476W        W37330   6.110  10.176  12.737  0.2469  0.1625 -0.0047
18477W        W37331   4.048  15.227  15.252  0.2456 -0.1878  0.2540
18478W        W37332  12.676   4.530  13.028  0.1546 -0.1921  0.3061
18479W        W37333  15.995   7.134   3.294  0.1603 -0.1556 -0.1784
18480W        W37334   0.050  13.421   2.952 -0.0218  0.0664 -0.1548
18481W        W37335  14.121   8.840   0.632 -0.1525 -0.2393  0.0081
18482W        W37336  16.819  16.948   3.333  0.2857  0.3387  0.2854
18483W        W37337   3.356   2.501   0.400  0.3264  0.5257 -0.3232
18484W        W37338   8.138   1.926   3.814 -0.2195  0.2552 -0.1161
18485W        W37339   7.591   6.336  14.665  0.0235  0.1163  0.1650
18486W        W37340  14.030  15.677  16.280  0.3753 -0.3034 -0.2225
18487W        W37341  15.444  17.498  15.117  0.0706  0.0769 -0.0852
18488W        W37342   4.582  16.487  14.772  0.0548  0.0420  0.0214
18489W        W37343  16.832   4.452   2.998  0.1786 -0.0034 -0.0402
18490W        W37344  16.627  17.444  16.961  0.2314  0.0278 -0.1748
18491W        W37345   4.891   9.760   1.671  0.0299  0.1155 -0.0012
18492W        W37346  13.684   9.702  16.426 -0.5330  0.0702  0.1419
18493W        W37347   1.208   6.072   1.267 -0.1102 -0.0124 -0.0750
18494W        W37348   6.328  16.113   3.216  0.0474 -0.3029  0.0142
18495W        W37349   4.919  12.280  15.951  0.1591 -0.1530  0.0424
18496W        W37350  11.121   3.120  15.207 -0.1260 -0.0378  0.2237
18497W        W37351  15.245   2.215   1.298  0.3012 -0.1060 -0.2197
18498W        W37352   5.803   1.914  14.496 -0.0723  0.1554 -0.1591
18499W        W37353   6.301  17.210   2.412 -0.2934 -0.4911  0.1572
18500W        W37354  13.895   1.220  11.904  0.1793 -0.0444 -0.0261
18501W        W37355   0.190   7.240  15.545 -0.1172 -0.1308  0.1439
18502W        W37356  13.293  12.289   1.931 -0.2685  0.1413  0.0116
18503W        W37357   8.373   0.469  14.313  0.0915  0.1209  0.0391
18504W        W37358  16.593  10.801   2.569 -0.0607  0.0943  0.2833
18505W        W37359   0.311  15.534   3.365  0.1201  0.3398 -0.0680
18506W        W37360  10.319   6.408  13.305  0.0665 -0.2675  0.1135
18507W        W37361   3.462   7.772   2.273 -0.1857  0.0660 -0.1918
18508W        W37362  14.599   4.564   1.808  0.0363  0.0867 -0.5393
18509W        W37363  14.474   3.469   1.242  0.0126  0.0606  0.0689
18510W        W37364   8.595   6.960   5.058 -0.3191  0.1043 -0.1100
18511W        W37365  16.941  16.979   2.542  0.0517 -0.0860 -0.3105
18512W        W37366  16.507   6.030  15.957 -0.1481 -0.1121 -0.0018
18513W        W37367   6.504   4.770  15.054  0.0861  0.1706  0.1621
18514W        W37368  14.158   2.207  14.584  0.3394  0.1520 -0.2037
18515W        W37369   0.771   1.005   1.909  0.3131 -0.3451  0.0187
18516W        W37370   3.347  10.109   4.003  0.1196 -0.0017 -0.0770
18517W        W37371   7.208   8.297  14.823 -0.0564 -0.4142  0.0361
18518W        W37372   5.545   8.746   1.215 -0.1340  0.1008  0.0910
18519W        W37373   8.234   4.381  16.187 -0.1696  0.0724  0.0358
18520W        W37374  10.993   3.884  17.085 -0.2472  0.1614  0.0971
18521W        W37375  10.662  12.660   5.095  0.1457  0.0778 -0.1366
18522W        W37376   7.406   5.842   1.535 -0.3551 -0.1463  0.2272
18523W        W37377  10.811   9.350  14.557 -0.0345 -0.0316 -0.0295
18524W        W37378  15.085  11.904  15.720  0.0423 -0.0241 -0.0821
18525W        W37379  10.627  12.777  15.407 -0.2103  0.1105  0.0955
18526W        W37380   1.916   6.382  16.684  0.0703 -0.2065  0.1762
18527W        W37381  15.418  15.717   4.830 -0.0761 -0.0683 -0.0317
18528W        W37382  11.501  10.341   1.567  0.1706 -0.2414  0.1030
18529W        W37383   3.610  13.071   2.375 -0.1314  0.1710  0.1217
18530W        W37384   1.164  10.302  17.202  0.0102  0.0456  0.0483
18531W        W37385   8.757   9.248   3.028  0.2124  0.1567  0.2387
18532W        W37386   1.336   3.003   1.387 -0.0543 -0.3077  0.2548
18533W        W37387  10.277  17.285  14.172  0.2074 -0.1526 -0.1930
18534W        W37388   4.219  12.916  15.015 -0.1158 -0.0122  0.1921
18535W        W37389   5.262   5.632   0.317  0.2837 -0.2009 -0.2171
18536W        W37390  17.583   2.024  15.164  0.0066  0.0106 -0.0464
18537W        W37391   5.998   0.739   4.576  0.0111  0.1280 -0.1354
18538W        W37392   7.909   4.260   2.480  0.0532 -0.0839  0.2850
18539W        W37393   7.407   0.288   4.322  0.1647 -0.0430 -0.0401
18540W        W37394  12.881   9.804   4.865  0.0548 -0.0963 -0.0540
18541W        W37395   0.134   5.377   2.949  0.2415 -0.3470  0.1695
18542W        W37396   5.872  15.448  12.809 -0.1564  0.3051  0.2065
18543W        W37397  15.717   4.575   2.223  0.1435  0.0381 -0.0949
18544W        W37398   8.009   9.642   0.007 -0.0597 -0.1559 -0.1465
18545W        W37399   4.446   9.996   1.334 -0.0526 -0.1925  0.1026
18546W        W37400  10.816   9.800  16.045 -0.2500 -0.1274 -0.1344
18547W        W37401   6.690  12.238   1.989  0.3285  0.0483 -0.4127
18548W        W37402   6.440  15.341   2.129 -0.0556  0.1008  0.0805
18549W        W37403   7.851  14.570  13.439  0.0255 -0.2423  0.0661
18550W        W37404  10.756   6.533  15.479  0.2020 -0.1875  0.4149
18551W        W37405  17.130   5.972   2.588  0.2259  0.1956  0.1283
18552W        W37406   9.328  11.649  12.433 -0.1096  0.1083 -0.3784
18553W        W37407   6.428  12.468  15.033 -0.1532 -0.1023 -0.1385
18554W        W37408  17.182  14.662  11.997  0.1520 -0.0030  0.1246
18555W        W37409   0.584   7.135   2.307  0.1368 -0.0183 -0.2160
18556W        W37410  12.163   4.598  12.858  0.0530  0.0556  0.1632
18557W        W37411  17.517   7.741   2.454 -0.3660 -0.1712 -0.2263
18558W        W37412   6.523   9.190   5.213 -0.2171  0.1104 -0.0160
18559W        W37413   0.292  16.375  16.425  0.3034 -0.1820 -0.0601
18560W        W37414   4.158   4.363  13.739 -0.0036  0.1182  0.2547
18561W        W37415   0.169  11.787   1.941  0.2172  0.4227  0.3131
18562W        W37416  16.428   5.650   2.501 -0.0475  0.0833  0.1540
18563W        W37417   5.857  14.936  14.039  0.1754 -0.6540 -0.0478
18564W        W37418  16.948   4.212   2.557  0.1890  0.0876  0.1032
18565W        W37419  16.993   3.615   3.169  0.1084 -0.0009  0.3634
18566W        W37420   9.640  10.695   2.210 -0.2636 -0.0308  0.0056
18567W        W37421   9.463  12.230  13.614 -0.1140  0.1275  0.3633
18568W        W37422   9.136   2.695   3.182 -0.0025  0.0950 -0.3664
18569W        W37423   7.143  13.227   3.407  0.0556  0.0976  0.3039
18570W        W37424  14.286   1.247   0.591 -0.2408  0.0689 -0.1849
18571W        W37425   4.667  17.543  12.808  0.1962  0.0296  0.2113
18572W        W37426   2.128  14.900  15.614 -0.0442 -0.2342  0.2087
18573W        W37427  16.705   6.516   1.306  0.3648  0.1379 -0.2444
18574W        W37428   5.263   3.142  14.990  0.0801 -0.2730  0.0299
18575W        W37429   4.630  17.232  16.712  0.2728  0.2131  0.0046
18576W        W37430   2.684  11.893  12.311  0.1246  0.0583  0.1078
18577W        W37431   3.973   3.733   3.217 -0.1599  0.1249  0.0772
18578W        W37432   4.423   2.157  12.762  0.1045 -0.0245 -0.1121
18579W        W37433   3.896  16.127  12.873  0.1593 -0.1317 -0.2889
18580W        W37434   4.611  11.860  15.330 -0.1986 -0.3937  0.1194
18581W        W37435   7.166   1.557  14.048 -0.0004 -0.2456 -0.1457
18582W        W37436   2.283  16.923  12.496 -0.1243  0.0479  0.3309
18583W        W37437  17.545  15.202   1.338 -0.0461  0.1435 -0.0445
18584W        W37438  12.749   3.834  13.041  0.0343  0.1196 -0.1037
18585W        W37439  17.428   0.713  15.155 -0.2678  0.0120  0.4227
18586W        W37440  11.700   3.288  14.636 -0.1579  0.1793  0.0023
18587W        W37441  11.542   1.664  16.509  0.2433  0.0233  0.0348
18588W        W37442   0.233   8.524   0.829 -0.2564  0.1085 -0.0655
18589W        W37443   0.613   3.070  12.620 -0.0596 -0.2048 -0.0792
18590W        W37444   5.593   9.045   2.758  0.1226  0.1344 -0.1428
18591W        W37445  10.933   8.906  15.904  0.0809 -0.0706 -0.1080
18592W        W37446   8.387  10.414  16.077 -0.2674 -0.0182  0.1141
18593W        W37447  16.291   6.605   2.400 -0.0614  0.1171  0.2014
18594W        W37448  13.098  10.965  14.284 -0.1494 -0.1118  0.0664
18595W        W37449   3.905   6.071  14.479  0.2194  0.2387  0.1032
18596W        W37450  17.306  12.987  16.049 -0.2683  0.3364  0.2849
18597W        W37451  14.330   4.974   4.829 -0.0639  0.3133 -0.1269
18598W        W37452  13.266   1.599   1.111 -0.1349  0.1729  0.0587
18599W        W37453  11.848   2.210   3.026 -0.0468 -0.3216 -0.3867
18600W        W37454   3.414   1.610   1.118  0.3196 -0.0936  0.1460
18601W        W37455   5.205   2.928   2.454 -0.0761  0.1116 -0.0795
18602W        W37456   4.579  16.465   0.386 -0.0637  0.0706  0.2275
18603W        W37457  16.643  14.127  16.439 -0.1011 -0.1900  0.1499
18604W        W37458  16.401  15.879   1.723 -0.1308 -0.1261  0.3172
18605W        W37459   2.463  11.717   4.418 -0.1581 -0.1503  0.1222
18606W        W37460   3.973   5.290   0.897 -0.0437 -0.2995 -0.2984
18607W        W37461   9.841   4.842   4.040  0.3982 -0.1207  0.2483
18608W        W37462   2.362   0.174  14.578  0.1578 -0.0426  0.0661
18609W        W37463   6.941   9.420  14.735  0.0049 -0.0142  0.2484
18610W        W37464  13.027   6.411   0.398 -0.0328  0.1453 -0.0729
18611W        W37465   2.307   8.827  16.920 -0.1051  0.2097 -0.1742
18612W        W37466   9.680   4.944   5.149  0.0148  0.1000  0.1987
18613W        W37467  16.390   1.114   0.506  0.2804 -0.0548  0.3192
18614W        W37468  16.909  12.145   1.132  0.0532  0.0685 -0.1845
18615W        W37469  13.754   1.151   0.400 -0.1251 -0.1635  0.0596
18616W        W37470   1.538   1.779  14.000  0.0297  0.0224  0.1390
18617W        W37471  13.160   8.447  12.246  0.1976 -0.1121 -0.3418
18618W        W37472  13.882   8.590   1.918 -0.2231 -0.1189  0.3747
18619W        W37473  14.646   5.690  17.226 -0.3252  0.1694 -0.4623
18620W        W37474  11.890   1.174   0.725  0.0764 -0.0224 -0.0279
18621W        W37475   3.222   7.102   3.702  0.1142  0.0044 -0.1640
18622W        W37476   4.884  13.839   3.015 -0.1700  0.2267  0.4339
18623W        W37477   5.191   4.371  12.201  0.1944 -0.0683  0.1583
18624W        W37478   3.948  10.581  15.404 -0.0486  0.1150 -0.0419
18625W        W37479   8.487  11.292   1.629  0.3394  0.0075 -0.0121
18626W        W37480   1.081  12.526  14.363 -0.0481  0.0772  0.2025
18627W        W37481   9.504   9.380   3.611 -0.0039  0.0580 -0.0975
18628W        W37482  16.474   7.792  11.122 -0.0672 -0.0538  0.0253
18629W        W37483   5.280   3.419   0.507  0.2679  0.0409  0.2403
18630W        W37484  15.030   7.421   1.080  0.2449 -0.1598  0.0278
18631W        W37485   2.017  15.088   0.599 -0.0675  0.3512 -0.3280
18632W        W37486  11.245   6.980  12.560 -0.3249 -0.0006  0.1789
18633W        W37487  12.639  10.970  14.114 -0.1869  0.0393  0.0553
18634W        W37488  13.516  16.866  13.113  0.3354  0.1363  0.2272
18635W        W37489   8.195  15.184   0.185 -0.3067 -0.0420  0.1116
18636W        W37490   3.666  10.474   3.074  0.1749  0.3179  0.0908
18637W        W37491   7.624  14.982  13.617 -0.0633 -0.0086  0.1731
18638W        W37492  14.256  17.359   1.466  0.0390 -0.0581  0.0648
18639W        W37493   0.798   9.772   4.957  0.0511  0.2465  0.6227
18640W        W37494   5.956   4.352   4.771  0.3004  0.2550 -0.0690
18641W        W37495   6.441  12.455   3.100  0.1322  0.0028 -0.2105
18642W        W37496   2.431  10.920   2.068 -0.1422 -0.0373 -0.3156
18643W        W37497  10.286   6.385   3.259  0.3859 -0.1839 -0.0938
18644W        W37498   7.550   4.184   2.913 -0.0277  0.4552  0.0946
18645W        W37499  10.254   3.070  16.204  0.2168  0.2878 -0.0447
18646W        W37500  17.047   9.768   0.817 -0.1668  0.0221 -0.1857
18647W        W37501  12.166  14.285   4.989  0.1563 -0.4113  0.0467
18648W        W37502   0.787   3.701   1.103 -0.0058 -0.0795 -0.1924
18649W        W37503   8.260  10.827   0.878  0.2951 -0.1457 -0.1572
18650W        W37504   3.332   0.012   3.031  0.3610 -0.0666 -0.1816
18651W        W37505  13.154   3.716  15.818  0.0671  0.1062 -0.0171
18652W        W37506  11.768  12.467  15.617 -0.0436 -0.0799  0.0311
18653W        W37507   3.002   0.931   5.319 -0.3854 -0.2898  0.5478
18654W        W37508   6.557  13.714  15.988  0.2550  0.0280 -0.0164
18655W        W37509   0.609  16.154  11.883 -0.1502  0.4261  0.3685
18656W        W37510   9.442  12.447  14.036 -0.3058 -0.4442 -0.2658
18657W        W37511  13.230  15.620   4.897  0.0227  0.2902  0.1757
18658W        W37512  12.540  14.702   4.237 -0.0890 -0.1502 -0.2439
18659W        W37513   6.579  16.330  12.878 -0.2509  0.2150 -0.4692
18660W        W37514   9.547  14.932  17.029 -0.0039 -0.0064 -0.1904
18661W        W37515  17.445  17.159  15.595  0.1512  0.1143 -0.3581
18662W        W37516  16.746  14.330   1.729  0.1071  0.2877  0.0193
18663W        W37517  13.201   3.032   3.440  0.1509 -0.1376  0.0184
18664W        W37518  10.548   4.480   2.653  0.0231 -0.0382  0.3216
18665W        W37519   3.305   9.926   4.879  0.1639 -0.1575  0.0155
18666W        W37520   3.013   3.664   4.658 -0.0779  0.2119 -0.2326
18667W        W37521  11.619   6.218   0.255 -0.0582  0.1974  0.2222
18668W        W37522   4.360   9.055  16.537  0.0923 -0.3934 -0.1171
18669W        W37523   8.463   7.420   0.139 -0.0191 -0.2412  0.0434
18670W        W37524  14.214   5.553  13.140  0.0291  0.4345  0.2032
18671W        W37525  11.043   3.689   0.898 -0.0801  0.1762  0.1748
18672W        W37526   1.201  17.218  16.141 -0.0623  0.1361 -0.1008
18673W        W37527   9.825   6.285  13.288 -0.0246 -0.1525  0.2285
18674W        W37528  14.011  16.663  16.535  0.1813 -0.0982  0.0727
18675W        W37529   8.565  15.214   1.349 -0.0348  0.2416 -0.2894
18676W        W37530   7.593   1.034   3.857 -0.0604 -0.3728  0.0987
18677W        W37531  14.016   3.889  14.396 -0.0967  0.0970  0.0179
18678W        W37532   3.985   5.158   4.380  0.0875  0.0250  0.3421
18679W        W37533  10.172  15.827  14.727 -0.0035 -0.1703 -0.2810
18680W        W37534   3.318   1.001  17.035 -0.1171  0.0362  0.0269
18681W        W37535  17.045  14.090  15.701 -0.1316  0.0662  0.0925
18682W        W37536   5.854  10.807   2.273  0.1793 -0.0769  0.5087
18683W        W37537   4.038  17.180  14.372 -0.0164  0.2719  0.1479
18684W        W37538  10.172   7.684  15.286 -0.1800 -0.1952 -0.1326
18685W        W37539   6.693  14.143   3.665 -0.1926 -0.2419 -0.1876
18686W        W37540   3.558   7.537  13.341  0.0169  0.0306  0.2727
18687W        W37541   7.967  14.972   5.915  0.0375  0.0930  0.2687
18688W        W37542  16.134   5.852  12.149 -0.0758  0.0308 -0.0479
18689W        W37543   0.094   1.684   3.509  0.2308 -0.0260 -0.0088
18690W        W37544  15.932   2.490  14.710 -0.1551 -0.4439 -0.0454
18691W        W37545  10.998   7.562  13.229 -0.0330 -0.2509 -0.1037
18692W        W37546  16.978   6.220  14.069  0.0027  0.5321 -0.1098
18693W        W37547   1.073  11.202   5.382 -0.0840  0.2659  0.1270
18694W        W37548   2.001   4.021   2.240 -0.0026  0.0249  0.1401
18695W        W37549  12.243  16.741  16.968  0.1409 -0.0401 -0.0105
18696W        W37550  13.225   5.550   0.096  0.2951 -0.4892  0.0560
18697W        W37551   8.074  12.313   3.184 -0.1207 -0.1899 -0.1081
18698W        W37552   7.700   1.778   2.423 -0.5232  0.0576  0.2318
18699W        W37553   5.924   3.394  12.862  0.0833  0.2974  0.0245
18700W        W37554   5.488  11.566  15.016 -0.0565  0.0508 -0.2110
18701W        W37555  17.591   5.707  13.991 -0.1970  0.0065 -0.0407
18702W        W37556  14.737  11.566   1.242 -0.3223  0.0018  0.2009
18703W        W37557   6.419  11.494   4.371 -0.1428 -0.3070  0.0965
18704W        W37558  15.591   4.126   1.460 -0.0463  0.0010 -0.0737
18705W        W37559   1.010  14.082  15.757 -0.1529  0.1025 -0.2199
18706W        W37560   9.897  14.901  13.604 -0.0844  0.1469  0.0070
18707W        W37561  13.888  10.142   0.133 -0.0269  0.0629 -0.2669
18708W        W37562  16.238  11.759   4.633 -0.0276 -0.0232 -0.0351
18709W        W37563  14.093   4.237   3.175 -0.0999  0.0097  0.2808
18710W        W37564  15.669   4.075   5.795 -0.1096  0.0561 -0.1404
18711W        W37565   8.985  15.260  12.460  0.2050  0.3444 -0.1180
18712W        W37566   3.490  13.462  13.812 -0.2269  0.1322  0.0874
18713W        W37567   2.548   7.328   1.096 -0.0669  0.1725 -0.2043
18714W        W37568   1.134  15.329  14.074 -0.1644  0.1513  0.1266
18715W        W37569  16.354  16.894   2.447 -0.0656  0.1142  0.2262
18716W        W37570  13.650  10.679   0.054 -0.1172  0.1605 -0.1784
18717W        W37571   5.438   2.109   4.839  0.0479  0.0592 -0.0494
18718W        W37572   9.752   6.206  17.187  0.2478  0.0639  0.1353
18719W        W37573  16.979   0.745  16.948 -0.0319 -0.0152 -0.1645
18720W        W37574   4.075   4.777  12.556 -0.0227 -0.1921  0.3230
18721W        W37575   2.257   3.681   1.502 -0.1621  0.1236  0.1375
18722W        W37576   2.363   1.313   4.873 -0.0566  0.0293 -0.0158
18723W        W37577  13.155   2.031   4.871 -0.1234 -0.0885 -0.1542
18724W        W37578  10.503  11.169   1.984  0.1080 -0.0811  0.2659
18725W        W37579   7.802  13.657   0.826  0.1020  0.2342  0.0845
18726W        W37580  14.959   7.937   3.943 -0.1773  0.0025  0.1920
18727W        W37581   3.477   2.805  14.233 -0.0754 -0.2981  0.0501
18728W        W37582   1.173  16.402  14.321 -0.2364 -0.2986 -0.2912
18729W        W37583  13.957  13.362  15.349  0.1532  0.0623  0.3862
18730W        W37584   6.527   2.480   1.586 -0.1511  0.0571  0.2146
18731W        W37585  14.653   6.734   6.021  0.0829 -0.1409 -0.1854
18732W        W37586  10.737   3.723  14.429 -0.2033  0.0027 -0.1752
18733W        W37587  16.025  15.667  16.198  0.2207 -0.2172 -0.3889
18734W        W37588   9.719  17.282   5.648 -0.0894  0.3311 -0.0546
18735W        W37589  15.328   2.844  15.398  0.2727 -0.0086 -0.0204
18736W        W37590   4.946   8.206  15.655 -0.0293  0.3677  0.1160
18737W        W37591   2.156  12.086  13.011 -0.1348  0.1317 -0.1102
18738W        W37592  13.352  16.883  16.257  0.0346  0.1931  0.1477
18739W        W37593   7.060  16.944   1.858  0.1689 -0.1527 -0.1384
18740W        W37594  16.265   8.346  15.050 -0.2163 -0.0814  0.2699
18741W        W37595  12.805   2.049   0.123 -0.0642 -0.0147 -0.1296
18742W        W37596   0.981  14.792   5.039  0.1735  0.0547 -0.2395
18743W        W37597  15.359  10.386   4.770  0.1695 -0.2890 -0.0177
18744W        W37598   7.026   1.002  16.139  0.4221  0.0507 -0.1239
18745W        W37599   5.916   2.866  13.850 -0.1344 -0.3393 -0.2588
18746W        W37600  16.910  15.706  16.619 -0.1132 -0.1631  0.0797
18747W        W37601  15.618  13.869  13.446 -0.1811  0.2884 -0.0203
18748W        W37602   3.101  17.095   2.211 -0.1683  0.2749 -0.0368
18749W        W37603   2.801   2.467   4.148  0.2218 -0.0022  0.2371
18750W        W37604  11.872  10.610  16.042 -0.1671 -0.2375 -0.2294
18751W        W37605   2.024  12.306  13.906 -0.0286 -0.0097 -0.2023
18752W        W37606  13.001  15.436  12.687  0.0788  0.2630  0.2012
18753W        W37607  12.946   3.142  16.551  0.0599  0.2301 -0.2476
18754W        W37608   5.250   8.777   4.003 -0.2119 -0.1007 -0.0200
18755W        W37609  15.622   8.115   5.924  0.4312  0.1088  0.1912
18756W        W37610   6.188  10.711   2.669  0.0906 -0.2590  0.0977
18757W        W37611  14.487  14.052  15.697 -0.2702 -0.2555 -0.4403
18758W        W37612   9.083  16.840   6.280  0.1847  0.1985  0.1307
18759W        W37613  13.237   7.064  16.236 -0.2453 -0.1404  0.0286
18760W        W37614   8.355   1.500  11.557  0.2867 -0.4163 -0.1464
18761W        W37615   9.837   0.996  15.566  0.2537 -0.1405 -0.0294
18762W        W37616  10.426   9.121   0.936  0.2392  0.1693  0.1675
18763W        W37617   1.583  12.553  14.043 -0.5919  0.2651  0.1081
18764W        W37618   4.871   3.666  17.012  0.1303 -0.0500  0.1559
18765W        W37619   4.041   7.505  16.775 -0.2102 -0.0700 -0.2909
18766W        W37620  11.722  12.347   0.809  0.2176  0.0917 -0.0176
18767W        W37621   0.620   0.265  15.220  0.1307  0.0802 -0.3183
18768W        W37622   9.113   3.259  13.430  0.2355 -0.2065 -0.1799
18769W        W37623  14.889   8.349   0.049 -0.1745 -0.0517 -0.2528
18770W        W37624   9.901   6.653  12.603 -0.2714 -0.0180  0.2395
18771W        W37625  16.731   4.755  13.295 -0.0848  0.0104  0.1195
18772W        W37626  10.188  16.400  16.099  0.4549 -0.2023  0.0270
18773W        W37627   3.474   4.846  12.181  0.0247 -0.0100  0.0059
18774W        W37628  12.429  17.534   1.631 -0.0170  0.0538  0.0903
18775W        W37629   0.032  12.569  14.796  0.1258  0.0205 -0.1542
18776W        W37630  11.654  13.184   2.702 -0.1076 -0.3647  0.0991
18777W        W37631   2.856  11.330  16.308 -0.1316 -0.3266 -0.0274
18778W        W37632  15.423   8.227  13.394  0.2336 -0.2247 -0.0170
18779W        W37633   6.607   8.696   3.210  0.2148  0.1688  0.0566
18780W        W37634   9.626  12.761  14.841  0.2323 -0.1603  0.0936
18781W        W37635   1.739   0.059   2.487  0.2085  0.3898  0.2355
18782W        W37636  15.394   5.803  12.560  0.3099 -0.3821  0.2118
18783W        W37637   9.434   5.121  15.995 -0.0719 -0.0455  0.1108
18784W        W37638   7.787   8.530  15.091  0.1857  0.1521  0.0059
18785W        W37639   6.163   8.212  13.858  0.2032 -0.1719  0.0655
18786W        W37640   7.022   6.022   0.025 -0.1795 -0.0569 -0.1284
18787W        W37641   4.373  15.324   3.996  0.3406 -0.2105 -0.3113
18788W        W37642   7.985   7.136  13.191  0.1090  0.1264  0.0339
18789W        W37643   8.687  10.111   1.192  0.0319  0.1271 -0.0904
18790W        W37644   4.747  15.609   5.274  0.0018  0.2182 -0.0235
18791W        W37645  15.728   3.061   2.288  0.0703  0.0675 -0.0258
18792W        W37646   2.757  14.958   4.612 -0.3234 -0.3067 -0.0568
18793W        W37647   7.915  10.422   2.582 -0.0400  0.2581 -0.0462
18794W        W37648   7.031   7.433   4.009 -0.2289 -0.1409 -0.3237
18795W        W37649   5.793  15.656   4.038  0.0142 -0.2022  0.0718
18796W        W37650   0.237  11.032  15.419 -0.0082 -0.1975 -0.1567
18797W        W37651  12.204  14.214  16.958 -0.0916 -0.3619  0.0232
18798W        W37652  13.940   0.879  13.884  0.1028  0.0362  0.1453
18799W        W37653  15.767   5.156  16.311  0.0572 -0.0524 -0.2271
18800W        W37654   3.566   1.916   2.149 -0.0751 -0.0586 -0.0599
18801W        W37655   9.576   6.222  14.625  0.2023  0.2740  0.0492
18802W        W37656   6.922  16.902  17.090 -0.1495  0.2363  0.3894
18803W        W37657  11.096  15.381  16.066  0.4266 -0.0897  0.2376
18804W        W37658   4.210   1.876  15.072  0.0095 -0.0957 -0.0220
18805W        W37659   9.176   6.524   0.942  0.1644 -0.2266  0.1331
18806W        W37660   5.385   4.669   4.067 -0.0460 -0.0146  0.3016
18807W        W37661  15.957   7.822   0.239  0.1402 -0.0703  0.0319
18808W        W37662  13.565  16.764  14.789  0.1104  0.1708  0.2726
18809W        W37663   3.386   2.262  13.386 -0.0527  0.0137 -0.2855
18810W        W37664   9.479  11.659   2.645 -0.1730 -0.0521  0.2214
18811W        W37665  15.360   0.357   4.366 -0.2365  0.3860  0.0840
18812W        W37666  12.028   7.369   3.392 -0.0708 -0.0341 -0.0325
18813W        W37667   5.546  12.572  16.957 -0.2329  0.1741  0.0560
18814W        W37668   8.804   3.139   4.132 -0.0257  0.3614  0.1138
18815W        W37669  10.379  14.958  16.586 -0.0060 -0.0089 -0.0547
18816W        W37670  12.036   5.227   1.739  0.3165  0.1731  0.0319
18817W        W37671  12.774  11.933  14.845  0.0289  0.1401  0.0854
18818W        W37672  14.248   0.631   2.358 -0.0599 -0.1554  0.2489
18819W        W37673   4.196   0.268   2.607 -0.1441  0.0917 -0.0291
18820W        W37674  12.875   3.370   0.198 -0.0054  0.1201  0.1272
18821W        W37675   0.842   7.903   3.871  0.1986  0.2128 -0.1182
18822W        W37676   0.794   8.626  13.803 -0.3301 -0.0445  0.1342
18823W        W37677  14.666  17.439  15.705 -0.2375  0.0666 -0.1764
18824W        W37678  13.416   2.091   0.253  0.3273  0.1391 -0.1338
18825W        W37679  11.723   2.263   5.419  0.0174 -0.0323 -0.4747
18826W        W37680   9.961   1.507  12.702 -0.1872  0.1261  0.0907
18827W        W37681   3.971   6.205   0.639 -0.0580 -0.0302  0.2697
18828W        W37682  10.609  12.129  16.052  0.2633  0.0248 -0.0484
18829W        W37683   9.418  14.752  15.459 -0.0607 -0.1342  0.1463
18830W        W37684  11.600   5.443   2.521 -0.0106  0.0691 -0.0906
18831W        W37685  10.294   2.534   5.066 -0.1187  0.1320 -0.0375
18832W        W37686   2.414   5.613   3.596  0.1491 -0.0181  0.1174
18833W        W37687   1.647  12.948   1.606 -0.0550  0.1302 -0.0326
18834W        W37688   0.300   9.317  14.449 -0.3541  0.1387 -0.0833
18835W        W37689   0.673   0.162   4.613 -0.0852 -0.2643  0.1137
18836W        W37690  13.297  10.817   4.758  0.0121  0.0032  0.2599
18837W        W37691  15.650  12.089  12.305 -0.1548  0.0734  0.1519
18838W        W37692   8.410  11.561  12.246 -0.0741  0.0996  0.0319
18839W        W37693   7.490   9.168  16.016  0.1704  0.4007  0.2499
18840W        W37694  15.363   3.341  16.588 -0.2073  0.0258 -0.0169
18841W        W37695  15.493  16.492  13.159  0.0701 -0.0065 -0.2852
18842W        W37696   4.065  11.854   3.903  0.2202 -0.1306  0.0470
18843W        W37697   1.823   4.021   3.957 -0.0248 -0.0619  0.2928
18844W        W37698  13.283  13.187  12.677  0.1681  0.0966  0.2784
18845W        W37699  14.174  13.659  15.005 -0.1585  0.1221  0.2063
18846W        W37700  17.531   6.273  14.107  0.1328 -0.2073 -0.0259
18847W        W37701   4.623  10.999  11.877  0.0051 -0.0970 -0.1077
18848W        W37702   6.740  17.597  13.125  0.1024  0.1291  0.2752
18849W        W37703   8.538   8.462  15.913 -0.2032 -0.4282 -0.1722
18850W        W37704   5.409   0.422  15.643 -0.1268  0.2012 -0.0473
18851W        W37705  13.645  12.994  14.539  0.0755  0.2619 -0.0137
18852W        W37706   5.887  12.660  12.129  0.0664  0.1097  0.0143
18853W        W37707   4.674   0.341   1.573 -0.1179 -0.1191  0.0561
18854W        W37708  10.308   7.166   4.759  0.2336 -0.0234  0.0316
18855W        W37709   8.620  17.219  15.878  0.0257 -0.3372 -0.1280
18856W        W37710   9.448  16.562   2.583 -0.1198  0.3264  0.1154
18857W        W37711  11.626   1.964   2.163  0.3009  0.2057  0.3899
18858W        W37712  15.695  15.999   1.562  0.1702  0.2522  0.0411
18859W        W37713  14.402   4.077   2.020 -0.1863 -0.0883  0.0135
18860W        W37714  17.144   7.352  15.388 -0.0371  0.0409  0.1864
18861W        W37715  15.529   5.639  13.433 -0.1355  0.2026 -0.0262
18862W        W37716  17.245  13.231   2.705  0.1485 -0.0959 -0.0046
18863W        W37717   7.651   2.753   2.279 -0.0557 -0.4613 -0.2225
18864W        W37718  12.710   1.050  12.673  0.0915  0.1675  0.1727
18865W        W37719   5.722  12.309   3.204  0.3817  0.0880 -0.2115
18866W        W37720   3.912  11.608   2.233 -0.2879 -0.0120 -0.1478
18867W        W37721  10.774  14.470   1.123  0.0934 -0.1454  0.2154
18868W        W37722   3.990   3.255   2.518 -0.0329  0.1339 -0.0841
18869W        W37723   7.229   4.696  14.546  0.3543  0.0705  0.1558
18870W        W37724   1.645   9.036   3.718 -0.0193 -0.2111 -0.0605
18871W        W37725   1.788  16.097   1.992 -0.1156 -0.0597 -0.1675
18872W        W37726  15.468   2.755  14.520  0.2226 -0.0172 -0.2210
18873W        W37727  14.792   5.596   3.995  0.0219 -0.0323 -0.0599
18874W        W37728   6.793   3.839   0.250 -0.2322 -0.0924  0.1875
18875W        W37729  14.337  12.353  12.630  0.0830 -0.2219 -0.0543
18876W        W37730  12.509  16.214  12.914 -0.0521  0.1403  0.1046
18877W        W37731  15.568   4.619  15.394  0.1057  0.2668 -0.2111
18878W        W37732  12.220  10.489  16.575  0.1520  0.2412  0.0380
18879W        W37733   8.072   8.540  13.114 -0.2644 -0.0802 -0.1937
18880W        W37734  17.296   3.605   1.347  0.1244  0.1446  0.1549
18881W        W37735  13.745   9.978   1.567 -0.0169  0.0247  0.1117
18882W        W37736  17.225   1.245  12.262  0.0575 -0.5518  0.0068
18883W        W37737  12.699   8.996   3.617 -0.1675 -0.1482  0.2621
18884W        W37738  16.419  11.136   1.758  0.0483  0.0040 -0.0802
18885W        W37739   8.447  17.256  16.367  0.1886  0.0402  0.0004
18886W        W37740   3.383  15.762  13.571  0.2704 -0.3028 -0.3177
18887W        W37741   2.403   8.126  14.755 -0.1653 -0.0149 -0.0322
18888W        W37742   6.959  12.780   3.350 -0.0503  0.3303 -0.3086
18889W        W37743   1.355   9.025  13.671  0.2619 -0.1478 -0.0595
18890W        W37744   4.884  14.639  14.205  0.0180  0.3809  0.3561
18891W        W37745   9.239  17.174   4.883  0.1534  0.1328 -0.0655
18892W        W37746   7.382  16.975  17.144  0.1355  0.0027  0.0302
18893W        W37747  15.577  15.599  13.453 -0.1250  0.0303 -0.0387
18894W        W37748   9.094   1.143  14.305  0.0865  0.4289  0.0699
18895W        W37749   1.814  14.959  12.365 -0.0381  0.2036 -0.0763
18896W        W37750   6.090  16.375  12.863  0.1791 -0.1192 -0.1081
18897W        W37751   8.308  13.672   4.942 -0.0363 -0.1081  0.0740
18898W        W37752   0.568   3.199  12.098 -0.4043 -0.0714  0.0735
18899W        W37753   0.341  17.576   5.050 -0.1082 -0.1711  0.1269
18900W        W37754  14.394   4.364   0.613 -0.1019  0.0606  0.1071
18901W        W37755   9.054   9.203  17.081 -0.2093  0.1078 -0.1425
18902W        W37756  13.150   2.899  13.192  0.1028  0.1287  0.3246
18903W        W37757  13.788   0.731   4.980 -0.0214  0.1003  0.0232
18904W        W37758  11.157  10.839   2.818 -0.1724  0.0880  0.0121
18905W        W37759   6.050  15.945  16.849  0.1074 -0.2736 -0.0980
18906W        W37760  11.229  11.089  12.054  0.0470  0.5115  0.2301
18907W        W37761  10.883   0.813   2.868  0.2259 -0.0065 -0.1909
18908W        W37762   0.139   5.730   0.518  0.4803 -0.1224  0.2064
18909W        W37763  16.627   4.892   0.625 -0.1457  0.1289  0.3024
18910W        W37764   1.652  12.868  15.107 -0.0884 -0.1726  0.2023
18911W        W37765   3.196  13.773  16.498  0.0483  0.0620  0.3187
18912W        W37766   5.270   0.755  14.265  0.2788 -0.0528  0.1316
18913W        W37767  11.816   0.534   4.078 -0.2753 -0.3169  0.0865
18914W        W37768  10.094   5.781   1.427  0.1734  0.1865 -0.0598
18915W        W37769  16.309   1.800  15.294  0.0473  0.1225  0.0260
18916W        W37770  17.256  10.002   2.073  0.1236 -0.3256 -0.1116
18917W        W37771  11.383  17.151  14.584  0.0343 -0.2248 -0.2958
18918W        W37772  10.169  15.636  14.249 -0.0517 -0.0499 -0.1364
18919W        W37773   0.665   8.894  12.412 -0.1400 -0.3598  0.3510
18920W        W37774   2.467  10.204  14.489  0.0433  0.2432  0.0968
18921W        W37775  13.683  13.131   3.274  0.0559  0.0548  0.0099
18922W        W37776   2.650   0.317  11.720  0.4450  0.1243 -0.0649
18923W        W37777  17.114   0.941  13.602 -0.1539 -0.0780  0.0135
18924W        W37778   7.376  10.334   2.445 -0.2727 -0.1393  0.1976
18925W        W37779   8.691   0.863   3.574  0.0459 -0.0388 -0.0748
18926W        W37780  14.104   9.208  12.703 -0.0597  0.0876  0.1875
18927W        W37781  13.868  13.833  16.757 -0.1400  0.0482  0.1783
18928W        W37782  16.364  10.503   4.985  0.0708 -0.2084  0.0910
18929W        W37783  11.496   5.512  16.146 -0.1389  0.2799  0.0468
18930W        W37784   2.984  11.085  14.070  0.0776 -0.0093 -0.2428
18931W        W37785  10.924   0.220   2.834  0.4077 -0.1490 -0.2599
18932W        W37786   5.124   5.365  13.331  0.1291  0.1570 -0.1795
18933W        W37787   9.886   8.938   4.023 -0.0100  0.1181 -0.2221
18934W        W37788   1.401   7.502   2.328 -0.0802 -0.0910  0.0966
18935W        W37789   3.601   9.019   0.178 -0.1797  0.7738  0.1538
18936W        W37790   3.467   8.651   1.737  0.0570  0.1321 -0.0905
18937W        W37791   1.135  12.211  15.506 -0.3185  0.1208  0.2866
18938W        W37792   0.234   2.478  16.807 -0.1180 -0.3826 -0.0955
18939W        W37793  12.257   7.998  15.509 -0.1934  0.3010 -0.1183
18940W        W37794   1.131   9.597  16.789 -0.0107  0.1191 -0.0321
18941W        W37795  16.743  16.655   2.173  0.2155  0.1104 -0.3520
18942W        W37796  13.291  11.930  17.193  0.0221 -0.0579  0.0777
18943W        W37797   6.653   6.760   4.536 -0.1676 -0.0626  0.0419
18944W        W37798  11.595   5.728   3.902 -0.0594  0.3451 -0.1517
18945W        W37799   3.194  10.910   2.676 -0.2384  0.3432  0.1246
18946W        W37800  10.145   7.507   2.768  0.0536 -0.0685  0.4357
18947W        W37801   5.547  10.873  15.650 -0.1752  0.0318  0.1985
18948W        W37802  15.397  12.514   1.760  0.0120  0.0549 -0.2021
18949W        W37803  15.514   5.949   5.169 -0.1028 -0.2418 -0.3364
18950W        W37804   2.187   6.499  15.958 -0.1464  0.0640  0.3365
18951W        W37805   6.549   2.812   3.048  0.0795 -0.2544 -0.1038
18952W        W37806   7.206   4.130  16.208  0.0163 -0.0917  0.1243
18953W        W37807  12.813  17.254   1.450  0.0916  0.0276 -0.1872
18954W        W37808  12.640  14.952   3.371  0.4493 -0.3169  0.0629
18955W        W37809   0.879   4.204   4.922  0.2538  0.0725  0.0574
18956W        W37810  11.582   7.977   2.360  0.2068  0.5052 -0.0622
18957W        W37811   7.854   6.623  12.764 -0.1748  0.0384 -0.2657
18958W        W37812   6.129   5.792  13.109 -0.0684 -0.2509 -0.2872
18959W        W37813   5.274  13.563   2.858  0.0928  0.2896  0.0129
18960W        W37814   8.865   9.199   6.043 -0.2075  0.1181 -0.2998
18961W        W37815  12.196   3.810   0.496 -0.0299 -0.2100  0.0867
18962W        W37816   4.400   6.974  15.508 -0.1047 -0.1863  0.0074
18963W        W37817  13.249   3.697   4.820  0.0434 -0.2230 -0.2096
18964W        W37818  14.622   6.105   4.177  0.1398 -0.2459 -0.2041
18965W        W37819  10.149   4.087   0.184  0.0628  0.0565 -0.0075
18966W        W37820  10.129   1.393  16.387 -0.0174  0.0076  0.0764
18967W        W37821  17.532   2.436   0.454  0.2765 -0.1878  0.2470
18968W        W37822  16.775   1.592  15.405  0.1520 -0.2005  0.3771
18969W        W37823   4.147  15.362   2.233 -0.0528  0.1977  0.0639
18970W        W37824   4.833  17.183  13.539 -0.0260  0.0811 -0.0153
18971W        W37825  11.247  11.641   0.382 -0.1970 -0.1375  0.2144
18972W        W37826   4.012   2.109  13.012 -0.0029  0.0420 -0.0618
18973W        W37827   2.866   3.911   1.128 -0.0511 -0.1014 -0.0869
18974W        W37828   9.188   0.265   0.715 -0.1635 -0.2283 -0.1213
18975W        W37829   3.878   7.965   4.665  0.1574 -0.1349  0.1587
18976W        W37830   5.148   4.279  13.520  0.0734 -0.0416 -0.0949
18977W        W37831   1.097  14.201   1.263  0.0545 -0.2473 -0.3009
18978W        W37832   2.540  17.025  15.370  0.1768  0.2204  0.0072
18979W        W37833   3.073   5.816   4.670 -0.1332 -0.0029 -0.0951
18980W        W37834   4.555  10.321   0.047 -0.0823  0.1825  0.0392
18981W        W37835  17.553   7.724  15.480 -0.2152 -0.1207  0.1369
18982W        W37836  13.793  11.080  12.139  0.2209  0.2521  0.0690
18983W        W37837   0.461   2.405  12.637 -0.0498  0.0796  0.0541
18984W        W37838   1.410   3.690   1.793  0.2912 -0.0824 -0.0929
18985W        W37839  10.539   1.136   2.167  0.2988 -0.0910 -0.0522
18986W        W37840   3.908  15.377   0.687 -0.0526 -0.1126 -0.1719
18987W        W37841   5.097  12.169   1.653  0.0603 -0.2675  0.2790
18988W        W37842  17.126   3.088   4.795  0.2610  0.1275 -0.0537
18989W        W37843  16.530  10.039  16.243  0.1934  0.0236 -0.1123
18990W        W37844  15.887   9.669   1.324 -0.0456  0.1508  0.0255
18991W        W37845  10.571   8.543  13.328 -0.0833 -0.0351 -0.1285
18992W        W37846  10.905  15.400  12.888  0.1604 -0.1322  0.2766
18993W        W37847   3.281  15.842  14.284 -0.1982 -0.2912  0.2599
18994W        W37848   9.640  13.162  13.290  0.0723 -0.2487 -0.3104
18995W        W37849   6.805   4.039  12.093 -0.1563 -0.0629  0.1080
18996W        W37850  12.127   5.662   1.521 -0.1022 -0.2265 -0.3356
18997W        W37851  12.639   5.843   5.127  0.0487  0.0158  0.4114
18998W        W37852   4.949  13.074  13.821  0.3656 -0.1749 -0.0791
18999W        W37853  10.473  14.254  16.816  0.0132  0.1193 -0.0289
19000W        W37854   0.116   2.481  13.032  0.0555  0.2485 -0.0461
19001W        W37855  16.705   2.302   4.702 -0.1172 -0.2848  0.2756
19002W        W37856   8.275  10.369   0.486 -0.1907  0.1274 -0.3649
19003W        W37857   4.260  10.984   5.027  0.0927 -0.0766  0.0498
19004W        W37858  10.157  12.891   4.374 -0.0485  0.0334 -0.0251
19005W        W37859  10.695   7.537  15.178  0.0672 -0.2091  0.0429
19006W        W37860  17.310  12.386  15.675  0.0995  0.1794 -0.1026
19007W        W37861   5.410   6.223  13.749  0.0533 -0.0715  0.1276
19008W        W37862   1.179   9.556  14.012 -0.0020 -0.4374 -0.0723
19009W        W37863   2.350   4.994   0.869 -0.1636 -0.0038 -0.2057
19010W        W37864  16.781   6.547  16.580 -0.1042 -0.1476  0.0261
19011W        W37865   9.469   4.591   1.944 -0.0817 -0.0675  0.0392
19012W        W37866   1.265  10.871   2.795  0.1612 -0.2473 -0.1906
19013W        W37867  12.653  10.651   2.843  0.0414  0.1149  0.2296
19014W        W37868   3.755  14.717   3.940  0.1200  0.0406  0.0613
19015W        W37869   5.857   1.699   2.553  0.0737  0.1820  0.1053
19016W        W37870   6.885   9.232   0.941  0.1515 -0.5203  0.5290
19017W        W37871   6.944   4.337   1.449  0.0971  0.0860 -0.2879
19018W        W37872   9.080  10.445   0.837  0.2865  0.1325 -0.0732
19019W        W37873   8.009   2.654   2.686  0.3102 -0.3635 -0.0221
19020W        W37874   5.921   8.648   4.819  0.1440 -0.0773 -0.0906
19021W        W37875   0.706   2.133   1.964  0.2956  0.0348  0.0468
19022W        W37876   5.762   4.195  15.426  0.1145  0.0389 -0.1731
19023W        W37877  13.645   0.130   0.200  0.1248 -0.0508 -0.2172
19024W        W37878  13.351  15.140  17.067 -0.0009 -0.1421  0.0145
19025W        W37879  12.215  13.378   2.069 -0.1948 -0.2042 -0.1244
19026W        W37880  14.123  14.647  12.618  0.2052  0.2800  0.1700
19027W        W37881   8.214  11.950  13.134 -0.2254 -0.0669 -0.1893
19028W        W37882   3.993  10.307   2.719 -0.2786 -0.1435 -0.3207
19029W        W37883   9.439   0.479  16.928  0.0202  0.0907 -0.1292
19030W        W37884  15.708   5.605   0.026  0.1801  0.1858  0.3257
19031W        W37885   7.683  10.246  14.525  0.1008 -0.1325  0.1805
19032W        W37886   4.076   9.202   2.058  0.0689  0.2473  0.0273
19033W        W37887   8.405   0.811   2.631  0.3855  0.0516  0.1659
19034W        W37888  16.315   9.517  15.548  0.0229 -0.0784  0.0391
19035W        W37889   4.007  16.616  12.523  0.1083 -0.1219  0.1596
19036W        W37890   8.995  12.350  17.085  0.3784 -0.1219  0.3265
19037W        W37891   8.839  11.081  15.627  0.2694 -0.1172 -0.0569
19038W        W37892  17.026  10.356  17.218 -0.0889 -0.0454 -0.2645
19039W        W37893   6.960   5.888  16.488 -0.0998 -0.0895  0.0323
19040W        W37894  12.218   3.090  14.518  0.0667  0.0599 -0.2548
19041W        W37895   4.699   9.311   1.944  0.0676  0.0743 -0.1923
19042W        W37896  14.800   3.200  14.876  0.1588  0.0934 -0.1101
19043W        W37897   5.606   7.433  15.886  0.0927 -0.0869 -0.0095
19044W        W37898  16.382   8.834  13.310 -0.0616  0.1256  0.0704
19045W        W37899   1.087  17.106  17.087 -0.0496  0.0202 -0.0894
19046W        W37900   1.136   2.068  12.271  0.0847 -0.1194  0.2162
19047W        W37901  17.198  10.381   2.438 -0.2724  0.4279 -0.3122
19048W        W37902  16.689   7.177  12.358 -0.0726 -0.2426  0.0473
19049W        W37903   0.411  12.301  14.093 -0.0045 -0.0297  0.0667
19050W        W37904   3.476  10.084  16.052  0.3982 -0.2939  0.1219
19051W        W37905  15.822  16.182  12.967  0.2019 -0.1284 -0.1319
19052W        W37906   9.148   3.754   1.693  0.1696  0.2646 -0.0375
19053W        W37907   9.746  11.836   3.981 -0.0165  0.2864 -0.3058
19054W        W37908   1.878  16.519  15.898  0.5220 -0.1220 -0.0215
19055W        W37909   2.963   9.973   1.142  0.1994 -0.0661  0.0139
19056W        W37910  16.642   0.289  14.205  0.0231  0.0117 -0.2623
19057W        W37911   5.716   8.389   3.225 -0.0105  0.0211 -0.1289
19058W        W37912  16.817  17.302  16.470  0.3294 -0.1056  0.0711
19059W        W37913  16.737   8.848  13.780  0.0535 -0.0954 -0.3957
19060W        W37914  11.392   2.736   4.378  0.0404 -0.2404  0.2881
19061W        W37915   0.914  14.596   3.323 -0.2891  0.0443 -0.1239
19062W        W37916   4.295  14.311  13.315 -0.1944 -0.1748  0.0781
19063W        W37917  15.989   4.612  15.070 -0.2396 -0.0093 -0.2646
19064W        W37918  15.976   6.048   0.299 -0.0999  0.0597  0.0340
19065W        W37919   5.683  14.674   0.712 -0.0304  0.1265 -0.0326
19066W        W37920  10.011   6.942   0.908  0.1791 -0.0483 -0.1797
19067W        W37921  12.523  14.448   5.320  0.1061 -0.0212 -0.0428
19068W        W37922   6.957  13.576   4.463  0.2796 -0.0303  0.2510
19069W        W37923   4.211   2.366   1.713 -0.1020 -0.2962  0.1854
19070W        W37924  14.382   5.636   1.164  0.2802  0.3155  0.2437
19071W        W37925   6.513  14.609   3.809  0.0066  0.2724  0.0679
19072W        W37926   0.899  14.399  17.158 -0.1212 -0.1279 -0.2042
19073W        W37927   0.926   0.539  15.752 -0.1083 -0.2180  0.1083
19074W        W37928  15.862   2.495  15.741  0.0409  0.1294  0.4004
19075W        W37929  14.333  17.410   3.192 -0.2012 -0.2283 -0.1114
19076W        W37930   9.341   9.836  15.014  0.2739 -0.2523  0.1267
19077W        W37931   0.863  13.618   2.015  0.0794  0.1299 -0.1438
19078W        W37932   6.423   4.440   0.053 -0.4844 -0.1420 -0.1697
19079W        W37933  17.190   4.467  16.053 -0.0252  0.0698 -0.0667
19080W        W37934   8.594  13.225   4.724 -0.2364  0.3246  0.1175
19081W        W37935  10.870  10.389   0.973 -0.0678 -0.1397  0.0652
19082W        W37936  11.590  12.440  15.126 -0.5262 -0.0348 -0.0571
19083W        W37937  10.585   3.127  16.657 -0.0368  0.0842  0.1024
19084W        W37938  14.697   0.234  12.128  0.2012 -0.3405 -0.1671
19085W        W37939   6.149   6.592   5.165  0.0807  0.1427 -0.0209
19086W        W37940  11.466   0.922  11.876 -0.1601  0.0696 -0.3954
19087W        W37941  15.890  10.154  13.084  0.0999 -0.3899  0.1692
19088W        W37942   8.831  10.943  14.302 -0.0545 -0.1602 -0.1276
19089W        W37943  12.880  14.476  15.191 -0.1796  0.0918 -0.1565
19090W        W37944  13.869   1.775   3.739 -0.0897  0.1622 -0.2395
19091W        W37945  11.002   7.904   0.212  0.0392 -0.0904  0.1102
19092W        W37946   4.949   8.376  13.236 -0.0013 -0.1197  0.0645
19093W        W37947   2.178  10.862  15.344 -0.1845  0.0317  0.1185
19094W        W37948  11.201   8.457   0.134  0.0976  0.1594 -0.1882
19095W        W37949  10.585   3.071   3.909  0.1833  0.1715  0.2728
19096W        W37950  17.193  10.415  15.226  0.1983  0.1396  0.0209
19097W        W37951  15.233  11.123  14.739  0.1691 -0.0130  0.0776
19098W        W37952   0.942   6.354   0.168  0.0943  0.1399 -0.0118
19099W        W37953   3.610   3.623   2.888  0.0127  0.1510 -0.3226
19100W        W37954  17.513  17.552   3.224  0.1618  0.0061  0.0871
19101W        W37955   5.821   6.004  14.953 -0.1628  0.0406  0.1327
19102W        W37956   3.338  13.517   2.052 -0.2888 -0.0176  0.0007
19103W        W37957   3.111  12.130  12.555 -0.1487 -0.1497  0.2450
19104W        W37958  14.498  13.077   4.559 -0.0301 -0.2762 -0.0693
19105W        W37959  14.355   4.705   3.218  0.1701 -0.1294  0.0919
19106W        W37960  12.882   6.869  14.071 -0.0309  0.1024  0.0963
19107W        W37961   8.075  14.593   0.255 -0.1708  0.0737 -0.0091
19108W        W37962  15.312   9.517  13.823 -0.1240 -0.2395  0.4711
19109W        W37963   9.410   1.822  14.148  0.1374  0.1935 -0.1041
19110W        W37964   0.374   3.618   4.581 -0.0021 -0.2306  0.0912
19111W        W37965   4.818   6.436   3.032 -0.0267  0.0889  0.0417
19112W        W37966   3.849   8.370   3.869 -0.0860  0.1302  0.0103
19113W        W37967   7.062   1.783   0.231  0.1667  0.0792  0.2178
19114W        W37968   6.409   6.938  16.332  0.2130  0.0815 -0.1320
19115W        W37969  17.206   3.100  15.950 -0.0339  0.3586  0.4095
19116W        W37970   5.086  12.341  16.918 -0.1736  0.1396 -0.0322
19117W        W37971  16.606   0.637   0.499 -0.0721 -0.0209  0.2082
19118W        W37972   5.395   2.171   2.895 -0.1306  0.1532  0.0957
19119W        W37973  11.358   8.507  15.337 -0.1617  0.1237 -0.0850
19120W        W37974   9.262   0.819  12.580 -0.0469  0.0041  0.2249
19121W        W37975   0.684  15.309   1.956  0.1226  0.1012  0.1992
19122W        W37976  14.714   0.738   2.683  0.1034 -0.1175 -0.0411
19123W        W37977   7.936   0.208  17.100  0.1537 -0.0168  0.0287
19124W        W37978   7.443   1.085  16.522  0.0499 -0.2260 -0.1908
19125W        W37979   6.675  11.914  16.346 -0.2553  0.0149 -0.0489
19126W        W37980   7.799  11.170   4.049  0.1715  0.2844 -0.0942
19127W        W37981  15.494  11.445   0.545 -0.0952 -0.1003 -0.2186
19128W        W37982   1.482  12.367  15.142  0.0030 -0.1604  0.0205
19129W        W37983   9.759   2.958  11.643  0.1178  0.1195 -0.1730
19130W        W37984  13.220  13.145   2.359 -0.0896  0.0841 -0.0466
19131W        W37985   2.624  16.932   2.504  0.1251  0.1631 -0.1062
19132W        W37986  16.726  12.047  14.324  0.0365 -0.0306 -0.1676
19133W        W37987  12.013  15.249  16.968  0.2568  0.0842 -0.0112
19134W        W37988   7.491   0.089  16.783  0.0535  0.1121  0.2078
19135W        W37989  17.139   1.186  16.606 -0.1486 -0.0004  0.0442
19136W        W37990   4.087  14.316   4.656  0.3077  0.2568  0.0632
19137W        W37991  14.145  12.950   4.889  0.1522  0.1305  0.1572
19138W        W37992   0.710   7.646  12.477  0.4074  0.0170  0.1486
19139W        W37993   3.231  15.353   0.397 -0.2264 -0.0383  0.1575
19140W        W37994   2.301   6.352   0.427  0.2010 -0.0278  0.5019
19141W        W37995   3.110  15.679   3.745 -0.2034 -0.1360 -0.0540
19142W        W37996   3.848  10.763   0.064  0.0270  0.1128 -0.0352
19143W        W37997   2.025  15.925   4.656  0.2119  0.3322 -0.0342
19144W        W37998   6.367  17.346  14.411 -0.0678 -0.1143 -0.4176
19145W        W37999   3.458  10.908   4.408 -0.0727  0.1469 -0.3901
19146W        W38000  15.906  10.340   4.013 -0.1887 -0.0359 -0.0756
19147W        W38001  14.834  15.536   3.624  0.0908 -0.0590 -0.1769
19148W        W38002  14.754   3.361   4.437 -0.0004 -0.3064 -0.0740
19149W        W38003   0.608  16.904  15.396  0.1397  0.0257 -0.1199
19150W        W38004  16.693   7.995  15.269  0.0063 -0.0133  0.1119
19151W        W38005  12.041   5.206  16.978 -0.1440  0.1200 -0.1497
19152W        W38006  13.469   6.476   5.128  0.0075 -0.2148 -0.0864
19153W        W38007   7.242  13.215  11.749  0.1637  0.0469  0.1363
19154W        W38008  17.383  15.689  12.696  0.2497  0.2280 -0.1683
19155W        W38009  17.367  11.743  12.555 -0.0979 -0.3670 -0.1283
19156W        W38010  10.502   7.134   3.016 -0.0374 -0.0551 -0.1402
19157W        W38011   2.706  16.729   0.275 -0.0810  0.2429  0.1023
19158W        W38012   3.010   2.300   3.739 -0.3676  0.4451 -0.0225
19159W        W38013  11.672   0.179   4.460 -0.0140  0.2616  0.3145
19160W        W38014   6.914  15.797   5.330  0.0966  0.2354 -0.1344
19161W        W38015  11.251   7.312   2.907  0.0414  0.1575  0.0772
19162W        W38016   8.226  15.552  15.412 -0.0938  0.1213 -0.0460
19163W        W38017   3.996   4.758  13.509 -0.3133 -0.2191 -0.0645
19164W        W38018   6.132   7.990  17.111 -0.0497 -0.0155 -0.1276
19165W        W38019   0.794   6.160  13.400  0.3795  0.1979 -0.1415
19166W        W38020   7.810  13.004   2.068  0.0367  0.0171  0.1391
19167W        W38021   5.704  13.954   2.958 -0.0674 -0.1592 -0.1343
19168W        W38022   5.456   8.290  14.677 -0.0204 -0.1694  0.0579
19169W        W38023   3.535   9.045  15.222 -0.2199  0.3316  0.0693
19170W        W38024   3.250   8.218   2.188  0.3711 -0.1796 -0.0294
19171W        W38025   7.177  14.140   2.069  0.3440  0.5355  0.1739
19172W        W38026   0.699   4.139  12.200 -0.1655  0.1700 -0.2083
19173W        W38027   0.786   2.848  14.186 -0.1772 -0.0788  0.0631
19174W        W38028  15.730   2.173   3.183 -0.0819  0.0398 -0.0325
19175W        W38029   6.243   2.874  12.601 -0.0284 -0.2118 -0.1757
19176W        W38030  14.766   5.183  12.492 -0.0637  0.1654 -0.2472
19177W        W38031   6.177  10.019   0.901 -0.0513 -0.3068 -0.0779
19178W        W38032   1.867   1.619  12.669 -0.2087  0.2086  0.0890
19179W        W38033  11.669  11.256  13.831 -0.0064 -0.0072  0.0264
19180W        W38034   9.161   8.868   1.903 -0.1050  0.0898 -0.2060
19181W        W38035  14.020   2.043   1.385 -0.4679  0.4063 -0.1084
19182W        W38036  14.316  15.745   3.869  0.1188  0.1201  0.0946
19183W        W38037   8.552   9.466  17.111  0.0208 -0.2136  0.3501
19184W        W38038  15.866   1.881  14.056  0.0377 -0.1871 -0.2787
19185W        W38039  15.986   7.532   3.695 -0.0836 -0.0309 -0.1476
19186W        W38040   3.507  10.705  15.643  0.2178  0.1215 -0.1419
19187W        W38041   2.750   6.715  16.355 -0.4061  0.0568  0.1981
19188W        W38042   3.210  16.934   5.011 -0.1182 -0.0369  0.0769
19189W        W38043   1.793   5.520   4.329  0.1080 -0.2312 -0.4909
19190W        W38044   1.673  16.383   0.063  0.3921 -0.2376  0.3983
19191W        W38045   6.114   5.787  15.826 -0.0227 -0.2768 -0.0376
19192W        W38046   9.062  15.862   3.503  0.1035 -0.0877  0.2925
19193W        W38047   1.910  17.516   3.851 -0.0474 -0.2203 -0.1975
19194W        W38048   9.178  10.641  15.281  0.0022  0.0768  0.0424
19195W        W38049  11.625   2.577  15.979 -0.1158 -0.3000  0.1095
19196W        W38050   2.911  14.217   3.632  0.2178 -0.0164 -0.0151
19197W        W38051   6.400   7.969   3.305  0.0929 -0.0553 -0.0009
19198W        W38052  17.102   2.624   4.699 -0.1954 -0.2137  0.0036
19199W        W38053  15.526  14.387   3.010  0.1735 -0.2310 -0.0782
19200W        W38054   6.366  14.723  13.744  0.2916  0.2152  0.2893
19201W        W38055   2.946  12.133  13.038  0.0956  0.0897  0.0473
19202W        W38056   4.911  15.281   4.225  0.3720  0.0158 -0.0760
19203W        W38057   8.914  11.343   4.736  0.0708  0.0078  0.1621
19204W        W38058   9.776   3.587  13.647 -0.0257  0.1126 -0.1623
19205W        W38059   7.444  17.102   1.491 -0.1167 -0.0004  0.0516
19206W        W38060   0.530  13.388  13.260  0.0124 -0.2410 -0.2914
19207W        W38061   4.009   0.832   0.248 -0.0548  0.0262 -0.1650
19208W        W38062  13.675  13.159   2.028  0.0716 -0.2916  0.0236
19209W        W38063   0.239  11.563   0.942 -0.1150 -0.0145 -0.3984
19210W        W38064  10.862   1.704  12.596  0.0100 -0.1221 -0.1040
19211W        W38065  12.547  11.082   3.984 -0.1265 -0.2809 -0.0604
19212W        W38066   2.692  10.240  13.031 -0.0574 -0.0604  0.1264
19213W        W38067   7.209   3.596   4.443  0.4300  0.2194 -0.0343
19214W        W38068   6.085   3.240  15.836 -0.0627 -0.0830 -0.3820
19215W        W38069  16.788  16.705  14.452 -0.3851  0.1448 -0.2705
19216W        W38070  17.155   8.284  15.479  0.0714  0.3902  0.1152
19217W        W38071  16.399   5.430   0.701 -0.2275 -0.0690 -0.1369
19218W        W38072   1.874  15.638  11.940  0.2033 -0.1512  0.1484
19219W        W38073   2.526  17.530   1.758  0.0327 -0.5420 -0.2748
19220W        W38074  12.833   9.171   5.662  0.3061 -0.1062 -0.2065
19221W        W38075   8.442   1.138   5.477 -0.2310  0.1325 -0.0120
19222W        W38076  13.712   1.937   3.164 -0.1917 -0.1650 -0.0571
19223W        W38077   1.210  11.832  12.333  0.0306  0.2824 -0.1129
19224W        W38078  10.329  13.372   2.151  0.4321  0.1744 -0.3827
19225W        W38079  12.761   5.717   2.160 -0.1450  0.1693 -0.2296
19226W        W38080   2.180   0.159  15.360 -0.0680  0.2763 -0.0505
19227W        W38081  15.554  16.278  14.895  0.0115  0.0800 -0.0639
19228W        W38082  13.622  17.213  14.521  0.5273  0.0285  0.1117
19229W        W38083   8.967   2.643   1.269  0.1302  0.1626 -0.1266
19230W        W38084   5.374  12.955  14.438 -0.1948  0.0249  0.1504
19231W        W38085   7.122  14.512   1.785  0.0354 -0.0564 -0.0205
19232W        W38086   5.614   1.056  13.963 -0.0085  0.0562 -0.0581
19233W        W38087  13.382   4.670   4.907 -0.0425 -0.4508 -0.4223
19234W        W38088   9.410   7.896  15.954  0.3216  0.1395  0.3701
19235W        W38089   1.219  11.489   4.532  0.1043  0.0731 -0.1301
19236W        W38090   9.144   2.967  15.412  0.1116  0.1000  0.2789
19237W        W38091   0.817   2.080   2.488 -0.1501  0.1156 -0.1836
19238W        W38092   1.564   0.573   0.355 -0.0003 -0.0747  0.0376
19239W        W38093   0.590  16.413  15.507 -0.0139 -0.1869  0.1109
19240W        W38094   9.960   1.961  13.910  0.2193 -0.3044 -0.2167
19241W        W38095  13.552  15.935  16.358  0.3212  0.0366 -0.0195
19242W        W38096   7.272   0.684  12.521 -0.0145 -0.2294 -0.1316
19243W        W38097   7.144  16.650  15.843 -0.2649  0.1725  0.0090
19244W        W38098  14.266  15.330   3.651 -0.2282  0.1520  0.0257
19245W        W38099   5.897   2.622  11.218 -0.1173 -0.1730  0.2372
19246W        W38100   2.815  12.266  14.219 -0.3170 -0.1521  0.0400
19247W        W38101   9.453  13.251  14.310  0.2619  0.0662 -0.1228
19248W        W38102   9.652  10.285  12.362  0.2750  0.3167  0.1089
19249W        W38103  16.732   2.097  15.165  0.0356 -0.1484  0.2599
19250W        W38104   1.281   3.214  17.064  0.2207 -0.1167  0.0001
19251W        W38105  12.676   6.825   4.984  0.2263 -0.1686  0.3352
19252W        W38106  13.919  11.470  14.034 -0.2551 -0.2348  0.2086
19253W        W38107   3.016  10.791   4.107  0.3614  0.1598  0.1640
19254W        W38108  16.723   5.118  13.795 -0.0362  0.0726 -0.1055
19255W        W38109   4.255   5.245  12.850 -0.0952  0.1806 -0.0262
19256W        W38110   5.822   7.724  11.451 -0.3333 -0.0207  0.0542
19257W        W38111  13.142   3.926  13.311  0.0659 -0.2626  0.0116
19258W        W38112  11.494  16.718   3.210 -0.0077  0.1863  0.0749
19259W        W38113   3.069   1.886   1.954 -0.2009 -0.2665  0.0917
19260W        W38114   1.669   7.635  14.513  0.1560 -0.0389 -0.1551
19261W        W38115   3.406  12.744   3.830  0.0368 -0.0703 -0.1149
19262W        W38116  14.948  13.571   1.288 -0.0438 -0.0492  0.0591
19263W        W38117   2.807   8.851  16.985  0.1377 -0.0154 -0.1735
19264W        W38118  10.618   4.937  12.491  0.0577 -0.1033  0.0819
19265W        W38119   6.622   7.685  16.556 -0.0207  0.2066 -0.1700
19266W        W38120   4.721  12.623   1.708  0.0772 -0.1057  0.0038
19267W        W38121   7.485  11.743   4.640 -0.1513  0.2058 -0.0583
19268W        W38122   0.340  11.162  13.504 -0.1870 -0.2933  0.2649
19269W        W38123   8.397   7.052   0.957  0.4729  0.1590  0.0467
19270W        W38124   0.074   8.542   1.315 -0.2052  0.1340  0.3873
19271W        W38125  14.306  10.154   6.583  0.1880 -0.1259  0.0703
19272W        W38126  12.646   4.654  15.223  0.2229  0.0337  0.2728
19273W        W38127  12.355  10.569  13.924 -0.0932 -0.0156 -0.2909
19274W        W38128   2.940  10.476  11.880  0.0685 -0.1947  0.2092
19275W        W38129  15.442   1.658  15.952  0.0002 -0.0750  0.0782
19276W        W38130  11.033   2.808   4.012 -0.0632  0.1087 -0.2588
19277W        W38131   5.221  13.480   1.049 -0.0660 -0.2500 -0.2444
19278W        W38132  15.882   5.529   5.228  0.1170 -0.1311 -0.1092
19279W        W38133   6.378  11.539  16.060 -0.1118 -0.0331  0.1472
19280W        W38134   0.237  12.137  15.209 -0.0954  0.0904 -0.0247
19281W        W38135   4.563  17.091   4.641 -0.1684  0.0132  0.0284
19282W        W38136  14.375   3.878  11.697  0.0818  0.1210  0.1935
19283W        W38137   2.952  17.082  13.130 -0.0217 -0.4254  0.5047
19284W        W38138   7.928  11.774   1.125 -0.3881  0.1198 -0.4520
19285W        W38139   4.476   3.788  11.005 -0.1704  0.1157  0.3893
19286W        W38140   6.060   5.686   4.747  0.1109  0.0321 -0.2306
19287W        W38141  10.645   0.923   1.743 -0.2933  0.3155 -0.2430
19288W        W38142   9.054   9.233   5.043 -0.1310 -0.0154 -0.0050
19289W        W38143   1.797   6.587  11.750 -0.0656  0.2301  0.0634
19290W        W38144   1.865  10.860  13.844 -0.1435  0.1006 -0.0489
19291W        W38145  11.582   8.857   4.909 -0.0438 -0.0509  0.3755
19292W        W38146  15.629  15.305   2.398 -0.0567  0.1842 -0.0936
19293W        W38147   6.541   7.282   5.143  0.0336  0.0738  0.1041
19294W        W38148  14.154  15.220   0.077  0.1095  0.0370 -0.1129
19295W        W38149   9.173   6.845   3.402  0.0836  0.1362  0.0620
19296W        W38150  12.725  15.699   4.698 -0.2167  0.1774  0.0771
19297W        W38151   4.853   3.077  13.625  0.2199 -0.2657  0.1106
19298W        W38152  15.289  10.261  17.001 -0.3292 -0.3257  0.1846
19299W        W38153  10.071  16.248   0.027  0.0890  0.1082  0.2179
19300W        W38154   5.469  15.828   2.906 -0.1725 -0.1230 -0.2001
19301W        W38155   6.289   1.388  15.836  0.1197 -0.0684  0.0397
19302W        W38156   5.966   5.710  16.287  0.0485 -0.0415  0.1227
19303W        W38157  14.763   8.241   1.820 -0.2627 -0.2254  0.0267
19304W        W38158   0.152   9.585  17.005  0.1349 -0.0577  0.1914
19305W        W38159   9.549  14.217  14.375 -0.2341 -0.1835 -0.0923
19306W        W38160   8.040   1.593   4.300  0.0472 -0.1166  0.0645
19307W        W38161   9.210  14.246   3.935  0.0583  0.1147  0.2152
19308W        W38162   8.086  14.030   1.965  0.2431  0.3317  0.1139
19309W        W38163  13.308  15.107   4.064  0.1044  0.1110 -0.0866
19310W        W38164   4.125   5.180  12.091  0.1731 -0.1626  0.2805
19311W        W38165  16.042   1.156   1.768  0.0419 -0.2706  0.0751
19312W        W38166   9.927  12.596   1.098  0.2356 -0.2975 -0.2248
19313W        W38167   2.080  11.051  16.612  0.3016  0.0418  0.0803
19314W        W38168   6.931  16.260   4.272 -0.0674  0.0287 -0.2580
19315W        W38169   6.763  15.700  14.735 -0.1687 -0.0139 -0.0469
19316W        W38170  13.035  17.142   0.118 -0.1146  0.1194  0.0987
19317W        W38171  11.545   9.710   5.016  0.1444  0.0251  0.1919
19318W        W38172   7.203  17.156  14.911  0.1761  0.0410 -0.0077
19319W        W38173  10.067   9.913  13.582  0.3658 -0.0143 -0.1566
19320W        W38174  17.309   2.584  15.792  0.0216 -0.0395  0.1705
19321W        W38175  15.305   3.953  14.211  0.1470  0.0941 -0.0580
19322W        W38176   0.713   8.425  16.986  0.0830 -0.1053  0.4382
19323W        W38177   9.073   7.976   2.583  0.0429  0.1290 -0.0915
19324W        W38178  11.993  13.868   2.959  0.2285 -0.0157  0.2476
19325W        W38179   8.252  13.509   3.361 -0.0720  0.0195  0.2273
19326W        W38180   6.071  17.177  13.504 -0.1306  0.0821  0.1734
19327W        W38181   0.532   1.861   2.830  0.0353 -0.0433  0.0255
19328W        W38182   0.660  15.657  13.180  0.2753  0.0760  0.1806
19329W        W38183  12.104  11.668   0.603  0.1518  0.0929  0.0338
19330W        W38184   6.868   9.171  13.359 -0.0938  0.2467  0.0711
19331W        W38185   6.154  17.467  12.575 -0.3992  0.0503 -0.0118
19332W        W38186   4.435  12.800  13.818  0.3394  0.3224 -0.0011
19333W        W38187  15.279   2.274  12.115 -0.1265 -0.1248 -0.3370
19334W        W38188   4.811   0.349  13.069 -0.1959 -0.4622 -0.2493
19335W        W38189  11.073  11.487  17.111 -0.2263  0.0617 -0.0531
19336W        W38190   8.968   4.219   5.222 -0.1869 -0.0786  0.1218
19337W        W38191   6.933  11.625  16.609  0.0649 -0.2209 -0.2294
19338W        W38192   1.183  11.809  14.606 -0.0228 -0.0442  0.0085
19339W        W38193  10.847  15.713  15.408  0.2091  0.0815 -0.0650
19340W        W38194   7.288  16.319  14.571  0.2057 -0.2239 -0.1854
19341W        W38195   7.290   3.835  15.713 -0.1514  0.2443  0.3084
19342W        W38196   1.624  12.451   2.949  0.0113 -0.0011 -0.2741
19343W        W38197   7.050  15.348  12.221 -0.0174 -0.2366 -0.4380
19344W        W38198  13.734  16.211   0.983 -0.0231  0.1418  0.4088
19345W        W38199  13.500  13.061   4.103 -0.0076 -0.0194  0.0136
19346W        W38200   5.385  14.871   5.047 -0.2182 -0.0204  0.2104
19347W        W38201   6.636  10.464   2.846 -0.1313  0.1483  0.1442
19348W        W38202  13.850   5.186  14.951  0.0584 -0.1067  0.0141
19349W        W38203   3.748   8.976  15.716 -0.1073  0.0441 -0.1707
19350W        W38204  16.350  10.647   0.836 -0.1687 -0.1273  0.1038
19351W        W38205  10.145   2.950  17.162  0.0250  0.1078  0.1178
19352W        W38206   5.590   5.690  13.131  0.0137 -0.1981  0.0782
19353W        W38207   7.517   4.352  13.708 -0.0655  0.2755  0.2678
19354W        W38208  14.246   1.763   0.620  0.0362 -0.1886  0.1975
19355W        W38209  13.145  13.736  14.052 -0.0215 -0.1404 -0.2175
19356W        W38210  12.912  13.978  14.454 -0.0114  0.2409  0.1657
19357W        W38211   6.398  10.727  13.945 -0.0893 -0.0165  0.0211
19358W        W38212  16.783   8.902   1.008  0.1472 -0.3152 -0.1228
19359W        W38213  15.643   4.656  15.880 -0.1828 -0.3757  0.0336
19360W        W38214   1.048   4.978  14.173 -0.0139 -0.0154 -0.1382
19361W        W38215   2.776   4.874   1.283  0.0723  0.0262  0.2825
19362W        W38216  14.630   0.874  16.741  0.3429  0.0570  0.0263
19363W        W38217  17.533   6.041  16.942  0.4398 -0.4022 -0.0357
19364W        W38218  10.493  10.766  15.060 -0.0785  0.0678 -0.2398
19365W        W38219  13.242   3.869  15.351  0.0055  0.1761  0.0939
19366W        W38220   4.475   0.947   3.894  0.2109 -0.1151  0.1693
19367W        W38221   9.630   2.374  15.071 -0.2287 -0.4198 -0.3218
19368W        W38222   1.731  16.028   0.395 -0.1035 -0.1888  0.3140
19369W        W38223   6.031   5.460   0.227 -0.1758 -0.1217  0.4438
19370W        W38224  16.571   4.458  14.913  0.1352 -0.2690  0.0099
19371W        W38225   5.993  14.003  13.189  0.1475  0.2180 -0.0169
19372W        W38226   8.371  10.629  13.227 -0.0376  0.2057 -0.1164
19373W        W38227  11.822  15.474   3.719  0.1717  0.2880 -0.0964
19374W        W38228   0.587  10.637  14.278 -0.0016 -0.2996 -0.2489
19375W        W38229   6.143   4.776   2.541 -0.0342  0.1130  0.2742
19376W        W38230  11.120   5.875  17.113  0.0026  0.0788 -0.0518
19377W        W38231   7.064   3.147  14.350  0.0498  0.0175  0.0164
19378W        W38232   1.792  14.149  12.375  0.4787  0.0011 -0.1654
19379W        W38233   6.288   5.300   1.016  0.0617  0.1220 -0.2011
19380W        W38234   9.524  17.481   2.100 -0.0239 -0.0680  0.1752
19381W        W38235  13.169   1.017   1.008  0.2208  0.1917 -0.1192
19382W        W38236   0.474   7.325   1.369  0.0193 -0.3177 -0.1397
19383W        W38237   5.932  10.589  12.434  0.0014  0.2250 -0.1965
19384W        W38238  14.459  16.714  14.942  0.1029  0.0296  0.0629
19385W        W38239  14.283   8.377   5.151 -0.2845 -0.1941 -0.0935
19386W        W38240  11.616  17.329  15.741 -0.1746  0.3159  0.1181
19387W        W38241   3.015   1.964  16.791 -0.1588  0.0001  0.0707
19388W        W38242   0.786  12.672  13.835  0.0927 -0.3341 -0.0554
19389W        W38243   3.029  13.775   0.504  0.2738 -0.2456  0.1904
19390W        W38244  17.356  16.930   1.360  0.0381 -0.0943 -0.0468
19391W        W38245   2.486  17.577   5.169  0.0152  0.0509  0.1159
19392W        W38246  11.718   8.704   2.969  0.2751 -0.3605  0.1452
19393W        W38247   2.853   5.305   3.496  0.4608  0.0216 -0.0506
19394W        W38248   0.008  16.625   0.068  0.2864  0.2677  0.2190
19395W        W38249   5.991  16.581  15.597  0.2488 -0.1641 -0.1297
19396W        W38250   8.266   7.132  15.339  0.2479  0.0336  0.0085
19397W        W38251   3.831   8.290  14.131 -0.0649  0.0596  0.0503
19398W        W38252  16.100   9.944  12.248  0.0154 -0.1263  0.2104
19399W        W38253   9.592  16.991   2.378  0.1111  0.0006 -0.0370
19400W        W38254  17.118   3.778  17.132  0.0928  0.1361 -0.2142
19401W        W38255   5.941   8.321   0.299  0.1403  0.0914  0.1601
19402W        W38256  11.333   3.449  16.878 -0.0180  0.0023  0.0625
19403W        W38257   6.102   7.430   4.208 -0.1077  0.0462 -0.1492
19404W        W38258   6.408  12.399  16.555 -0.2385 -0.0279 -0.0356
19405W        W38259   0.269  13.646   4.331 -0.1256  0.1545 -0.1543
19406W        W38260   0.212   1.632   4.889 -0.2284 -0.2544  0.1954
19407W        W38261   7.719  15.699  15.785  0.0091  0.1638 -0.0510
19408W        W38262   3.501  14.677  16.845  0.2880  0.0424 -0.1661
19409W        W38263   8.468   9.002  14.776 -0.0213  0.0847  0.2232
19410W        W38264  10.560   8.976   3.717  0.0258 -0.1227  0.1466
19411W        W38265  16.140   4.111  14.997  0.1704 -0.0571  0.1270
19412W        W38266   7.526  14.892  15.984  0.0954  0.0359  0.0735
19413W        W38267  17.570   3.159   1.102 -0.1146 -0.0575  0.0818
19414W        W38268   3.640  16.390  16.035 -0.0949  0.1078 -0.0131
19415W        W38269  13.415   2.150  15.007 -0.1186  0.0348  0.2551
19416W        W38270  13.330   4.443   1.722 -0.1932 -0.1162 -0.1141
19417W        W38271  12.835   8.133   1.931 -0.4186 -0.0730 -0.0707
19418W        W38272  10.429  17.463  13.652 -0.4166 -0.1633  0.1364
19419W        W38273  16.050  15.428  15.111 -0.2120 -0.2305 -0.0178
19420W        W38274  14.321  11.392   0.364  0.2336 -0.0673 -0.2206
19421W        W38275  15.406  14.328  13.756 -0.0005 -0.1307  0.0664
19422W        W38276   6.152   8.440   4.349  0.3181 -0.0498  0.1813
19423W        W38277   0.763  13.012  15.408  0.4267  0.0638  0.2353
19424W        W38278  12.170  11.216  15.830  0.0579 -0.1384 -0.0135
19425W        W38279  17.036   1.677  14.091  0.0986 -0.2039  0.1215
19426W        W38280  11.613   0.848   0.317  0.0937 -0.1275 -0.3015
19427W        W38281  13.605   5.141  12.215  0.2854 -0.3118 -0.2586
19428W        W38282   8.042   3.931  15.223  0.0770 -0.0862 -0.0131
19429W        W38283   2.059   3.323  14.327  0.0912  0.0964 -0.1587
19430W        W38284  15.950   9.850   4.138  0.1154  0.0119  0.0328
19431W        W38285  17.596   9.372   1.619  0.2943 -0.2224  0.0347
19432W        W38286   6.453  10.871   3.828 -0.0061 -0.0663  0.0765
19433W        W38287   3.754   7.827  12.879  0.0617 -0.2659  0.0278
19434W        W38288   9.591  13.226   0.923 -0.1692 -0.1399  0.3588
19435W        W38289   1.689   5.498   0.084  0.1247 -0.1718  0.0266
19436W        W38290   0.550  15.086  13.068  0.3165  0.1715 -0.1560
19437W        W38291   4.599  10.311  12.776  0.0159 -0.0755  0.0307
19438W        W38292   1.654   8.084  14.743 -0.1202  0.1741 -0.1180
19439W        W38293  13.088  10.986  13.710  0.0746 -0.2050 -0.1797
19440W        W38294  12.154  14.702  17.115 -0.0040  0.2440  0.0364
19441W        W38295   7.293  15.122   0.296 -0.0165  0.1676 -0.0352
19442W        W38296   3.514   6.828   2.780 -0.5307 -0.2115  0.1509
19443W        W38297   7.586   8.971  15.018  0.1292  0.2735  0.3509
19444W        W38298   6.316  17.206   4.724  0.1082  0.3477  0.0348
19445W        W38299   3.273  14.567   3.856  0.1105  0.2171 -0.0886
19446W        W38300  13.579  13.965  14.449  0.0794 -0.0975 -0.2676
19447W        W38301  15.213  15.704   0.527  0.0783 -0.0324 -0.0018
19448W        W38302   4.675   4.584  13.657 -0.1797  0.2051 -0.1316
19449W        W38303   7.746   0.084   2.282 -0.1430 -0.1238  0.0174
19450W        W38304   1.609  15.154   2.239 -0.1188  0.2306 -0.0621
19451W        W38305   4.033   8.061  11.839  0.0562 -0.0224 -0.3215
19452W        W38306  13.860   2.468  12.586 -0.0231  0.1872  0.3277
19453W        W38307   1.587  11.569   0.979  0.1463 -0.1232 -0.2630
19454W        W38308   4.346   4.087   1.213 -0.5461 -0.0572  0.1330
19455W        W38309   8.282   1.525  14.167  0.1492  0.1677 -0.3116
19456W        W38310  15.932   9.826   0.366  0.0304 -0.0575  0.0987
19457W        W38311  16.612  10.407   1.217 -0.1956  0.2198 -0.1323
19458W        W38312   8.127  12.338  15.233  0.0261  0.0588 -0.4236
19459W        W38313  16.410   1.340  13.486  0.0536  0.0046 -0.0783
19460W        W38314  16.725  13.804  13.571  0.0180 -0.1257 -0.0837
19461W        W38315  12.497  13.350   3.874 -0.0440 -0.1303 -0.2248
19462W        W38316  13.987   8.082   4.809  0.1311 -0.2692 -0.0376
19463W        W38317   5.030   1.589   2.951  0.1026  0.0671 -0.0157
19464W        W38318   7.512  17.549   0.051  0.0109 -0.0921 -0.0472
19465W        W38319   2.758   1.022  15.488 -0.0103  0.1934 -0.3644
19466W        W38320  15.835   0.574  14.803  0.0880 -0.2217 -0.0765
19467W        W38321  14.927  10.269   5.015  0.2282 -0.3237 -0.1853
19468W        W38322   1.976   2.498  14.514 -0.1628 -0.2695 -0.1983
19469W        W38323   9.898  15.022   1.693 -0.3977  0.0061  0.0283
19470W        W38324  10.027   8.245   3.436  0.2844  0.0245  0.1933
19471W        W38325   3.398   3.993  16.506  0.0360 -0.1618  0.1543
19472W        W38326   4.350   9.065   4.980  0.1087  0.0844  0.1763
19473W        W38327   8.755  16.443  12.336 -0.0477 -0.0765  0.1642
19474W        W38328  11.258   0.253  14.552 -0.0108  0.2481 -0.0241
19475W        W38329  10.695   5.026   1.609  0.2697  0.3429 -0.0811
19476W        W38330   3.855  12.131  11.836  0.0565  0.0351 -0.0585
19477W        W38331   5.951   2.193  16.917 -0.1320 -0.1970 -0.0698
19478W        W38332   3.897   7.014  15.600  0.0707  0.3007 -0.3635
19479W        W38333  11.295   0.720  13.590 -0.0284 -0.1659 -0.0023
19480W        W38334   4.557  13.426  16.614  0.1901 -0.0291 -0.2183
19481W        W38335   0.843  17.595   5.121  0.2627 -0.1649 -0.0682
19482W        W38336   0.520  14.669  13.264 -0.0440 -0.1709 -0.2735
19483W        W38337  13.883  16.165  12.007  0.0546  0.1933  0.0092
19484W        W38338   0.192  15.821  16.654  0.2510  0.0181  0.1230
19485W        W38339  16.689  15.297   2.931 -0.0500  0.0487  0.2819
19486W        W38340   9.488  10.467  17.058 -0.2572 -0.2647  0.0895
19487W        W38341  17.029   2.514   1.092  0.1519  0.0694  0.1979
19488W        W38342   0.387   8.836  13.595 -0.3982 -0.0768 -0.2968
19489W        W38343   8.204  15.641  14.454 -0.0018  0.1862  0.2832
19490W        W38344   4.202   3.273  13.159 -0.0443  0.0354 -0.2535
19491W        W38345   6.722   2.126  12.206  0.2190 -0.2812 -0.0122
19492W        W38346   9.862  13.358   3.290 -0.1481 -0.0718 -0.0365
19493W        W38347   4.881  14.628  16.094  0.0765  0.0252 -0.2292
19494W        W38348  14.209   4.253   1.555  0.2016 -0.2264  0.0032
19495W        W38349   8.659  12.340  12.534 -0.2654 -0.3020 -0.2632
19496W        W38350  16.907  15.557   4.904 -0.0184  0.1068 -0.1654
19497W        W38351   7.252  12.846  15.053  0.0113 -0.0675  0.3106
19498W        W38352  12.922  11.869  15.343  0.0100 -0.4429 -0.1629
19499W        W38353   9.588   5.832   0.164  0.1323  0.1627  0.1527
19500W        W38354  14.372  15.002  14.064 -0.0800  0.2880  0.1348
19501W        W38355  17.401  14.257  13.274  0.1320  0.2620  0.2349
19502W        W38356   8.129   0.774  12.033 -0.0112  0.1684 -0.1176
19503W        W38357  15.851   2.285   3.680  0.2510  0.1544 -0.1903
19504W        W38358   6.788  16.970  15.872 -0.1315  0.1930 -0.2427
19505W        W38359  13.532   1.975   1.280 -0.0096  0.0702  0.0509
19506W        W38360  14.489  15.880  16.128  0.3086 -0.0236 -0.3784
19507W        W38361   7.433   6.233  12.877 -0.3435  0.3702 -0.1531
19508W        W38362  13.107   6.591  13.062 -0.0561 -0.1034  0.5125
19509W        W38363  12.225  12.783   1.507  0.4369  0.0568  0.0481
19510W        W38364   1.059   0.637   0.427  0.2622 -0.2675  0.0538
19511W        W38365  17.490  13.851   0.773  0.3369  0.0142  0.2996
19512W        W38366   9.147   3.681  13.167 -0.2433 -0.1038  0.2611
19513W        W38367  11.129   4.548   2.083  0.0736 -0.0140  0.0359
19514W        W38368   4.505  15.845   0.623 -0.0230 -0.0194  0.0355
19515W        W38369  13.188   7.078  12.826  0.0025 -0.1865  0.1660
19516W        W38370   1.816  10.183  15.960 -0.2951  0.0435 -0.0665
19517W        W38371  14.131   0.180  15.799 -0.0157  0.3245 -0.0099
19518W        W38372   5.691  13.230   0.738  0.1138  0.0104  0.3075
19519W        W38373  16.378  12.654  14.900  0.1197  0.2902  0.1478
19520W        W38374  15.467   7.771   4.796 -0.3207 -0.0378 -0.0809
19521W        W38375   8.063   3.299  12.223 -0.1267  0.0491  0.1077
19522W        W38376   7.975  11.503   1.573 -0.0466  0.0743  0.0043
19523W        W38377  13.124   6.455   2.911 -0.1048 -0.1930  0.6110
19524W        W38378  15.442   2.626  12.978  0.1186 -0.0230 -0.1997
19525W        W38379   2.996   3.756  14.160 -0.1312  0.0322 -0.1074
19526W        W38380   7.603  15.613  14.138 -0.0808 -0.2931 -0.1807
19527W        W38381  10.822   0.662  14.357  0.0351 -0.0584  0.0226
19528W        W38382   5.208  10.968  15.307  0.0424  0.1050  0.1259
19529W        W38383   2.675   6.620  14.574 -0.1533 -0.2562 -0.0154
19530W        W38384  13.397  11.121   1.546  0.2246 -0.1491  0.0074
19531W        W38385   1.811   6.977   0.074 -0.1175 -0.1611 -0.2517
19532W        W38386  17.599  15.624  13.594 -0.2810 -0.1012 -0.1951
19533W        W38387   3.960   2.651   0.867 -0.0422 -0.1955 -0.3954
19534W        W38388   6.394  13.957   5.119  0.0823 -0.1356  0.1398
19535W        W38389   3.241  13.169   0.630  0.2189 -0.3592 -0.2494
19536W        W38390  12.253  13.688   4.185  0.3057 -0.1015  0.0438
19537W        W38391   1.163   9.495  13.521 -0.1334 -0.0300 -0.0621
19538W        W38392  16.562   6.568   5.003 -0.1225 -0.5170  0.0896
19539W        W38393  14.023  15.671   0.384  0.1340 -0.0740 -0.3324
19540W        W38394  10.964  14.180  16.702 -0.0322 -0.1015 -0.2500
19541W        W38395  10.786   8.907  14.998  0.2269 -0.4688  0.1708
19542W        W38396  11.100  13.081   5.395 -0.0727  0.1752 -0.0675
19543W        W38397   7.783   3.735   2.214 -0.1881 -0.1320 -0.1882
19544W        W38398   5.522  13.214  16.439  0.2194  0.0168 -0.1770
19545W        W38399  13.234  11.107  15.695  0.0971  0.1196  0.0578
19546W        W38400  10.032   5.946  14.602 -0.0765 -0.0109  0.0655
19547W        W38401   0.127   3.288  12.451 -0.0979 -0.2344  0.0721
19548W        W38402   2.464  14.667   1.992 -0.3190 -0.2092 -0.1053
19549W        W38403  10.776  14.005   0.867  0.0541 -0.1259  0.0223
19550W        W38404  15.960  15.471  13.711 -0.1051 -0.1949  0.0621
19551W        W38405   2.824  15.484  15.058  0.1705  0.0859  0.0030
19552W        W38406   2.345  16.217   3.370 -0.1226 -0.1140 -0.4078
19553W        W38407   6.118   5.462  16.888 -0.0099  0.1490  0.2236
19554W        W38408   1.296  12.022   2.890  0.0309 -0.1814 -0.0830
19555W        W38409   3.560  15.434   4.296 -0.1261 -0.0533 -0.1540
19556W        W38410  15.012   7.250   5.303  0.0314 -0.1069  0.2739
19557W        W38411   4.695   7.193  15.859 -0.0912  0.2220 -0.1451
19558W        W38412   5.974   2.790   3.629  0.0786  0.3668 -0.1289
19559W        W38413   0.966  11.221   1.719 -0.2331  0.0097 -0.0272
19560W        W38414   0.478  14.122  15.543 -0.1612  0.0096 -0.1514
19561W        W38415  12.402   7.198  13.391  0.2514  0.0909 -0.0938
19562W        W38416   3.767  13.979  15.626 -0.1164  0.0580 -0.0485
19563W        W38417   5.731   3.739  14.718 -0.1455 -0.2878  0.2031
19564W        W38418  12.200   0.057  17.207 -0.1874 -0.1026 -0.3158
19565W        W38419   5.144  14.099  16.140 -0.3836 -0.0140  0.0847
19566W        W38420   4.614   1.311  13.061 -0.2698  0.0631  0.1549
19567W        W38421   5.596   6.390   2.605 -0.1213 -0.0031 -0.1314
19568W        W38422  16.053  10.092   0.773  0.0360 -0.0033 -0.0004
19569W        W38423   6.628   1.001  14.546  0.1690 -0.2430  0.1078
19570W        W38424   5.019  10.089   4.166  0.1044 -0.2947 -0.0202
19571W        W38425  11.983  13.304   4.390 -0.2657 -0.2970 -0.0361
19572W        W38426   1.782  13.951   4.694  0.1398 -0.0268  0.2727
19573W        W38427  11.592   5.350   3.548  0.1367 -0.1486 -0.1811
19574W        W38428   0.587   9.096   0.298 -0.1077 -0.1432  0.0870
19575W        W38429   6.160  14.675  12.616 -0.0857  0.0132  0.0313
19576W        W38430   5.110  10.879  12.922  0.0827 -0.1162 -0.1855
19577W        W38431  10.531  10.901   4.028  0.0189 -0.1592 -0.2464
19578W        W38432  10.156   8.056   1.817 -0.0384  0.0409 -0.2911
19579W        W38433  17.022  13.014  12.049 -0.0853 -0.0610  0.1803
19580W        W38434  16.408   7.902  17.193  0.0217 -0.2248 -0.0291
19581W        W38435   5.262   7.678  13.654 -0.1497  0.1674  0.0894
19582W        W38436  11.796   2.255  14.378 -0.0319 -0.0764  0.3829
19583W        W38437   5.964   5.955  14.383 -0.0463 -0.0245 -0.3343
19584W        W38438  15.306   3.513  13.998 -0.3143  0.2010 -0.2674
19585W        W38439   4.768  12.906  14.961 -0.2916 -0.0225  0.2262
19586W        W38440  12.402   3.591  13.337  0.1771 -0.0730  0.1436
19587W        W38441   0.610   9.405  15.760 -0.2050  0.1322  0.0429
19588W        W38442  10.819   0.555  12.478  0.0030  0.3466  0.0472
19589W        W38443   9.676   8.089   1.398  0.3161 -0.1000 -0.0572
19590W        W38444  15.630   4.097  14.579 -0.0980  0.0048  0.0816
19591W        W38445  17.591   3.146   2.304  0.2239 -0.0797  0.1392
19592W        W38446   2.244   2.745  14.907 -0.0176 -0.1974 -0.3687
19593W        W38447   9.499  17.439   4.507  0.1333 -0.0896  0.0650
19594W        W38448  14.920   3.313   2.388  0.1453 -0.0250 -0.0876
19595W        W38449  14.366  12.700  15.052 -0.1823 -0.1191  0.0835
19596W        W38450   0.947  13.112   0.116  0.0329 -0.0314  0.2541
19597W        W38451   1.184  16.053  12.372  0.0014  0.0945 -0.0512
19598W        W38452   9.151  14.040  17.027 -0.2647  0.5191 -0.0566
19599W        W38453   9.142   5.283  13.008  0.2379 -0.2556 -0.0243
19600W        W38454  10.417   5.252  16.489 -0.1400 -0.3016  0.2804
19601W        W38455  15.272  17.205   4.525 -0.1354  0.2939 -0.0017
19602W        W38456   2.057   4.183  17.003 -0.1382 -0.1839  0.0547
19603W        W38457  16.691   1.054  12.209  0.2557 -0.0419 -0.4724
19604W        W38458  15.077   1.098   3.005  0.0081 -0.0324 -0.5324
19605W        W38459   1.308   7.118  11.896 -0.1069 -0.0171  0.1479
19606W        W38460   0.636  13.590  12.218 -0.0723 -0.1052  0.0366
19607W        W38461  11.349   7.467  15.308 -0.1293  0.1569  0.1488
19608W        W38462   8.491   6.665  14.563  0.0996  0.2910 -0.1416
19609W        W38463   6.571   0.658  13.859 -0.3349  0.0119  0.2331
19610W        W38464  11.168   5.108  14.119  0.1348 -0.0242  0.2093
19611W        W38465  15.634   2.493  12.416 -0.0625 -0.0141 -0.0794
19612W        W38466   0.981  10.829  12.890  0.0793 -0.1204  0.0451
19613W        W38467   3.991   1.253  13.068  0.2986 -0.1857  0.1004
19614W        W38468   0.106   8.133   2.161 -0.2331 -0.0149 -0.2816
19615W        W38469   6.188   2.950  14.798  0.2529  0.2579  0.0347
19616W        W38470   6.896   5.191   4.567 -0.2072 -0.1991 -0.0147
19617W        W38471   8.254   5.284   4.103  0.1333 -0.1129  0.1652
19618W        W38472   3.089   9.891   4.352 -0.0857  0.2513  0.1136
19619W        W38473  12.481  16.378  13.510  0.2559 -0.1808  0.1992
19620W        W38474   1.396  14.311   4.621 -0.0867  0.0282 -0.0853
19621W        W38475   5.675   4.491   0.221 -0.3368  0.0039 -0.3050
19622W        W38476   1.966  12.596   2.634 -0.2412 -0.0046 -0.0310
19623W        W38477   7.627   2.859  12.378 -0.2530  0.1473 -0.1540
19624W        W38478   1.458   4.201  13.323 -0.3323  0.0999 -0.1475
19625W        W38479  14.359  13.796  16.652  0.1996  0.1667 -0.2286
19626W        W38480  13.740   4.185   1.838 -0.1456 -0.0916  0.1163
19627W        W38481   8.922   6.098   2.971 -0.1436 -0.0928  0.0927
19628W        W38482   1.383   2.783   0.792 -0.0471 -0.0174 -0.1475
19629W        W38483   3.814   5.054   3.657  0.0894 -0.0656  0.0812
19630W        W38484   7.483   1.933   3.771  0.3147  0.1859  0.0263
19631W        W38485   5.430   9.941   4.971 -0.1572 -0.1123  0.0848
19632W        W38486  16.675   7.898   0.876 -0.1486  0.2672 -0.0799
19633W        W38487  11.206  14.756   4.281  0.0462 -0.2776  0.0985
19634W        W38488   6.595   8.169  13.575 -0.0416 -0.1573  0.0799
19635W        W38489   0.049   5.935   2.688 -0.2198  0.0885  0.0124
19636W        W38490   4.061  10.742  13.305 -0.2459  0.4721  0.7921
19637W        W38491   2.068   6.746   4.134 -0.0094  0.0799  0.0082
19638W        W38492   5.056  10.071   3.360  0.0482  0.1007  0.1976
19639W        W38493  11.875   9.792  16.744 -0.1058  0.2158  0.2050
19640W        W38494   5.688  11.319   2.118 -0.3042  0.0083 -0.1546
19641W        W38495   7.076   1.801  12.755  0.0201  0.0475 -0.1492
19642W        W38496   8.958  10.377   4.364  0.0383  0.1854 -0.1438
19643W        W38497   5.519   0.312   1.163  0.1105  0.0356  0.1013
19644W        W38498  16.529  15.635  12.495 -0.0731  0.0997  0.3511
19645W        W38499  15.882   5.443  12.469 -0.1128 -0.1064  0.1054
19646W        W38500   6.329   8.098   4.647 -0.1552 -0.0031 -0.0080
19647W        W38501  10.374   9.563  13.217  0.1111 -0.3180  0.3476
19648W        W38502  10.224  16.248   5.113  0.0885 -0.0653  0.1151
19649W        W38503  14.227   7.149  16.028  0.1072  0.1385 -0.0028
19650W        W38504   9.938   7.315   3.177 -0.0541 -0.3078  0.3834
19651W        W38505   3.345   1.075   2.486 -0.0431  0.0911 -0.2197
19652W        W38506  13.870   3.124  15.888 -0.2346  0.0702 -0.1497
19653W        W38507  14.867   0.757  13.917  0.1046 -0.0829  0.1874
19654W        W38508  13.127  15.191  12.178 -0.0602 -0.0016  0.3577
19655W        W38509  13.349   8.707   1.065 -0.0205 -0.2100  0.0655
19656W        W38510   3.184   2.099   3.224 -0.0741  0.0367 -0.1639
19657W        W38511  17.164   0.112  12.562 -0.0211 -0.2799  0.1620
19658W        W38512   0.163   0.361   1.748  0.2564  0.1131  0.0009
19659W        W38513   5.996  16.115  16.389  0.2040  0.0273  0.2608
19660W        W38514  14.317   0.476  14.874 -0.0318 -0.2129  0.0194
19661W        W38515   1.094  17.587   1.572 -0.0343  0.0135 -0.1312
19662W        W38516   4.187   9.138  14.297  0.3232  0.1735  0.0278
19663W        W38517   0.412  11.634  13.249  0.1867  0.2044 -0.3737
19664W        W38518   5.162   5.501  14.492  0.0885 -0.0686 -0.0132
19665W        W38519   4.068   3.409  14.064 -0.1180  0.1066 -0.2233
19666W        W38520   2.674  11.272   2.423  0.1673  0.2818  0.0084
19667W        W38521  11.106  15.877   5.008 -0.2689 -0.0829 -0.2299
19668W        W38522  16.807   5.529  12.528  0.1502  0.1996 -0.0097
19669W        W38523   5.222   8.433   2.351 -0.1026  0.0036  0.1827
19670W        W38524  15.897  11.457  12.906 -0.0628 -0.1916 -0.1214
19671W        W38525   1.149   1.334  12.057 -0.0362  0.1565 -0.0082
19672W        W38526  15.206  16.724   5.137  0.2108 -0.1966  0.2135
19673W        W38527  13.705  12.774   4.653  0.0861  0.1033  0.0084
19674W        W38528  16.562  15.026  16.667 -0.0437  0.1365 -0.1557
19675W        W38529   7.057   1.829   3.495  0.0839 -0.1573 -0.0464
19676W        W38530  14.985   8.155  16.254  0.4386 -0.1652  0.0485
19677W        W38531  16.632  16.506   4.539 -0.0929 -0.0847 -0.0239
19678W        W38532   5.724   5.972  15.552 -0.1069  0.3609 -0.1048
19679W        W38533  12.607  12.114   3.037  0.1448  0.1385 -0.1777
19680W        W38534  15.915  12.255  17.200  0.0623  0.0840 -0.1365
19681W        W38535  15.562   1.567  13.596  0.2123 -0.3769  0.0912
19682W        W38536   2.161  10.632  15.890  0.3046  0.2861  0.0038
19683W        W38537  15.312   9.257   4.995 -0.0024  0.1928 -0.1413
19684W        W38538   3.084  15.936   0.429  0.0576 -0.1984 -0.1137
19685W        W38539   6.140  15.601   4.521  0.3002  0.2806  0.2045
19686W        W38540   8.267   4.475   0.087 -0.2518  0.0104 -0.1416
19687W        W38541   3.256  10.763  13.661  0.1561  0.0364 -0.0702
19688W        W38542  15.421   0.749   3.796  0.1470 -0.0901 -0.0689
19689W        W38543   5.300   5.027  14.246  0.2348 -0.1232  0.2639
19690W        W38544  10.645   6.375   1.061 -0.2714 -0.1878  0.2202
19691W        W38545   1.415   3.037  13.326 -0.1293 -0.1457  0.1512
19692W        W38546   1.729   3.406   2.081 -0.0379  0.0012 -0.3470
19693W        W38547   5.739  14.739  12.408  0.0568  0.1521 -0.0247
19694W        W38548  17.008  16.010   0.311 -0.1371  0.2225 -0.0797
19695W        W38549   9.065  15.196  13.231 -0.0364 -0.1198 -0.3581
19696W        W38550  10.183   9.995  14.976 -0.0232 -0.1504 -0.1424
19697W        W38551  16.345   8.266  13.467 -0.0393  0.0187  0.2184
19698W        W38552   5.834  13.463   2.124 -0.0607 -0.0205 -0.0661
19699W        W38553   9.334   3.350  15.154  0.1266  0.2180  0.1837
19700W        W38554   4.644   7.062   0.261  0.1547 -0.0945 -0.3212
19701W        W38555  13.420  14.932  14.025  0.0982  0.2634 -0.2362
19702W        W38556  15.800  14.083  13.894 -0.1229 -0.0143  0.1877
19703W        W38557   7.051  15.473   2.980 -0.0181  0.1973 -0.2240
19704W        W38558   5.572   9.352   0.488  0.0574 -0.1250  0.2494
19705W        W38559   1.261   2.505   2.322  0.0411 -0.2549 -0.0118
19706W        W38560   0.577   2.412   1.116 -0.1730 -0.4126  0.1703
19707W        W38561  13.431   9.709   1.817  0.0573 -0.3442 -0.1042
19708W        W38562  11.412   2.838   3.562  0.1869  0.2170  0.2154
19709W        W38563   8.716   9.647   1.433  0.1626 -0.2387 -0.0743
19710W        W38564   2.257   7.466   1.561  0.0513 -0.2624 -0.2599
19711W        W38565   6.626   0.335   0.273  0.0065  0.2171  0.4703
19712W        W38566  13.708   1.780   4.198 -0.1903  0.1368 -0.1932
19713W        W38567   0.080  16.955  16.106  0.0480  0.0592  0.0061
19714W        W38568   8.136   4.379   2.027 -0.0588  0.1136 -0.0833
19715W        W38569   4.354  17.452   3.361  0.0737 -0.2449 -0.3233
19716W        W38570   0.518   3.076   3.702 -0.2844 -0.1689  0.2365
19717W        W38571   1.112   3.960  12.990 -0.0098 -0.0176  0.2209
19718W        W38572   8.574  11.547  13.073  0.0394  0.2219 -0.1640
19719W        W38573   3.958   1.350  12.527  0.0330  0.0368  0.3545
19720W        W38574   8.381  15.202  14.621  0.0045  0.1532 -0.4471
19721W        W38575   0.207  15.338   4.163  0.1468 -0.0782 -0.1315
19722W        W38576   0.217  13.336  12.178  0.0293 -0.1237  0.1186
19723W        W38577  13.072  17.121   1.933 -0.1881 -0.1759 -0.1728
19724W        W38578   3.368   7.354   5.515 -0.1480 -0.1665 -0.2542
19725W        W38579  16.436   0.821   4.794  0.0130 -0.0852 -0.1484
19726W        W38580  17.489  14.798   1.037  0.1723 -0.2203 -0.0967
19727W        W38581  17.490   6.771   1.762 -0.2300  0.0424 -0.0806
19728W        W38582   5.503  16.658  15.570  0.1391  0.1090  0.0195
19729W        W38583   5.795   9.855   3.519 -0.0885  0.2038  0.0023
19730W        W38584  15.574  14.744   2.179  0.0898  0.2024  0.2164
19731W        W38585   5.565   6.507  16.296  0.0786  0.0508  0.3269
19732W        W38586  12.992  16.313  15.353  0.0854 -0.1856  0.0977
19733W        W38587  14.102   2.679   3.344  0.1367 -0.2029  0.2033
19734W        W38588  11.179   8.741   3.979  0.1900  0.0863 -0.0014
19735W        W38589  17.558   4.514   3.579  0.0703  0.1733 -0.1265
19736W        W38590  12.719  11.029   4.852  0.2513 -0.1268 -0.1418
19737W        W38591   6.462   5.707  14.342  0.0652  0.2989  0.1905
19738W        W38592   3.144   3.535   1.991 -0.0832  0.2304 -0.1386
19739W        W38593   3.060   0.475  14.081 -0.0323 -0.4358 -0.0474
19740W        W38594   0.776   4.026  12.667 -0.2239 -0.0278 -0.2962
19741W        W38595  14.668  13.216   0.558 -0.3756 -0.5713 -0.3765
19742W        W38596   2.785  11.931   4.731  0.0603 -0.2166  0.1518
19743W        W38597   6.933   9.878  13.785  0.0103  0.1015  0.0109
19744W        W38598   7.255  11.160   0.677  0.1691  0.0055  0.3501
19745W        W38599   8.529   0.166  12.791  0.0397 -0.0294 -0.6080
19746W        W38600  13.775   2.435  14.810 -0.3593 -0.0005 -0.0190
19747W        W38601  14.328  17.144  15.143  0.1633  0.2501 -0.1673
19748W        W38602  14.230  14.104   1.078 -0.4320  0.1689  0.1197
19749W        W38603   1.667  14.098  16.465 -0.0464  0.2370 -0.2666
19750W        W38604  17.381   2.034   2.298  0.2178 -0.0066 -0.0991
19751W        W38605  10.210   5.779   3.163 -0.1072  0.1818  0.0100
19752W        W38606  10.699   4.641   0.911 -0.1112 -0.1370 -0.0967
19753W        W38607  11.503   2.842  16.928  0.3040 -0.1074 -0.3695
19754W        W38608   4.584   7.200   1.474 -0.0774 -0.0134 -0.0764
19755W        W38609  11.820  12.724  16.393 -0.1454  0.1424 -0.1833
19756W        W38610   4.864   2.275  14.651 -0.1584  0.3590 -0.2037
19757W        W38611  10.988  13.657  16.452 -0.2937 -0.0029 -0.2787
19758W        W38612   2.263   6.485   2.309  0.1115  0.1958 -0.0740
19759W        W38613   4.393  10.076  14.193 -0.0290  0.2639  0.1912
19760W        W38614  11.784   3.415   5.317  0.2731 -0.2859 -0.0427
19761W        W38615  15.778   3.164   3.231  0.0424  0.2043  0.1097
19762W        W38616   6.551   3.316   0.366  0.0452  0.1088 -0.1808
19763W        W38617   3.924  12.556  14.584  0.0457  0.0305  0.0516
19764W        W38618   1.998  10.732  17.005 -0.2127  0.2632 -0.1399
19765W        W38619   1.657  15.631   3.869 -0.3667 -0.2274  0.1018
19766W        W38620  11.714   9.306   2.380  0.3948 -0.0654  0.2844
19767W        W38621  10.039   4.936  14.778  0.1479 -0.0483 -0.3140
19768W        W38622  11.668   9.828   0.506  0.0212 -0.0751 -0.0557
19769W        W38623   4.581  10.959  16.761  0.1759 -0.0567  0.1305
19770W        W38624   2.628   5.039  12.236 -0.1412  0.2092 -0.0359
19771W        W38625   2.646  10.596  15.320 -0.2610  0.1473  0.0080
19772W        W38626   2.963   1.589   0.451  0.2450 -0.1321 -0.3575
19773W        W38627   3.733   2.057   3.244 -0.2177 -0.1012 -0.2079
19774W        W38628   9.977  14.918   1.191  0.1699  0.3303 -0.7281
19775W        W38629   2.493  13.431  12.226 -0.2595  0.0803 -0.0683
19776W        W38630   2.547  10.727  12.703 -0.0760 -0.1992  0.1122
19777W        W38631  10.132   2.677   2.862 -0.5498  0.1736 -0.0336
19778W        W38632  12.886   4.918   0.097  0.0145  0.2447  0.4091
19779W        W38633   4.844   7.235  13.697 -0.0668  0.1316 -0.1902
19780W        W38634   0.962  17.355   0.707  0.2167  0.0026  0.1682
19781W        W38635  13.884  16.415  11.529  0.2241 -0.4184  0.3343
19782W        W38636   3.780   5.208  14.981 -0.0950  0.0997  0.1965
19783W        W38637  16.343  11.156  13.134  0.0667 -0.2956 -0.1494
19784W        W38638   5.853  15.372   0.949  0.1631 -0.2042 -0.4831
19785W        W38639  11.081  11.472  13.852 -0.0851  0.0317  0.1412
19786W        W38640  14.538  15.237  14.521  0.2439  0.3042  0.0506
19787W        W38641   1.249  11.542  14.166 -0.1249  0.0646 -0.3540
19788W        W38642   7.166  11.307  13.425 -0.1190 -0.0259  0.3494
19789W        W38643  16.234   1.358   5.996 -0.1150 -0.0819 -0.2428
19790W        W38644   7.140   9.499  14.210  0.0177 -0.1475  0.2932
19791W        W38645   2.350   0.996  16.982  0.0002  0.1153  0.2074
19792W        W38646  15.469   0.627   3.255 -0.1432  0.1234  0.1777
19793W        W38647   8.972  16.361  13.567 -0.2887 -0.2881 -0.0402
19794W        W38648   8.101  14.534  15.369 -0.0100 -0.2387 -0.2277
19795W        W38649  12.248  12.951  16.344 -0.0758  0.0317 -0.3692
19796W        W38650   9.416  17.004  14.874  0.2115 -0.1397 -0.0425
19797W        W38651   1.705   3.382   1.535 -0.0685  0.1977 -0.1685
19798W        W38652  13.521   9.116   3.752  0.2602  0.0517  0.0415
19799W        W38653   0.457   8.501   5.274  0.3807  0.3966 -0.0231
19800W        W38654  13.266   1.247  15.522 -0.0867 -0.1368  0.0636
19801W        W38655  12.045   2.552   5.136  0.0962 -0.0772 -0.2304
19802W        W38656   3.797   3.155  16.281 -0.0781 -0.1863  0.2210
19803W        W38657   3.152   3.723   0.045 -0.0167  0.1353 -0.2911
19804W        W38658   5.349  11.913   5.326 -0.1463 -0.0811  0.0463
19805W        W38659   1.232   8.443   5.358  0.0121  0.0631  0.0659
19806W        W38660   6.759  13.191  16.039 -0.1367 -0.0464  0.0860
19807W        W38661   6.413   0.838   2.328  0.0342  0.2218 -0.1722
19808W        W38662  10.427   5.750  13.136 -0.0976 -0.2112 -0.0445
19809W        W38663   2.375   0.313  15.934  0.2430  0.1167 -0.0152
19810W        W38664  17.272   4.055  13.234 -0.1284  0.0291  0.0438
19811W        W38665   9.076  12.608  11.817 -0.1935  0.1725  0.0089
19812W        W38666  16.153  15.271   2.989 -0.1738  0.2427  0.0460
19813W        W38667   0.802  16.420  15.066  0.0115  0.1386 -0.1874
19814W        W38668  10.376   3.524  16.314  0.2989  0.4184  0.1221
19815W        W38669   4.055  10.798   2.931  0.0229  0.3812  0.2847
19816W        W38670  16.197   5.781  16.924 -0.0451  0.0513 -0.1659
19817W        W38671   8.203   2.111   5.201  0.0040  0.0801 -0.0770
19818W        W38672   3.317   7.842   0.893  0.0460 -0.1023 -0.1811
19819W        W38673  17.408  16.038  14.196 -0.1838  0.1615 -0.1596
19820W        W38674  17.588  10.992  15.882 -0.0766  0.2250 -0.1027
19821W        W38675   8.515  11.193  15.962 -0.0722  0.3295 -0.1452
19822W        W38676  11.720   3.848  15.398  0.3686  0.0181  0.1967
19823W        W38677   7.999  17.367   0.201  0.1110  0.1477  0.2066
19824W        W38678   4.027  15.697  13.787  0.0278  0.3373  0.2502
19825W        W38679   4.021   8.425  12.264  0.0571 -0.0858 -0.0386
19826W        W38680   9.029   4.588   2.242 -0.0220 -0.0716 -0.0790
19827W        W38681   1.122  17.430   3.997  0.2797 -0.1695 -0.2956
19828W        W38682   3.945  12.805   2.120 -0.1332 -0.2215  0.1712
19829W        W38683   7.997   1.674   1.559  0.1092  0.2214  0.0090
19830W        W38684   0.327  10.910   5.487 -0.3135  0.1802  0.0425
19831W        W38685  15.416   4.652   2.973 -0.0910  0.2216 -0.1483
19832W        W38686   3.313   7.972  14.229  0.1049  0.0181 -0.1631
19833W        W38687  14.647  12.569   3.668 -0.2208 -0.0307  0.1154
19834W        W38688  14.825   2.333   4.342  0.0322  0.2761  0.1287
19835W        W38689  14.160   8.989  13.168 -0.2513  0.3166  0.0174
19836W        W38690   6.103   1.845   3.852  0.0727  0.2488  0.3276
19837W        W38691   1.901   3.146  13.743 -0.1356  0.0669 -0.0740
19838W        W38692   2.000   0.929   2.981 -0.1604 -0.0381  0.2850
19839W        W38693  13.759  16.478   2.384 -0.1725 -0.0198 -0.1178
19840W        W38694   2.357   5.870   0.463  0.0148  0.0216  0.1141
19841W        W38695   6.528   5.756   1.149 -0.1513  0.1436  0.0499
19842W        W38696  11.828   4.264   4.470 -0.1994  0.0082 -0.0083
19843W        W38697  13.256  15.964   1.124  0.2201 -0.0792 -0.0075
19844W        W38698   7.884   8.036   0.993  0.0685  0.0115  0.2691
19845W        W38699  17.372   5.030   1.515 -0.1150  0.0672 -0.4034
19846W        W38700  16.384   3.002  12.110  0.3827  0.0625  0.1841
19847W        W38701  16.517   1.725   4.797  0.0601  0.0161 -0.0727
19848W        W38702   7.226  12.619   5.132  0.1236  0.2133 -0.0672
19849W        W38703   3.052   2.730  12.145  0.0000 -0.0222  0.3129
19850W        W38704   9.991   7.238   4.358 -0.1486  0.0497 -0.2424
19851W        W38705  14.717   7.817  14.087 -0.0020 -0.1039 -0.1367
19852W        W38706  14.422   4.790  12.527 -0.1221 -0.2119 -0.0344
19853W        W38707  12.654   0.412   3.623  0.1006 -0.0290  0.0816
19854W        W38708  12.937  12.723  14.287 -0.1391 -0.2001 -0.0701
19855W        W38709   0.545  12.516   4.901 -0.0705 -0.0947 -0.0407
19856W        W38710   4.106   8.008   2.526  0.0233  0.2455 -0.2752
19857W        W38711   7.416  15.214   0.753  0.0519 -0.0083 -0.3152
19858W        W38712  13.750   1.107  15.331  0.0937 -0.3616  0.0222
19859W        W38713   7.158   1.479  16.145  0.1296 -0.1644  0.2027
19860W        W38714   3.779  15.673  16.510  0.0102 -0.1159  0.3259
19861W        W38715  10.542   7.805   1.106 -0.1687  0.0143 -0.1159
19862W        W38716  11.227  14.659   1.785 -0.1241 -0.1209 -0.2400
19863W        W38717  11.590   2.934  14.990  0.2141  0.3655 -0.0010
19864W        W38718  15.742   7.330  15.157  0.1628  0.0870  0.2536
19865W        W38719   0.395  13.790   3.073 -0.0901  0.3602 -0.0187
19866W        W38720  16.373  11.448   3.093  0.0522 -0.1836 -0.0952
19867W        W38721   0.401   3.284   3.181 -0.2111 -0.0421  0.3453
19868W        W38722  17.235   7.288   2.567 -0.2436  0.0984  0.2066
19869W        W38723   4.652  16.164   2.358  0.0102 -0.0896 -0.0730
19870W        W38724   1.233  14.121   0.173  0.0084 -0.1288 -0.2825
19871W        W38725   4.473   1.164  12.580  0.1354  0.0238 -0.0466
19872W        W38726   1.145  10.430  13.494 -0.0583  0.0854  0.1862
19873W        W38727  10.014   6.721   4.770 -0.1041  0.0436 -0.0258
19874W        W38728  12.983  14.898  16.638  0.2270  0.0795  0.1338
19875W        W38729   1.697   7.699  16.416 -0.0198  0.4701  0.0392
19876W        W38730   7.206  12.939   3.809  0.1286 -0.1867 -0.0357
19877W        W38731  10.499  15.441   4.837 -0.0088  0.0468  0.1820
19878W        W38732   9.295  13.581   4.540 -0.0997 -0.1421  0.0391
19879W        W38733   9.597  11.487  17.149  0.1820 -0.0455  0.0503
19880W        W38734   2.471   0.482  12.805 -0.2130  0.0872  0.0246
19881W        W38735   7.937   9.338   2.491 -0.2604 -0.2353 -0.0089
19882W        W38736  11.529  14.394  14.541  0.3980 -0.0449  0.1111
19883W        W38737  12.321   3.702  15.219 -0.3700  0.2395  0.2323
19884W        W38738   9.047   7.137  12.082  0.0152  0.0975 -0.0722
19885W        W38739   9.493  15.923   3.845 -0.2209  0.0579  0.0090
19886W        W38740   8.122   9.210  15.600 -0.2135 -0.2287 -0.0306
19887W        W38741  11.770   8.399   0.198  0.1992 -0.2540  0.1985
19888W        W38742   4.025  11.966  12.258 -0.1570 -0.2793 -0.0719
19889W        W38743   3.560   9.017   3.819  0.1475  0.0093 -0.2527
19890W        W38744  15.441  15.356   0.278 -0.3303  0.0296 -0.3163
19891W        W38745  16.783   6.135   5.661 -0.2403 -0.0337  0.2767
19892W        W38746   4.835   6.025  16.913 -0.1310 -0.3357  0.3222
19893W        W38747  14.107   6.535   1.370 -0.1000  0.3724  0.0266
19894W        W38748  11.623   6.088  16.259 -0.0364 -0.0711  0.1030
19895W        W38749  13.796  12.194   0.114 -0.2142  0.2503 -0.0424
19896W        W38750  14.681  11.114   3.779  0.0279 -0.4352  0.0577
19897W        W38751  12.415   0.052  15.224 -0.0004 -0.0882 -0.2809
19898W        W38752  16.394   6.261  14.760 -0.0397 -0.0831 -0.1891
19899W        W38753  17.472   0.263   2.833  0.2108  0.0383 -0.2597
19900W        W38754  17.149  16.719  17.193 -0.1536 -0.0405 -0.1411
19901W        W38755  10.134   0.605  15.828 -0.2532 -0.0466  0.1133
19902W        W38756  11.899  15.651  16.160 -0.1724  0.0087  0.1854
19903W        W38757  10.562   3.514   0.939  0.3041  0.2328  0.1001
19904W        W38758   8.368   6.450  15.513 -0.1818 -0.3012  0.0958
19905W        W38759  12.415   2.266   5.407  0.1423 -0.0528  0.0792
19906W        W38760   7.941  10.697  15.740  0.0226  0.2267 -0.1283
19907W        W38761   1.804   7.163   3.081 -0.0353  0.0025 -0.0170
19908W        W38762   5.741   2.105   1.593 -0.2252 -0.0530 -0.2988
19909W        W38763  15.286  16.199   4.402  0.0987  0.1146  0.1441
19910W        W38764  13.491   7.581  15.454 -0.1035  0.0075  0.2971
19911W        W38765   1.920  12.266   4.915 -0.2979  0.3167  0.0360
19912W        W38766   2.179  13.116   1.460 -0.0484 -0.0293  0.0630
19913W        W38767   0.430  16.925   4.441 -0.4585 -0.1624 -0.2456
19914W        W38768  14.849   5.174  17.069 -0.1497 -0.1879  0.1305
19915W        W38769   2.089  11.971  15.393  0.2341 -0.0841  0.0222
19916W        W38770  10.434   0.721   1.332 -0.1145 -0.3240  0.0577
19917W        W38771  11.441   4.939  15.608  0.0780  0.3780  0.2987
19918W        W38772   4.965   1.057   3.839  0.1761 -0.0026  0.2751
19919W        W38773   9.801   6.682   4.191 -0.2280  0.0244 -0.1880
19920W        W38774   1.163  12.951   4.178 -0.2228 -0.0030 -0.1802
19921W        W38775  11.679   6.365   1.467 -0.0979 -0.0274  0.0120
19922W        W38776  15.806   5.452  11.426  0.0859  0.0611  0.0433
19923W        W38777   4.481   8.201  13.367  0.1618 -0.0997  0.1848
19924W        W38778   4.205   8.454  13.708  0.0768 -0.2043  0.4361
19925W        W38779   2.500  13.367  17.231  0.1833 -0.0240 -0.1324
19926W        W38780   6.151  15.220  17.174 -0.2097  0.3432  0.1214
19927W        W38781   7.321  12.352  15.257  0.0377  0.0937  0.0115
19928W        W38782   9.533   0.473   3.257 -0.1694 -0.1042 -0.1237
19929W        W38783   0.995   7.226   0.490  0.0341 -0.2442 -0.4571
19930W        W38784   4.621  17.399   1.504  0.0930  0.0032  0.3800
19931W        W38785  16.367   3.611   1.553 -0.0650  0.0513  0.1113
19932W        W38786  11.836   3.410  15.163  0.1388  0.1066 -0.2946
19933W        W38787  15.184   8.512   5.335  0.0312 -0.0550 -0.1677
19934W        W38788  14.002   7.764  17.084 -0.2047 -0.0417  0.1598
19935W        W38789  12.583  15.987   2.565 -0.2724  0.0041 -0.5013
19936W        W38790   4.989  11.975   4.922  0.2802  0.2310  0.3403
19937W        W38791   9.105   2.394  16.765  0.0474  0.0917 -0.2240
19938W        W38792   6.452  14.244  13.428 -0.1872 -0.2279 -0.0452
19939W        W38793   3.328  13.295   3.335 -0.0459 -0.2335  0.1201
19940W        W38794   6.335   1.432  14.504 -0.1311 -0.0371  0.0637
19941W        W38795   0.097  16.017   1.559  0.1098  0.4596 -0.2393
19942W        W38796   8.923  14.193   4.739  0.2399 -0.2246  0.2007
19943W        W38797   5.211  15.415   0.028  0.0529 -0.0946 -0.0117
19944W        W38798  10.945  12.401  16.615 -0.0439 -0.0605 -0.0499
19945W        W38799  13.984   5.969  15.110 -0.0691 -0.1564  0.1810
19946W        W38800   7.319  14.301  16.795 -0.1050  0.2781  0.3545
19947W        W38801   5.813  14.966   1.315 -0.1249  0.2931  0.1109
19948W        W38802  12.537  11.794  14.224 -0.0495  0.2388 -0.3383
19949W        W38803  12.268  13.243  13.019  0.0273 -0.0639 -0.1306
19950W        W38804   4.465   6.027   5.478 -0.2566 -0.0783 -0.1272
19951W        W38805   3.609  14.254   2.735 -0.3503 -0.1046  0.1212
19952W        W38806   3.154  15.050   4.997 -0.2329  0.1227  0.2282
19953W        W38807  14.000   7.555  12.885 -0.1334  0.1791  0.1555
19954W        W38808   8.683   8.527  14.532  0.3988 -0.0819 -0.2337
19955W        W38809   5.431   8.135   0.513 -0.3776  0.0399 -0.2358
19956W        W38810   2.470   4.013  15.312 -0.1269  0.3696  0.2178
19957W        W38811  14.572   6.628   4.093 -0.0570  0.1089 -0.0732
19958W        W38812   1.642   6.515  13.752  0.0206  0.1021 -0.0500
19959W        W38813  12.308  10.068   0.680 -0.1729  0.0589  0.0890
19960W        W38814   2.240  10.522  13.577 -0.3853 -0.0465 -0.5731
19961W        W38815  16.449   5.967  12.552  0.0660  0.0466 -0.4018
19962W        W38816  10.764  13.351  14.705 -0.2008  0.0509  0.0257
19963W        W38817   7.502   5.191  14.849 -0.1664  0.0050  0.0023
19964W        W38818   5.730  10.022   1.378 -0.2822 -0.1809  0.1453
19965W        W38819  10.283   6.731   0.560 -0.2101  0.0128 -0.1487
19966W        W38820  16.049   8.221   3.115  0.0407 -0.0069 -0.0421
19967W        W38821  13.051  17.277  16.260  0.4116  0.2462 -0.2066
19968W        W38822   9.934  16.951  14.062  0.0641  0.0119 -0.2210
19969W        W38823   0.309   2.453  15.788 -0.1085  0.0939 -0.0145
19970W        W38824  17.046   1.311   1.069  0.2379  0.1292  0.1769
19971W        W38825  10.357   5.883  15.005 -0.0783  0.0323 -0.2462
19972W        W38826   6.652  13.101   1.253  0.1296  0.3054 -0.1758
19973W        W38827   1.801   7.434   0.120  0.1558 -0.0076  0.2676
19974W        W38828  13.091   4.516   3.013 -0.1525 -0.0414 -0.1939
19975W        W38829  16.869   1.253  12.669  0.1198 -0.0131  0.0243
19976W        W38830  17.524  11.743  13.005 -0.2300  0.2389  0.0505
19977W        W38831   2.124  16.096  15.326  0.2258 -0.1250 -0.2869
19978W        W38832  12.935   9.251  14.189  0.0071 -0.0780  0.0646
19979W        W38833  10.561  16.676   3.351 -0.3451 -0.2591 -0.0850
19980W        W38834   1.149   9.395  14.993  0.0021  0.1507  0.0036
19981W        W38835   2.550  10.273   1.182 -0.2689 -0.0852 -0.1101
19982W        W38836  14.762   3.575   4.920 -0.0911  0.1031 -0.1809
19983W        W38837   9.346   4.754  14.099  0.1145  0.3061 -0.3447
19984W        W38838  10.877   1.971  16.059 -0.0200 -0.0327 -0.1511
19985W        W38839   1.012  13.671   1.471 -0.0214  0.0522 -0.0646
19986W        W38840  13.541  12.068   5.083 -0.1607 -0.3011  0.0776
19987W        W38841   9.158  17.600   4.152  0.0700 -0.1365 -0.3318
19988W        W38842  10.890   7.272   0.085 -0.0765 -0.0498 -0.0941
19989W        W38843   8.130   4.518  15.642 -0.1078  0.0826 -0.1608
19990W        W38844   7.076  16.819  16.658  0.1118 -0.0637  0.1254
19991W        W38845   5.098  17.191   5.485 -0.0978 -0.0252  0.1679
19992W        W38846  16.848   2.698   2.044 -0.2976 -0.0964 -0.1138
19993W        W38847  14.353  13.194   4.124  0.0896  0.1452  0.0328
19994W        W38848   8.028  15.772   2.795  0.2682 -0.1236 -0.3742
19995W        W38849  13.678  12.133  15.920  0.0942  0.0828 -0.1102
19996W        W38850   3.177  15.111  15.022  0.0328 -0.0273  0.2104
19997W        W38851   1.801   5.065   6.040  0.0071 -0.0486  0.2607
19998W        W38852   3.528  10.865  15.199 -0.0891  0.1688  0.1477
19999W        W38853   0.575  14.541   3.685  0.0549 -0.2457 -0.1723
20000W        W38854  10.715  14.121  13.193 -0.3783 -0.1241 -0.0020
20001W        W38855   5.307   4.286   3.187  0.0131  0.0491  0.1686
20002W        W38856  16.699   3.011  16.729 -0.2834 -0.0053  0.4225
20003W        W38857   2.776  13.117  15.455 -0.2239  0.2094  0.0458
20004W        W38858  15.937   9.377   0.056  0.2052 -0.0217 -0.2613
20005W        W38859   3.207   3.169  15.561 -0.1634  0.6316  0.1710
20006W        W38860   9.615  10.014   4.619 -0.1967 -0.0486  0.1119
20007W        W38861  11.925   3.259   3.923  0.0937 -0.1548  0.0360
20008W        W38862   3.988   8.702  16.502 -0.0365 -0.2544 -0.0189
20009W        W38863   3.779  13.306   1.972 -0.2252 -0.0754 -0.1823
20010W        W38864   2.291   0.039   2.830  0.0754  0.2735  0.0193
20011W        W38865   4.840   5.779  13.186  0.2048  0.1974 -0.3485
20012W        W38866  15.359   5.686   4.637  0.0449  0.2514 -0.0014
20013W        W38867   9.710  15.820   1.187  0.1209  0.1950  0.5958
20014W        W38868  14.731  11.744   0.707  0.1645  0.1178  0.1365
20015W        W38869   5.736   1.025   3.127  0.1462  0.1849  0.1196
20016W        W38870   7.088  10.513   5.007 -0.2397  0.1725  0.0397
20017W        W38871   0.132  13.233   0.081  0.1089 -0.0246 -0.3059
20018W        W38872   9.703  14.091   4.055 -0.1904 -0.1106 -0.0171
20019W        W38873  16.746   7.182  13.235  0.1977  0.0008  0.2490
20020W        W38874   9.562  11.886  13.172  0.1834  0.1742  0.2595
20021W        W38875   7.384   0.866   4.267  0.1265  0.1741 -0.1148
20022W        W38876   1.458   9.366  16.445 -0.0942 -0.0487 -0.0719
20023W        W38877  12.938   6.194  16.738 -0.0695  0.1448 -0.4253
20024W        W38878  13.510   0.135   4.271 -0.0635  0.2083  0.2307
20025W        W38879  16.058   7.126  13.759 -0.3305  0.0082 -0.2682
20026W        W38880  13.782   7.718  13.834  0.1290  0.0917  0.4373
20027W        W38881   8.681   8.362  15.442 -0.0766 -0.2958 -0.3362
20028W        W38882   0.879  11.798  15.630 -0.2935  0.2403  0.3851
20029W        W38883   3.637   8.383   4.991  0.0192  0.1034  0.0881
20030W        W38884  12.408   1.769   1.380  0.1332 -0.1471  0.1360
20031W        W38885   5.479  14.919  14.794  0.0274 -0.2466  0.0138
20032W        W38886   6.609   1.211  13.916  0.1671  0.2277 -0.1646
20033W        W38887   5.699  17.186  16.671 -0.0373 -0.4626 -0.2627
20034W        W38888   0.065  11.543  16.606  0.2647  0.2292  0.0297
20035W        W38889  14.448   3.759   4.471  0.1130 -0.0354  0.0714
20036W        W38890   5.582  11.577   2.682 -0.1712 -0.0136  0.1547
20037W        W38891  16.050  11.430  12.375 -0.1493 -0.3350  0.2300
20038W        W38892   1.398   5.415  16.866  0.3853  0.0183  0.0222
20039W        W38893  17.579   7.488  16.598 -0.3368  0.0377  0.1196
20040W        W38894  15.872   8.301  14.705  0.1975  0.0266 -0.4038
20041W        W38895   5.493   7.397  12.331 -0.0488 -0.1712  0.1533
20042W        W38896   8.424   3.052   1.828 -0.1017  0.1504 -0.0409
20043W        W38897  17.193   8.296   5.094 -0.1332  0.1241 -0.0182
20044W        W38898   7.465   6.277  13.366 -0.1708 -0.1454 -0.0522
20045W        W38899   6.160  10.622  15.461  0.0987  0.2342  0.0599
20046W        W38900   3.553  15.871  16.130  0.2949 -0.2879  0.1615
20047W        W38901  11.413   5.744  16.581  0.1719  0.2095  0.0931
20048W        W38902   3.463   3.131   1.664  0.2732  0.1861 -0.0152
20049W        W38903   9.856  15.391   3.438  0.0577  0.0685  0.0860
20050W        W38904  11.065   6.207   4.171  0.2699  0.2868  0.2189
20051W        W38905   9.843  12.732  16.595 -0.0149 -0.0225  0.0489
20052W        W38906   6.243  10.617   4.980  0.0153  0.2219  0.0490
20053W        W38907  12.956   9.659   2.215 -0.2858 -0.0856 -0.0868
20054W        W38908  15.280  10.290   5.749 -0.0425 -0.2161 -0.0240
20055W        W38909   6.721   4.720   4.608 -0.2293 -0.0146 -0.0154
20056W        W38910   8.368  12.943   2.331 -0.2120  0.1525  0.2176
20057W        W38911   7.362   8.555  16.614 -0.2100  0.0616 -0.0214
20058W        W38912   9.616   0.872  12.982 -0.0698  0.4510  0.0239
20059W        W38913  14.076  12.667   0.886  0.1844 -0.0809  0.2526
20060W        W38914   1.933   4.086  13.513 -0.0230  0.0664  0.0100
20061W        W38915   9.004   7.733  15.165 -0.2584  0.0072 -0.4031
20062W        W38916   3.966   2.941  13.488  0.1318 -0.1901 -0.0471
20063W        W38917  14.724   1.331   3.444 -0.1093  0.2767 -0.1928
20064W        W38918  17.063  11.221  15.296  0.1748  0.1490 -0.4577
20065W        W38919   7.622   6.488   0.814  0.0235  0.0399 -0.3742
20066W        W38920  17.154   6.355  17.021 -0.0384 -0.1651 -0.0059
20067W        W38921   1.146   2.382   2.871  0.0393  0.2108 -0.3405
20068W        W38922   7.157  10.900  16.146 -0.1127 -0.0040  0.1046
20069W        W38923  11.395  11.780  16.128  0.0559 -0.3108 -0.0010
20070W        W38924  16.674  13.437  14.323  0.1919 -0.1528  0.0312
20071W        W38925   0.908   8.923  14.888 -0.1766  0.0584 -0.0025
20072W        W38926  10.018  10.987  15.023 -0.0834 -0.0151  0.2379
20073W        W38927   0.760  13.851   3.508  0.0441 -0.2769 -0.1929
20074W        W38928   9.963   7.257  17.115 -0.0278  0.0303 -0.1854
20075W        W38929   2.990  16.333  16.559 -0.2063 -0.3841 -0.2854
20076W        W38930   3.862   4.456   5.073  0.1813 -0.3250  0.0184
20077W        W38931   2.777  13.057  13.012  0.0409 -0.1158  0.0324
20078W        W38932  10.223   0.294   3.304 -0.1172 -0.0761  0.0020
20079W        W38933  12.244   4.371   2.832 -0.1540 -0.3220 -0.2261
20080W        W38934  11.835  14.405   3.690  0.1086  0.2659 -0.0005
20081W        W38935   1.954   1.100   1.981 -0.0507  0.0950  0.0205
20082W        W38936  14.505   9.186   3.511 -0.1980  0.2294 -0.1811
20083W        W38937   9.105   0.524   4.865  0.0229 -0.1966 -0.0518
20084W        W38938   1.065  13.316  12.082  0.1637  0.0081  0.0638
20085W        W38939  11.326   3.104   1.485 -0.0500 -0.1110  0.0357
20086W        W38940   9.964   5.330   4.402 -0.1360  0.2312  0.1532
20087W        W38941   5.046   7.364  17.033 -0.2859  0.0191 -0.0117
20088W        W38942  11.279  11.987  13.795 -0.4026  0.2856  0.0418
20089W        W38943   9.520   6.839   1.745  0.0483  0.1698  0.1314
20090W        W38944   6.004   7.154   0.479 -0.0634  0.0044  0.3259
20091W        W38945   0.800  17.346  16.564 -0.2482  0.0913  0.3179
20092W        W38946   2.723  13.284   5.025 -0.3301  0.0073 -0.4722
20093W        W38947  11.605   9.691   4.112  0.1452 -0.0549  0.0918
20094W        W38948   6.842   8.745   1.005  0.2591  0.2938  0.1795
20095W        W38949  12.537  10.913   0.674 -0.2052 -0.3941 -0.1239
20096W        W38950  12.196  10.351   0.134 -0.1147 -0.0554  0.1826
20097W        W38951  11.112  11.686   4.178 -0.0378  0.2764  0.0049
20098W        W38952   3.378   4.903   2.494  0.0540 -0.0446 -0.0144
20099W        W38953   9.555  17.570  14.908  0.2267 -0.3044  0.0437
20100W        W38954   6.396   6.177  12.977 -0.0819  0.1548 -0.0639
20101W        W38955  11.615   8.800  16.573  0.1052 -0.1891  0.1781
20102W        W38956   8.804   4.766  14.053 -0.1801 -0.0212 -0.2638
20103W        W38957  14.138   2.129   3.474 -0.1705 -0.1527 -0.0987
20104W        W38958  10.402   4.387  17.128  0.1532 -0.2227 -0.3448
20105W        W38959  11.927   2.345  13.448  0.2106 -0.1366  0.2368
20106W        W38960   8.673  13.933   5.169  0.3777  0.2258  0.3404
20107W        W38961   1.600   6.118  11.984 -0.2779 -0.0466  0.2452
20108W        W38962  14.182   6.080   1.889  0.2353  0.0084  0.0491
20109W        W38963   8.513   4.107   5.016 -0.3307 -0.2457  0.0456
20110W        W38964  14.281  15.186   1.586 -0.0139  0.2366 -0.0270
20111W        W38965   3.148   0.571  15.305 -0.0602  0.3572 -0.1917
20112W        W38966  12.219  16.870  15.572  0.2261 -0.4257 -0.2109
20113W        W38967   3.796   5.590   3.590 -0.2526  0.0324 -0.3549
20114W        W38968  14.005   4.418  14.404  0.1284 -0.0785  0.0010
20115W        W38969  16.409  14.756  12.120  0.0813  0.2416 -0.1808
20116W        W38970   7.883   2.552  16.638  0.2658 -0.2447  0.0603
20117W        W38971   5.854  13.038   5.390 -0.1280  0.1123  0.0913
20118W        W38972   0.550   1.247   1.491  0.1362 -0.1010 -0.2629
20119W        W38973   1.295  16.320   3.365  0.3653  0.0216 -0.0924
20120W        W38974  14.276   1.092  15.544 -0.0460  0.0209  0.1514
20121W        W38975  11.652   9.331   0.007  0.0930  0.0715 -0.0576
20122W        W38976  14.096   2.997   3.856 -0.1628  0.2089 -0.1432
20123W        W38977  11.309  16.628   4.835 -0.1439 -0.1037  0.1002
20124W        W38978  12.778  14.223   4.268  0.1328  0.1299  0.3390
20125W        W38979  15.177  11.551   3.947 -0.0282 -0.1403  0.3241
20126W        W38980   3.945   6.109   4.790 -0.0093  0.1576  0.1595
20127W        W38981   3.530  10.182  14.021  0.1369  0.2478 -0.0779
20128W        W38982   7.790   6.457   0.167  0.0455 -0.0627  0.1082
20129W        W38983  10.839  12.633  12.250  0.2405 -0.0154  0.1289
20130W        W38984  11.156  10.635  16.726 -0.3302 -0.1118  0.0911
20131W        W38985  14.409   4.166  13.124 -0.1132  0.2410  0.2937
20132W        W38986  12.848   8.631   4.365  0.0329  0.0703 -0.0517
20133W        W38987   0.752   4.578   0.732  0.0272  0.1057 -0.2983
20134W        W38988  14.748   9.891   0.177 -0.1760  0.1891  0.0624
20135W        W38989  14.465   8.820   5.489 -0.1087  0.3572  0.0656
20136W        W38990   9.746   4.966   3.390  0.1198  0.1581  0.1300
20137W        W38991  10.602   1.084   3.772  0.1961 -0.4747  0.1874
20138W        W38992  12.216   0.530  13.776  0.2230  0.0677 -0.1572
20139W        W38993   5.990  14.797   2.204 -0.0154  0.5392  0.2107
20140W        W38994   9.671   5.660  15.484 -0.1556 -0.0136 -0.1285
20141W        W38995   7.102  13.147   4.681  0.0355 -0.2142 -0.2260
20142W        W38996   2.218   6.845   0.407  0.0598  0.2335  0.2249
20143W        W38997  12.404  16.350   4.179  0.4179 -0.1595  0.2072
20144W        W38998   3.492   8.919  16.156  0.1991  0.0309 -0.2077
20145W        W38999   5.957  10.184   3.185 -0.2732 -0.4068 -0.0419
20146W        W39000  14.195   3.297  16.282 -0.2450  0.1234  0.2309
20147W        W39001   5.463  14.011  17.192  0.1091  0.0091  0.3245
20148W        W39002  13.676  17.228   2.158 -0.0934 -0.0459 -0.0050
20149W        W39003   2.508   1.345  13.004  0.0307  0.1113  0.2113
20150W        W39004  13.705   8.059   3.752  0.1945 -0.2855 -0.0590
20151W        W39005  14.187  14.025   2.153 -0.0925 -0.3327 -0.1302
20152W        W39006   7.000  17.543  15.851  0.0286  0.3087  0.1541
20153W        W39007   0.802  12.793  12.173  0.2406  0.1037 -0.0586
20154W        W39008  17.159   5.321   4.199  0.2738  0.0913  0.3099
20155W        W39009   3.580  13.924  12.635 -0.0916 -0.1779 -0.2634
20156W        W39010   3.923   3.805  17.088  0.0375  0.3807  0.0323
20157W        W39011   3.382   4.247   1.344  0.1760  0.0730  0.4181
20158W        W39012   6.493  12.441  17.065 -0.2491 -0.2339  0.4055
20159W        W39013   4.260  16.796  14.974  0.1312  0.2965 -0.3287
20160W        W39014  12.981  12.990  15.113 -0.2102 -0.0309 -0.1745
20161W        W39015   9.837  12.367   2.269 -0.0300  0.0579  0.1638
20162W        W39016  14.499   8.192  13.803  0.1534 -0.0208 -0.0510
20163W        W39017   5.393  12.735   0.535  0.0443  0.1183 -0.4395
20164W        W39018   9.165  16.104  16.526  0.1532  0.5522 -0.0626
20165W        W39019   9.265   7.241   2.001 -0.0562  0.3787  0.1203
20166W        W39020   3.605   6.822   0.321  0.2320  0.1206 -0.0813
20167W        W39021   4.698   7.376  15.392  0.1644  0.0887 -0.1303
20168W        W39022   9.509  13.617  12.286  0.1483  0.2707 -0.1172
20169W        W39023  14.353   6.230  14.673  0.0642 -0.0110 -0.1314
20170W        W39024   6.873   3.170  16.786 -0.2645  0.3317  0.2045
20171W        W39025  16.660   2.472   3.234  0.1033  0.1463  0.1634
20172W        W39026  15.047  12.822  15.777  0.3561 -0.3735 -0.2730
20173W        W39027   7.545   8.027  16.768 -0.1612 -0.2945  0.2236
20174W        W39028  15.851  10.891  14.229  0.1101 -0.0996  0.1111
20175W        W39029  10.667  15.968  14.599 -0.0364 -0.1470 -0.0206
20176W        W39030  10.291  15.355   1.572  0.4003 -0.0026 -0.1506
20177W        W39031   6.909  16.182   2.403 -0.4023 -0.0536  0.1086
20178W        W39032   6.654   2.335  15.908  0.1104 -0.0818  0.0437
20179W        W39033   3.279  11.719   3.335 -0.1098  0.0713 -0.0987
20180W        W39034   5.861  13.316   3.205  0.2495  0.0673  0.0817
20181W        W39035   1.250  13.526  14.094 -0.2001  0.0595 -0.3362
20182W        W39036  10.241  10.568   3.094  0.1633 -0.0124 -0.0598
20183W        W39037   4.976   9.559  15.305 -0.0886  0.0062  0.1413
20184W        W39038   2.156  14.117  15.289 -0.2683 -0.0953  0.0356
20185W        W39039   7.119   5.960   1.925 -0.0964  0.0786 -0.1415
20186W        W39040  15.020  10.700   3.666  0.1941  0.1305 -0.0661
20187W        W39041  14.216  15.529  16.722 -0.0756 -0.2646 -0.2392
20188W        W39042  16.771   1.219  14.141  0.0445  0.1800 -0.0437
20189W        W39043   9.880  16.678   3.464  0.1044 -0.3430  0.1458
20190W        W39044   1.355  13.708   2.228  0.3086  0.5385 -0.1977
20191W        W39045   1.581  14.339   4.099 -0.0059 -0.0417  0.3188
20192W        W39046   8.863  12.857   3.983 -0.1259  0.0983 -0.1029
20193W        W39047   6.837   7.492   1.485 -0.2233  0.0433 -0.0403
20194W        W39048   2.176   4.605  12.799 -0.1129  0.0660  0.0504
20195W        W39049   7.342  15.058   4.392  0.2685 -0.2173 -0.0694
20196W        W39050   0.222   6.787  15.702  0.1786  0.0761 -0.2436
20197W        W39051  13.133  14.832   2.145  0.2185  0.1835  0.0259
20198W        W39052   3.644   7.193   4.081 -0.1332  0.1514 -0.3367
20199W        W39053   6.051  16.020  15.851 -0.3351 -0.3125 -0.0040
20200W        W39054  14.962  11.135  13.205  0.0649  0.0216  0.1867
20201W        W39055  16.814  10.621  16.851  0.2029 -0.1431  0.1790
20202W        W39056   0.762   9.929  16.970  0.2394 -0.1535  0.1859
20203W        W39057   7.380  10.647   0.336 -0.1603 -0.3995 -0.3122
20204W        W39058  10.237   5.360   3.466 -0.4033 -0.0180  0.0558
20205W        W39059  14.443   6.088   3.169  0.0688 -0.0407  0.1824
20206W        W39060  16.789  12.687   0.474  0.4011  0.0543  0.0248
20207W        W39061  16.310   1.273  11.129  0.4578 -0.0722  0.1205
20208W        W39062  11.472  14.444  13.299 -0.1457 -0.4091 -0.2630
20209W        W39063   1.763   1.213  14.583  0.1482  0.3185  0.0558
20210W        W39064   2.316   3.073  11.784 -0.1613 -0.0102  0.2727
20211W        W39065   5.872   7.026  16.220  0.2568  0.2709 -0.1930
20212W        W39066  15.027  12.948   5.016 -0.0598  0.2909 -0.0516
20213W        W39067   4.646  10.814  13.725 -0.0842  0.2727 -0.2706
20214W        W39068  14.235   6.794   2.427  0.1180 -0.0062 -0.0076
20215W        W39069   6.448  14.275  14.984 -0.3456 -0.4267  0.0070
20216W        W39070  15.745   0.178   1.069  0.4316 -0.1733 -0.2538
20217W        W39071  13.122  10.812   3.836 -0.0224  0.3267 -0.0757
20218W        W39072   7.315  13.182  15.989 -0.1714  0.1723 -0.1346
20219W        W39073   3.393   1.525  15.641 -0.0369  0.2115 -0.2350
20220W        W39074  11.762   3.591  17.065 -0.1105  0.1208 -0.0830
20221W        W39075  13.521  17.462  16.013  0.0917  0.2168 -0.0477
20222W        W39076  17.427   9.987  16.428 -0.0538  0.0968 -0.1052
20223W        W39077   0.929  12.591  13.380 -0.0811 -0.0407 -0.0214
20224W        W39078   0.407   8.087  14.853  0.0110  0.3058 -0.1598
20225W        W39079  12.680   6.781   0.758 -0.2829  0.2250 -0.3423
20226W        W39080  16.126  15.257  14.657  0.0135  0.2196  0.0106
20227W        W39081  16.045   6.006  14.000 -0.2640 -0.0658 -0.1907
20228W        W39082   1.593   2.136  16.636 -0.0663  0.0446  0.0434
20229W        W39083   8.146  11.022  15.020  0.1967 -0.0663  0.0088
20230W        W39084   8.925   8.276   0.242 -0.0903  0.1525  0.1794
20231W        W39085   3.619  11.041   3.920  0.2770 -0.2149  0.0990
20232W        W39086  14.292   3.010   1.028 -0.0287  0.5222  0.1319
20233W        W39087   1.265   6.548  11.861 -0.0610 -0.0084 -0.0704
20234W        W39088   7.355   2.567   3.644  0.2460 -0.0795  0.0072
20235W        W39089   1.020   2.297   4.826 -0.0442 -0.2440  0.0687
20236W        W39090  17.214  16.455   0.416  0.1079  0.0722 -0.0892
20237W        W39091   1.394   6.507  12.350 -0.0418  0.0485  0.0361
20238W        W39092  13.370   0.895  13.528 -0.1739  0.0779 -0.2185
20239W        W39093   1.332   5.691  12.107 -0.0036  0.2486 -0.0848
20240W        W39094   3.295   5.823   0.451 -0.3349 -0.0669 -0.1795
20241W        W39095  14.830   3.949  12.980  0.3690 -0.1594 -0.0651
20242W        W39096   8.715   2.146   4.345 -0.0890  0.1701 -0.0054
20243W        W39097  12.463   8.116   1.363 -0.0674  0.1331  0.1679
20244W        W39098  11.020   4.955  13.574 -0.1189  0.3361 -0.1551
20245W        W39099   3.001  15.149   5.443 -0.2795 -0.1082  0.1525
20246W        W39100  11.534   5.089  12.848  0.3107  0.1382  0.3322
20247W        W39101  10.349   4.802   3.013  0.0732  0.0142  0.2622
20248W        W39102   1.140   4.297  12.106 -0.0211 -0.1305 -0.1634
20249W        W39103  13.848   6.345  11.384  0.0420  0.0314 -0.0067
20250W        W39104  17.040  17.055  14.677 -0.2585  0.3128 -0.1162
20251W        W39105   9.066   4.561   3.974  0.2824  0.2151 -0.0085
20252W        W39106   0.398   3.960  14.306 -0.0215  0.0854 -0.0061
20253W        W39107  16.893   8.347  11.941  0.0176  0.0133  0.4104
20254W        W39108   4.136   9.766   4.231  0.2576 -0.1830 -0.0560
20255W        W39109   8.283   9.840   0.397  0.2894 -0.0247 -0.0378
20256W        W39110   4.586  13.754   0.040  0.0198  0.2294 -0.3993
20257W        W39111   0.807   5.157  15.707  0.6156  0.2521  0.0665
20258W        W39112   3.261  16.219   2.427 -0.2162 -0.0590 -0.1225
20259W        W39113   8.112  15.306  12.794  0.2113 -0.2139 -0.1217
20260W        W39114   9.143   8.535   1.197  0.1449 -0.0203  0.1291
20261W        W39115   1.899   7.852   1.371 -0.0903 -0.0103  0.3361
20262W        W39116  10.814   9.750   2.590  0.2285  0.0425 -0.2758
20263W        W39117   2.130   3.557  12.900 -0.0683 -0.1805 -0.2141
20264W        W39118   1.459   6.716  13.304 -0.0620  0.3204 -0.3217
20265W        W39119   0.600  10.778   3.743  0.2313  0.2342  0.3259
20266W        W39120   9.054   7.116  17.007  0.0693 -0.1846  0.1537
20267W        W39121   2.187   9.518   2.127  0.0502 -0.2068 -0.0656
20268W        W39122  12.390   1.729   5.320  0.0126  0.2584  0.1063
20269W        W39123  14.661   0.035   3.924 -0.1908  0.3097 -0.0632
20270W        W39124  12.272   5.537   5.347  0.0605 -0.0270 -0.2372
20271W        W39125   4.953   0.709  14.784  0.1942 -0.0687  0.1552
20272W        W39126   6.669   9.758   2.038 -0.5689  0.1645  0.3460
20273W        W39127  12.896   7.470  16.200  0.1577 -0.2079 -0.0692
20274W        W39128   0.314   9.296   3.781 -0.0954 -0.1559  0.0325
20275W        W39129  16.142  16.682  14.998 -0.3123  0.2050 -0.0450
20276W        W39130   4.429   7.723   1.370 -0.1210  0.2360  0.2916
20277W        W39131   4.736   2.861   1.147  0.3043  0.0457  0.2052
20278W        W39132  13.996  11.098   1.628 -0.0468 -0.0497 -0.2941
20279W        W39133  15.910  15.545   4.717  0.1699  0.2091  0.0479
20280W        W39134   1.542  11.107   5.428  0.0936  0.0182 -0.0653
20281W        W39135  10.953  14.957  16.506  0.1585  0.1269 -0.0435
20282W        W39136   4.995   1.811   4.173  0.1417  0.3179 -0.1219
20283W        W39137  11.003   4.165  12.309  0.1018 -0.1591  0.2240
20284W        W39138   5.014  17.198   1.145  0.0314 -0.0225 -0.1070
20285W        W39139  11.895  10.619  14.685 -0.0445  0.2320 -0.1393
20286W        W39140  10.218  12.447  15.266 -0.3801  0.1337 -0.0872
20287W        W39141   5.410   4.993   1.398  0.1311 -0.1618  0.0700
20288W        W39142   0.178  10.288  13.183 -0.0822  0.1422  0.3499
20289W        W39143   6.483   1.572  13.470 -0.2566  0.0538  0.0739
20290W        W39144   2.799  10.577   0.311 -0.2684  0.0765  0.1312
20291W        W39145   4.244   0.542   3.973 -0.1109 -0.0926 -0.1650
20292W        W39146  16.847  17.355  14.229 -0.1740  0.2114 -0.0307
20293W        W39147   4.444   9.821  15.981  0.3747 -0.0277 -0.1501
20294W        W39148  14.682  14.070  13.946 -0.0722 -0.1678 -0.0062
20295W        W39149  12.567   6.558  17.217  0.1677 -0.0717  0.1589
20296W        W39150   5.971   1.397  13.354  0.2317  0.0584 -0.3781
20297W        W39151   6.862  11.814  15.847 -0.4287  0.0354  0.0917
20298W        W39152   3.846   7.933  12.315 -0.0475 -0.1554  0.3348
20299W        W39153   7.277   7.398  14.338  0.1361 -0.0590  0.0058
20300W        W39154  11.365   6.579   4.366 -0.2142 -0.2307 -0.1488
20301W        W39155  11.880   2.296   4.366 -0.2065  0.1483 -0.1524
20302W        W39156  14.024  10.380  14.657 -0.2252 -0.4080  0.1002
20303W        W39157  14.526   2.705  13.004  0.0134 -0.1782  0.1934
20304W        W39158   1.738   5.460  14.562 -0.0864  0.0581 -0.0297
20305W        W39159   5.599   3.297  11.819 -0.1803 -0.3719 -0.1653
20306W        W39160   5.529   3.559   4.053 -0.0774 -0.0257 -0.1110
20307W        W39161  14.375  11.534  16.628  0.0381 -0.1708  0.3517
20308W        W39162  14.408  11.617   2.891  0.2376 -0.2968 -0.0113
20309W        W39163  16.731  16.359   3.770 -0.1341  0.1005 -0.0834
20310W        W39164   0.621   5.714   0.759 -0.2503  0.0498  0.0461
20311W        W39165  16.334  10.438   3.537  0.2774  0.2528 -0.1229
20312W        W39166   2.929   8.714  15.990  0.0607  0.0283  0.0384
20313W        W39167   4.867   3.318   1.154  0.1518 -0.1544 -0.0784
20314W        W39168  13.823   0.265  13.097  0.1573  0.0867 -0.0496
20315W        W39169   1.301   4.447   1.894 -0.3337 -0.0851  0.0481
20316W        W39170   7.138   8.857  16.243  0.0177 -0.0671  0.0386
20317W        W39171  13.159  14.908   3.581 -0.2453  0.0310  0.0921
20318W        W39172   3.012   1.533  13.816  0.0086  0.1214 -0.0410
20319W        W39173  16.317   7.748   4.702 -0.1094  0.0829 -0.0783
20320W        W39174   9.058  10.832   4.043  0.0067  0.1355 -0.2010
20321W        W39175  13.578   3.674   5.176  0.0899  0.1860 -0.0189
20322W        W39176   1.646  12.170  15.598  0.1980 -0.1230 -0.2241
20323W        W39177   8.002  10.899  12.908 -0.0670 -0.0463 -0.1738
20324W        W39178  15.116   4.434   2.606  0.4357  0.0236 -0.0371
20325W        W39179   0.041   0.355  13.287  0.1955 -0.0085  0.0979
20326W        W39180  16.569  13.779   4.422  0.3229 -0.1567 -0.0568
20327W        W39181  11.998  15.205   4.954  0.4167 -0.1701 -0.3513
20328W        W39182   5.033  13.076   0.209 -0.0113  0.0895 -0.0541
20329W        W39183   9.800  13.891   4.546 -0.0292 -0.2658 -0.3461
20330W        W39184   0.692   1.352   3.952 -0.1030 -0.0145 -0.0733
20331W        W39185  15.275   2.465   4.409 -0.0482  0.1408 -0.1615
20332W        W39186  17.083  16.181   2.197 -0.0853  0.1225  0.0596
20333W        W39187  10.854  17.044  15.088  0.0441  0.1407 -0.0514
20334W        W39188   0.561   0.292  13.542  0.0330  0.0085  0.0103
20335W        W39189   5.515  11.131  14.161 -0.1502 -0.0603  0.0187
20336W        W39190   0.664  15.457  15.096 -0.0540 -0.0804  0.0005
20337W        W39191  17.269  16.259  17.186 -0.0387 -0.0732  0.0768
20338W        W39192   7.612  11.418   5.027 -0.1657  0.5678  0.4381
20339W        W39193  17.278  17.154  15.096 -0.2155 -0.1523  0.0896
20340W        W39194  14.474  16.059   4.950  0.3303  0.1603  0.1877
20341W        W39195  12.592  10.470   0.362 -0.0739  0.2171 -0.0984
20342W        W39196  10.034   0.127  15.791  0.2338 -0.0351 -0.2021
20343W        W39197   7.723   9.683  15.868  0.0593 -0.0696  0.0818
20344W        W39198  12.232   8.417  14.854  0.3250 -0.2412 -0.4236
20345W        W39199   8.228   1.868  16.917 -0.2931  0.0189 -0.3121
20346W        W39200   7.831   6.691   2.721  0.3287  0.0859  0.0626
20347W        W39201  11.889  16.865  15.911 -0.0112  0.1381 -0.0348
20348W        W39202   1.020   4.967  13.361  0.1482 -0.1249  0.0089
20349W        W39203   1.843   4.563   4.845  0.1127  0.3308 -0.0293
20350W        W39204   7.962  14.202  12.266 -0.3231 -0.0918 -0.0952
20351W        W39205  10.600   7.121  15.582  0.0882 -0.1144 -0.2261
20352W        W39206  16.065  17.029   3.937 -0.2558  0.0997  0.0773
20353W        W39207  12.272  11.355  14.250 -0.2017  0.1640  0.0191
20354W        W39208   6.909  10.927  13.675 -0.1218 -0.2912  0.2025
20355W        W39209   2.057   1.303  11.633  0.2398  0.0435  0.0585
20356W        W39210   1.430  15.895   1.703 -0.1386  0.2412  0.3407
20357W        W39211  10.622   1.182   1.317 -0.1161 -0.0128 -0.0860
20358W        W39212   7.756  11.583   0.044  0.2398 -0.3308 -0.2073
20359W        W39213   1.738  15.340   4.650 -0.2150 -0.2422  0.3271
20360W        W39214   4.896  12.483   2.550 -0.4721  0.0680  0.0395
20361W        W39215  14.779   6.665   3.061  0.0810  0.2047  0.0650
20362W        W39216  10.445   9.664  14.649  0.0852  0.0833 -0.2059
20363W        W39217   5.805  13.186  13.572 -0.0031 -0.0368  0.0270
20364W        W39218   1.316   8.745  14.534 -0.0379 -0.3332 -0.1968
20365W        W39219   5.251   8.917  15.373  0.0227  0.0142 -0.0475
20366W        W39220  10.540  10.735   2.730  0.1500 -0.1146 -0.3584
20367W        W39221   6.448   0.433   1.397  0.2717  0.0205  0.0700
20368W        W39222  12.172  11.953   4.471  0.0757 -0.1824  0.0890
20369W        W39223   0.807  16.098   2.576 -0.1573 -0.1833  0.0855
20370W        W39224  12.794  15.113   4.048  0.0889  0.0123  0.2209
20371W        W39225   5.749  11.804   1.060  0.2831 -0.2781  0.2384
20372W        W39226   3.973  14.754  15.132  0.2707 -0.2323  0.0816
20373W        W39227  15.951  12.469   4.041 -0.5771 -0.1847 -0.0829
20374W        W39228  14.401   3.420  13.487  0.4398  0.0035  0.0310
20375W        W39229  15.547  12.889   4.113 -0.0385  0.0933 -0.3946
20376W        W39230  11.699   8.230   1.564  0.2299 -0.3064  0.1592
20377W        W39231   4.985  10.573   3.242 -0.1790  0.3831 -0.3246
20378W        W39232   2.669   7.151   0.634 -0.1267  0.2024 -0.1034
20379W        W39233  13.027  11.069  13.049  0.0922  0.1849 -0.0113
20380W        W39234   9.270  12.366  15.573  0.1150  0.4731 -0.0646
20381W        W39235  16.469  17.010  16.713  0.0897 -0.2049  0.0721
20382W        W39236  10.738   9.746   3.058  0.0125 -0.0253  0.1184
20383W        W39237  16.395   6.448  16.229  0.1871  0.2395  0.1491
20384W        W39238   5.700   1.684  13.080  0.3217  0.1860  0.0285
20385W        W39239  15.980  10.769   3.763  0.0752  0.1840  0.0163
20386W        W39240  10.468   0.346  13.522 -0.1218 -0.0161  0.0973
20387W        W39241   9.739   6.532   2.968  0.1016 -0.2590 -0.5964
20388W        W39242  13.730  13.901  16.281  0.1196  0.1328 -0.0158
20389W        W39243   9.587  11.128  14.838  0.0434 -0.3325  0.0653
20390W        W39244   5.380   6.762  13.979 -0.0219 -0.0884  0.1155
20391W        W39245  17.079   9.829  17.230 -0.2309 -0.1156  0.3583
20392W        W39246  17.014  13.605   5.102 -0.3006 -0.1517  0.2857
20393W        W39247   7.480  14.856   2.503 -0.1961 -0.1953  0.0772
20394W        W39248  11.304  12.602   0.602 -0.4017 -0.0556  0.2223
20395W        W39249   9.858  15.682   0.681 -0.0986  0.2742 -0.0646
20396W        W39250  13.778   1.642  14.849  0.0042 -0.0811  0.1146
20397W        W39251   9.153   6.206   1.693  0.0203 -0.3563 -0.3733
20398W        W39252  11.106   5.477   3.478  0.0767  0.0773 -0.1478
20399W        W39253  14.974  12.099   3.923 -0.2971 -0.4401 -0.0927
20400W        W39254  11.072   0.819   0.224  0.3376 -0.0205  0.1006
20401W        W39255   8.363   5.870   2.308 -0.0085  0.1181  0.1161
20402W        W39256   3.060   5.046  17.186  0.0002 -0.3848 -0.0407
20403W        W39257   4.371   0.931  11.302 -0.0999 -0.1668  0.0359
20404W        W39258  13.046   1.507  13.180  0.0751 -0.0070  0.2851
20405W        W39259  14.006   4.246  13.925 -0.0363  0.2289  0.0239
20406W        W39260  13.646  13.903  12.181 -0.3247  0.0305  0.0006
20407W        W39261  12.793  13.406  13.206  0.1202 -0.2959  0.3410
20408W        W39262   1.133   4.781   4.545 -0.2060 -0.0117  0.2914
20409W        W39263  12.547   3.994  14.393 -0.5394  0.2743 -0.0345
20410W        W39264  10.334   2.689   3.379  0.2750 -0.0606 -0.0804
20411W        W39265   9.487  17.430   0.531 -0.3896 -0.2384 -0.0060
20412W        W39266  10.974  16.682  16.420 -0.0651  0.0454 -0.3044
20413W        W39267   2.910   4.415   1.449 -0.1873  0.0831  0.0195
20414W        W39268   2.571  11.857  15.290 -0.1645  0.3030  0.1908
20415W        W39269  14.973   0.547   3.714  0.1191 -0.1714 -0.1137
20416W        W39270   4.374   7.929   3.069 -0.0142  0.2114 -0.1198
20417W        W39271   5.119   2.353  14.231 -0.1441  0.2423 -0.0502
20418W        W39272   3.283   3.117  11.869 -0.0592 -0.3157  0.1674
20419W        W39273  13.074  11.941   4.772  0.1108 -0.0513  0.0563
20420W        W39274   5.874  16.869   1.537  0.3160 -0.0688 -0.0372
20421W        W39275  12.003  14.750   0.657 -0.2087 -0.1472  0.1166
20422W        W39276   4.696   7.228   1.988  0.1199 -0.3211 -0.0575
20423W        W39277   2.445   0.623   2.624 -0.3698  0.1615  0.0421
20424W        W39278   6.707  17.015  14.701 -0.2234  0.1500  0.1590
20425W        W39279  11.445   5.954   2.389 -0.3397  0.0532  0.1057
20426W        W39280  14.763  15.162   1.860 -0.2001  0.1017 -0.4196
20427W        W39281   0.141   1.223   3.615  0.2957 -0.0765  0.0936
20428W        W39282   5.721   6.363  17.185  0.0477 -0.0423 -0.0892
20429W        W39283  15.760  16.785  17.087 -0.0690  0.3763 -0.2348
20430W        W39284   6.323  11.222   4.824  0.1789  0.3097 -0.2655
20431W        W39285  12.880   3.325  13.177 -0.1268 -0.0273 -0.0696
20432W        W39286   6.893   0.129   2.647  0.0354 -0.1025  0.1232
20433W        W39287  17.465   8.516   2.440  0.0693 -0.0949 -0.2804
20434W        W39288  10.942  13.174  15.506 -0.1918  0.0642 -0.1013
20435W        W39289  15.949   2.103  12.423  0.2948 -0.0607 -0.0500
20436W        W39290  16.733  11.718  17.099 -0.3844  0.4843  0.0184
20437W        W39291   6.355  14.475   1.912  0.0283  0.0285 -0.2998
20438W        W39292   2.237   7.487   5.590  0.0425  0.1011 -0.0147
20439W        W39293  13.754   9.107   0.079  0.3560 -0.1864  0.0380
20440W        W39294  11.004   1.749  13.489 -0.0825  0.1409 -0.1051
20441W        W39295  15.314  13.459  13.607  0.1478  0.0930 -0.0768
20442W        W39296   8.771   3.298   1.548 -0.1837  0.1717 -0.1749
20443W        W39297   9.022   5.828   0.413  0.0455  0.6069 -0.0793
20444W        W39298   3.394  12.285  13.290 -0.2208  0.0050 -0.1430
20445W        W39299   1.409  10.528   3.210 -0.3206  0.0747  0.1944
20446W        W39300   3.620   0.555   0.078 -0.1946  0.3585  0.1195
20447W        W39301   5.208   4.350   0.123  0.2244 -0.0437 -0.1265
20448W        W39302   0.786  10.310   1.696 -0.2555 -0.2860 -0.0746
20449W        W39303  11.106   1.920   3.308  0.2493  0.0231 -0.0085
20450W        W39304  11.081  12.979   0.320 -0.3116  0.2396  0.2718
20451W        W39305   4.402   5.488  15.098 -0.1835  0.1006 -0.0637
20452W        W39306  14.766   8.672   4.333 -0.0228  0.1212  0.1696
20453W        W39307   2.652   3.501   1.774 -0.1208  0.2256  0.3733
20454W        W39308  13.955  16.515  14.682  0.0880  0.1013 -0.3171
20455W        W39309   6.727  12.877   5.018  0.1057 -0.1242  0.0665
20456W        W39310   9.109   8.322   3.913 -0.1090  0.2932 -0.2913
20457W        W39311  11.782  14.260   0.792 -0.1725 -0.0028 -0.0138
20458W        W39312  15.801  13.689   4.712  0.1574 -0.4386 -0.3312
20459W        W39313  10.876   5.029  12.876 -0.0949  0.0021  0.1016
20460W        W39314   3.547   6.324  15.501  0.1093 -0.0851  0.2312
20461W        W39315   7.617  16.211  12.631  0.0962  0.2703  0.0327
20462W        W39316  15.549  15.936  14.497  0.1051 -0.1782  0.0842
20463W        W39317  12.800  13.079   2.722  0.1241 -0.1958 -0.0477
20464W        W39318  16.663  10.278   2.538 -0.1748 -0.1945 -0.0819
20465W        W39319  16.067  13.400   5.374  0.1571  0.0924  0.0168
20466W        W39320  15.088   7.400   4.119 -0.2241  0.3002 -0.0230
20467W        W39321   1.425  17.408   2.154  0.0101  0.1843 -0.1884
20468W        W39322  15.154   2.704   0.583 -0.2884 -0.1605  0.1997
20469W        W39323  12.735  16.030   3.264 -0.1761 -0.0429  0.1727
20470W        W39324   4.839   0.302  15.379 -0.1055 -0.2363 -0.0020
20471W        W39325   0.449   0.268   4.116 -0.1509 -0.0440 -0.1754
20472W        W39326   9.303   0.132   3.655 -0.0341 -0.0698 -0.2275
20473W        W39327  16.736   9.698   0.353  0.2793 -0.0832  0.1290
20474W        W39328  12.211   2.242  15.565  0.1718 -0.0471 -0.1242
20475W        W39329   9.512   0.417  12.773  0.1557 -0.1678 -0.0900
20476W        W39330  16.243   0.552  13.449  0.2178  0.1090  0.1932
20477W        W39331   1.047  14.535  15.688 -0.0213  0.0951 -0.0413
20478W        W39332   4.031   3.030   0.535 -0.1323  0.1110 -0.2698
20479W        W39333  15.303   6.811  15.673 -0.0211 -0.0185 -0.1514
20480W        W39334  11.485  10.740   1.829  0.0620  0.1529 -0.1397
20481W        W39335  10.171   3.404  16.919 -0.1494 -0.0524 -0.2009
20482W        W39336  11.064   9.070   4.788  0.1219  0.0787  0.0622
20483W        W39337  15.708   6.717   3.204 -0.3062 -0.0827 -0.1677
20484W        W39338   3.379   5.127  12.983 -0.0142  0.1153  0.1849
20485W        W39339   8.700   2.236   0.290  0.3856 -0.2569 -0.1464
20486W        W39340   6.527   2.438  17.155 -0.0454  0.2387 -0.0946
20487W        W39341   6.293   4.407  15.322 -0.1509 -0.1462 -0.0805
20488W        W39342  13.140  11.827  14.507  0.2448  0.3097 -0.1355
20489W        W39343   9.294   0.121  16.375  0.0196  0.0886  0.1646
20490W        W39344  16.654  16.293  16.007 -0.2369  0.3164  0.3918
20491W        W39345  13.148   8.411   2.487 -0.0508 -0.1833 -0.1225
20492W        W39346  12.863   6.059   0.022  0.0061  0.0645  0.1907
20493W        W39347   4.227   7.414  16.188 -0.1339  0.3807  0.2396
20494W        W39348   0.679   3.641   2.960  0.4853  0.2689  0.1293
20495W        W39349   2.444   5.861   1.437 -0.1911  0.0070  0.0907
20496W        W39350   6.284  11.239  16.438 -0.2641  0.3341 -0.2786
20497W        W39351   4.287   1.959   1.126 -0.0679  0.3084 -0.0305
20498W        W39352   9.453  11.130   2.072  0.0822  0.1334  0.0030
20499W        W39353  12.164   3.488   2.940  0.0719  0.1009  0.4851
20500W        W39354   8.119  10.167   2.099  0.0765  0.3899  0.2806
20501W        W39355   9.289  10.895  15.683 -0.3186 -0.1363 -0.1713
20502W        W39356  13.687   6.967  14.831  0.0628  0.2103 -0.1878
20503W        W39357  17.178   9.425  14.656  0.2959 -0.3037 -0.0119
20504W        W39358  15.632  11.878   2.286  0.0286 -0.2892  0.2404
20505W        W39359  11.660   9.938  13.451  0.1141 -0.0221  0.1064
20506W        W39360  10.110  11.613  13.929  0.0462  0.1506  0.2119
20507W        W39361   9.300  15.748   1.488 -0.1662 -0.2479 -0.0054
20508W        W39362   3.965   6.672  14.338  0.1026 -0.0354 -0.1280
20509W        W39363  13.485  15.797  13.455  0.2496 -0.2533 -0.2095
20510W        W39364  12.609   6.673  16.642  0.1847  0.0964  0.2167
20511W        W39365   7.789  11.111   2.293 -0.0368 -0.0754 -0.1419
20512W        W39366  17.593   8.021  16.293  0.1738 -0.1536  0.0984
20513W        W39367  10.074  10.278   1.454  0.1975 -0.0094  0.1929
20514W        W39368  16.758   1.676  16.171 -0.0385  0.0923  0.2385
20515W        W39369   2.219   4.638   2.595  0.0431 -0.3205 -0.0095
20516W        W39370   4.048  16.754   4.847  0.2504  0.0425 -0.0175
20517W        W39371   5.325   8.182  15.226  0.2838 -0.4556 -0.1154
20518W        W39372   1.184   2.765  17.232 -0.2070 -0.1909 -0.2451
20519W        W39373   4.354   6.422   5.101 -0.0908  0.2917  0.0162
20520W        W39374   7.761   4.654   2.861 -0.1844 -0.1215 -0.0896
20521W        W39375   4.981   8.850  17.233 -0.2586  0.2256  0.2748
20522W        W39376  10.177   3.791  15.183  0.0278  0.3825  0.1831
20523W        W39377  15.274   1.687   1.414  0.1560  0.0715  0.0369
20524W        W39378  15.144   1.058   3.522 -0.1815 -0.1036 -0.1712
20525W        W39379  10.116   4.169  15.495 -0.0356  0.1162  0.4313
20526W        W39380  12.268  15.863  12.659  0.0718 -0.0922  0.0276
20527W        W39381   9.661   1.335   0.010 -0.1107  0.0818 -0.0393
20528W        W39382   9.618   3.225  13.361  0.2281  0.0725 -0.1459
20529W        W39383  13.002   0.440   1.048 -0.2520  0.0487 -0.0343
20530W        W39384  11.071  15.601   3.801  0.0722 -0.2333 -0.0813
20531W        W39385   1.303   4.409  10.795  0.4654 -0.0660 -0.2229
20532W        W39386  13.566  11.680  16.207 -0.1455  0.1075 -0.1113
20533W        W39387   7.375   7.563  15.377 -0.1837 -0.2640  0.0483
20534W        W39388  17.297  17.106   3.447  0.0969 -0.2348 -0.1656
20535W        W39389  10.435  14.532   0.029 -0.3317  0.2337 -0.2019
20536W        W39390  17.232  13.509   5.647 -0.2808 -0.1473  0.0195
20537W        W39391   5.823   0.188  12.766 -0.1207  0.1069  0.1558
20538W        W39392   9.254   7.302  12.501 -0.1224 -0.0955  0.1337
20539W        W39393   4.334   4.529   1.487 -0.0507 -0.1007  0.0954
20540W        W39394   3.250  13.797  14.130  0.1029  0.1793 -0.3865
20541W        W39395   0.890   9.257   4.906  0.2094  0.1041 -0.1424
20542W        W39396   8.772   7.426   5.065 -0.1247  0.0008 -0.1300
20543W        W39397  11.829  16.882   1.703 -0.0078  0.1656 -0.5132
20544W        W39398   4.967   4.859  12.152  0.1587 -0.2477 -0.2885
20545W        W39399   8.605  11.523  15.600  0.1995  0.1808 -0.1070
20546W        W39400   6.869   9.800  15.498 -0.1756  0.2472 -0.0703
20547W        W39401   6.713   4.948   0.821  0.2087 -0.2574 -0.0312
20548W        W39402  11.302   4.195   0.418  0.1756 -0.1587  0.3055
20549W        W39403  15.332   1.952  12.481 -0.0063 -0.2568 -0.0731
20550W        W39404  10.308  14.899  16.115 -0.2433 -0.2045 -0.0643
20551W        W39405  12.266   6.878   2.663  0.0750 -0.0599 -0.1114
20552W        W39406   2.706   2.685   2.365 -0.0229  0.0299 -0.0109
20553W        W39407  10.100   9.770   1.265  0.3125  0.0160 -0.0538
20554W        W39408   8.318  15.734  13.606  0.1099  0.0488  0.0872
20555W        W39409  16.270   2.437  16.910 -0.3167 -0.4000 -0.1296
20556W        W39410  17.499  10.872  11.443  0.4942 -0.1085 -0.0836
20557W        W39411   9.838  16.646  12.398  0.0804  0.1593  0.2215
20558W        W39412  12.812  12.600  14.794  0.0816  0.1337 -0.1408
20559W        W39413   3.820   2.335  16.691  0.0027 -0.1543  0.3198
20560W        W39414   3.669  14.511   3.152  0.0005  0.4309  0.2563
20561W        W39415   2.260   9.355  12.567 -0.1096 -0.3025  0.2787
20562W        W39416  11.415  16.286  15.603 -0.0780 -0.1036 -0.2535
20563W        W39417  14.877  10.379   0.139 -0.2953  0.0403  0.2719
20564W        W39418   1.067   9.492   4.170  0.2194 -0.1992 -0.0345
20565W        W39419  10.199  14.307   4.273 -0.0826  0.0983 -0.0838
20566W        W39420   3.219   0.099  12.695  0.1597  0.2972 -0.0184
20567W        W39421  11.943   7.035  14.676  0.2025  0.0605 -0.0411
20568W        W39422  13.414  10.881   0.429 -0.3205 -0.0314 -0.0388
20569W        W39423  12.552  17.141  16.568 -0.3398  0.1560 -0.1039
20570W        W39424  11.561   1.759   0.863 -0.2456  0.0524  0.0962
20571W        W39425   6.599  15.274  12.372 -0.0194 -0.1334 -0.4734
20572W        W39426  16.003  10.068   1.670  0.2639 -0.1154  0.3399
20573W        W39427   2.391  10.975  13.806 -0.1309 -0.3330  0.1194
20574W        W39428  17.226   7.109  16.436  0.2367  0.0735  0.2532
20575W        W39429   5.001  14.972  14.527 -0.2902  0.0549 -0.0065
20576W        W39430   1.045   7.038   2.231 -0.2480  0.3266  0.1339
20577W        W39431  10.481   0.083   4.849  0.0535  0.4118  0.0404
20578W        W39432  10.701  15.750   2.469 -0.0006  0.2311 -0.2481
20579W        W39433   1.371   3.623   1.289 -0.0294  0.0867 -0.0545
20580W        W39434   6.809  12.723  15.756 -0.1157 -0.0097  0.0186
20581W        W39435  15.576   7.151  16.465  0.1758 -0.0376 -0.2300
20582W        W39436   5.626   9.431   4.991 -0.0119 -0.5943 -0.3136
20583W        W39437  11.543  10.841  12.501  0.1417  0.5162 -0.0530
20584W        W39438  12.086   3.633  14.768 -0.2868 -0.2689  0.0723
20585W        W39439  11.074  15.777  14.834 -0.2396 -0.0838 -0.0261
20586W        W39440   3.509   2.196  12.934  0.0089  0.3900  0.2497
20587W        W39441  15.020  13.842   4.391 -0.2909 -0.0343 -0.0491
20588W        W39442  11.747   0.798  13.962  0.2183 -0.2728  0.1699
20589W        W39443   2.972  14.724   1.952  0.1835 -0.0461  0.0080
20590W        W39444   5.615  15.276  12.462 -0.0441 -0.0176  0.0478
20591W        W39445  12.178   9.449  14.972  0.2672  0.2304  0.1369
20592W        W39446   7.227  15.782   2.169 -0.1620 -0.4311 -0.1037
20593W        W39447   4.402   6.978   0.762  0.0448  0.1238 -0.0798
20594W        W39448   4.996  10.964   5.147  0.0928 -0.2299  0.1838
20595W        W39449   7.982   1.294  12.953 -0.1556  0.1602 -0.2253
20596W        W39450   5.920   8.175   4.945 -0.0004 -0.1314  0.1128
20597W        W39451   4.293  16.261  15.186 -0.2508  0.0518  0.0385
20598W        W39452   2.896  10.574  12.377  0.2499 -0.3378 -0.1619
20599W        W39453  12.685  16.893  16.164  0.2601 -0.1998  0.0790
20600W        W39454  13.801  12.399  16.299  0.2863  0.0008  0.2786
20601W        W39455   8.048   8.407   4.095  0.1775  0.1255  0.0752
20602W        W39456   2.410   1.843   4.865 -0.1569 -0.0457  0.0582
20603W        W39457   5.440   7.826  14.894  0.0277  0.0811  0.1128
20604W        W39458   6.312  13.723   0.307  0.1652  0.1755  0.3035
20605W        W39459   9.614   2.250   4.033 -0.5622 -0.3750  0.0468
20606W        W39460   0.467   8.300  14.404  0.1698 -0.2035 -0.0608
20607W        W39461  11.643  15.147   0.568 -0.0751 -0.2113 -0.2408
20608W        W39462   6.311   9.857   2.340 -0.1554  0.3739 -0.2242
20609W        W39463   1.295  10.551  14.634  0.4491 -0.0084  0.2538
20610W        W39464  10.000   0.636  13.350  0.0883  0.1534 -0.2505
20611W        W39465   7.894   3.174   4.426  0.1020 -0.2475  0.0147
20612W        W39466   5.434   5.988   4.786  0.4005 -0.0759  0.3349
20613W        W39467   4.485   1.269   5.193  0.2434  0.0268  0.1240
20614W        W39468  15.574  15.365   0.945 -0.1450 -0.1166 -0.0149
20615W        W39469   1.649  14.716  15.745 -0.0835 -0.2399  0.1748
20616W        W39470   3.033   8.706   3.449  0.2153 -0.3108  0.3388
20617W        W39471  17.320   2.039   3.601  0.2860  0.0873  0.1398
20618W        W39472   0.258  16.084   4.822 -0.1701 -0.2646 -0.1404
20619W        W39473  11.939   6.364  12.417  0.1259  0.1137 -0.0313
20620W        W39474  11.290  14.537   0.038 -0.1921  0.1774  0.2765
20621W        W39475   8.736  13.131  15.485  0.2358  0.2728 -0.0558
20622W        W39476   3.274   5.104  15.131  0.0604 -0.1046 -0.1971
20623W        W39477   9.914  16.441  14.198 -0.2618 -0.1322 -0.2773
20624W        W39478   0.076  10.744  13.862  0.0488 -0.0361  0.3379
20625W        W39479   6.658   4.565  15.917 -0.0131  0.0293  0.1231
20626W        W39480  11.736  10.117  15.810  0.1298  0.0175  0.1628
20627W        W39481   9.831   9.755   3.394  0.1026  0.0176  0.2448
20628W        W39482  15.734  14.381   2.509 -0.2357 -0.0726  0.0809
20629W        W39483   2.541  11.427   1.853  0.0214  0.0966  0.1052
20630W        W39484   7.206   1.236   1.894  0.0163 -0.0861 -0.1230
20631W        W39485   0.810   6.368  14.764 -0.2616  0.1610  0.2094
20632W        W39486   8.550   6.790  15.078 -0.0742  0.4150  0.3297
20633W        W39487  17.201  15.492   3.778 -0.2014 -0.0427  0.1954
20634W        W39488   7.292  11.813  14.920  0.1683  0.2300 -0.1667
20635W        W39489  10.848  11.246   4.223 -0.0629 -0.2951  0.0043
20636W        W39490  17.299  11.157  11.091  0.0160  0.1457  0.2651
20637W        W39491   2.496   7.699  14.227 -0.0365  0.1126  0.2715
20638W        W39492  13.722   5.667   0.375  0.1042 -0.0631  0.1858
20639W        W39493  15.604  12.996  12.459  0.3383 -0.0844  0.3133
20640W        W39494   3.210  14.631   2.737 -0.0251 -0.1014  0.1560
20641W        W39495   5.942   8.277  14.868 -0.0789  0.1299 -0.0433
20642W        W39496   2.893  10.441   2.852  0.1316 -0.0982 -0.2744
20643W        W39497   3.243  15.950  12.465  0.0332 -0.2046 -0.0113
20644W        W39498   8.798   0.639  14.174 -0.1168 -0.2238 -0.0220
20645W        W39499  13.221   9.569   4.270 -0.2522 -0.0474  0.1578
20646W        W39500   0.313   3.360  15.590  0.2056  0.0470 -0.1845
20647W        W39501   7.989  12.255   0.170 -0.1419  0.1142 -0.1091
20648W        W39502  14.429  13.527  15.599 -0.0980 -0.2171  0.1107
20649W        W39503   9.181  12.562   5.016  0.0751 -0.2768 -0.1156
20650W        W39504   7.036   5.050   5.066 -0.0201 -0.1239 -0.1414
20651W        W39505  13.519   3.394   0.088 -0.0172 -0.0815 -0.0227
20652W        W39506  14.845  14.905  14.927 -0.3286  0.2120  0.1974
20653W        W39507  16.239   7.190   2.594  0.4133 -0.2647  0.0786
20654W        W39508  13.465   8.760   1.690  0.0623 -0.3678  0.3121
20655W        W39509  16.786  16.205  11.850  0.2648 -0.1520 -0.1429
20656W        W39510  16.502   6.870   1.607  0.0983  0.1795 -0.0151
20657W        W39511   0.574  15.213  16.486  0.2672  0.1721  0.0313
20658W        W39512   9.583  15.586   2.363 -0.0163 -0.3852 -0.0324
20659W        W39513  14.688  16.982   2.736  0.0330  0.2875 -0.0095
20660W        W39514   1.037  17.106   5.202  0.2349  0.1924 -0.0284
20661W        W39515  16.288   1.928  16.270 -0.2325  0.1522 -0.1522
20662W        W39516  10.209   7.372  14.015  0.2017  0.2317  0.4029
20663W        W39517   7.751   8.696   3.133  0.0271  0.1433 -0.0343
20664W        W39518  10.618  17.561  15.176  0.2985  0.0546  0.2585
20665W        W39519   6.214   0.900  15.712 -0.0755 -0.1411 -0.1793
20666W        W39520   2.683   8.012  16.423 -0.1359 -0.1401 -0.0657
20667W        W39521   2.849   6.141  14.406  0.1894 -0.1050  0.1446
20668W        W39522  16.784  13.230   2.497 -0.1044 -0.2106  0.5509
20669W        W39523   3.667  10.469  14.407 -0.3335 -0.1041 -0.1345
20670W        W39524   2.837   8.007  14.484 -0.1665  0.2812 -0.2103
20671W        W39525  10.806   4.132   0.877 -0.2268 -0.0109  0.0126
20672W        W39526   8.801   7.155   3.499  0.1501  0.2233  0.0001
20673W        W39527   0.360   3.977   4.978 -0.2325 -0.2164 -0.0056
20674W        W39528   0.933  17.585  13.339  0.0616  0.2869  0.1614
20675W        W39529  14.004   6.884   2.863  0.1034 -0.2106  0.1843
20676W        W39530   8.623  13.245   3.690 -0.2111  0.2153 -0.2232
20677W        W39531   9.203   9.119  15.654  0.1569  0.0486 -0.1896
20678W        W39532   8.788   7.503  14.228  0.3385 -0.1794 -0.1056
20679W        W39533   3.027   5.887   5.207 -0.1560 -0.0405  0.1986
20680W        W39534   6.795  14.381   0.637  0.1005 -0.1907 -0.2084
20681W        W39535  16.176   5.067  13.706  0.3885  0.1464 -0.4333
20682W        W39536   8.213  12.183  12.689 -0.0713  0.0710 -0.0031
20683W        W39537   4.634   6.223  13.204 -0.1895 -0.0426 -0.1099
20684W        W39538  16.487  17.311   4.052  0.1688 -0.0701  0.0892
20685W        W39539   1.667   5.307  12.949  0.2081  0.0591 -0.0991
20686W        W39540   4.936  11.051   2.387  0.0585  0.0000  0.0331
20687W        W39541   2.099  16.752   2.331  0.0299 -0.2249  0.2889
20688W        W39542   6.134   8.396   2.386  0.1323  0.4272 -0.2044
20689W        W39543   2.307  14.613   2.546 -0.0182  0.0748  0.2535
20690W        W39544   0.075   9.443  13.228  0.0056  0.1385 -0.1489
20691W        W39545  16.924   9.298   4.090  0.0545  0.0918  0.1468
20692W        W39546  11.965   5.008  12.711 -0.1548 -0.0516 -0.1078
20693W        W39547  16.659  14.331  15.952 -0.5042  0.3481 -0.0067
20694W        W39548   6.014   2.886   5.150 -0.0699 -0.4092  0.1200
20695W        W39549   9.269   4.988   2.126 -0.0088 -0.4593 -0.1789
20696W        W39550   3.445   4.967   2.992 -0.1014 -0.1484  0.0134
20697W        W39551   1.794  11.745   5.063  0.1173 -0.4252 -0.0112
20698W        W39552   0.409   5.503  14.491 -0.1062 -0.0891  0.3422
20699W        W39553   2.989  12.492   2.913 -0.1603 -0.2913 -0.0312
20700W        W39554   9.460   3.978  12.344 -0.1701  0.1777  0.2235
20701W        W39555  17.446   1.062   4.109 -0.1357 -0.2308  0.1110
20702W        W39556   0.930  16.029  13.516 -0.1808  0.0651 -0.2177
20703W        W39557  13.043  13.572   1.288  0.3266  0.5684  0.0261
20704W        W39558   3.312   6.578  16.246  0.1427  0.0564  0.1995
20705W        W39559   3.441  11.282   0.066 -0.0977 -0.0427 -0.2009
20706W        W39560   9.458  15.046  14.021  0.3327 -0.0236  0.1757
20707W        W39561   3.956  13.967  12.307  0.1869  0.1179 -0.0449
20708W        W39562   4.442   0.096   3.809 -0.3769 -0.1224  0.0224
20709W        W39563   3.069   9.250   2.501 -0.0548 -0.1109  0.2170
20710W        W39564   1.461   7.071   4.840 -0.1944  0.1097 -0.4267
20711W        W39565  15.841  15.353   3.950 -0.3193 -0.0244  0.0010
20712W        W39566  14.460  13.362  16.981  0.1486  0.0704  0.3047
20713W        W39567  12.366   7.445   2.115  0.0887 -0.0463  0.1593
20714W        W39568  17.579   5.092   1.066  0.1755 -0.1986  0.1178
20715W        W39569   8.441   4.639   2.354  0.2320  0.0188 -0.1468
20716W        W39570   7.066   0.882  15.401 -0.0905 -0.3608 -0.0753
20717W        W39571  16.928   5.976  12.430 -0.0735  0.0301 -0.2916
20718W        W39572   0.826  10.430  13.098  0.1691 -0.2392 -0.1867
20719W        W39573  15.957   5.506   4.086  0.1813  0.1729 -0.1873
20720W        W39574   9.820  15.381  14.560  0.1218  0.1607  0.1638
20721W        W39575   2.202  11.683  15.853 -0.0803  0.0097  0.1486
20722W        W39576   0.610   2.361  13.987  0.1445  0.1339 -0.1054
20723W        W39577   0.562  16.841   5.164 -0.2525  0.3086  0.1787
20724W        W39578  16.633  10.163   0.739 -0.1031 -0.2701  0.0431
20725W        W39579  13.531   1.147  13.969 -0.0795  0.1079  0.1605
20726W        W39580  13.312   7.486   6.350  0.1225 -0.0148  0.4130
20727W        W39581   2.551   3.075   2.113  0.1758 -0.2031  0.1220
20728W        W39582   9.546   1.778  16.957 -0.1289 -0.0200 -0.0275
20729W        W39583  15.503  13.473  16.275  0.1070 -0.1366  0.1319
20730W        W39584   0.076  13.021  13.108  0.0864 -0.2281 -0.0184
20731W        W39585   7.050   4.129   5.298  0.0166 -0.0699 -0.0214
20732W        W39586  10.552   0.171  12.680 -0.0620 -0.2049 -0.1014
20733W        W39587  14.124   6.326  16.963 -0.2445  0.3845 -0.1398
20734W        W39588   4.832  16.078   5.626  0.3410 -0.1685  0.0351
20735W        W39589  14.036  11.894   1.545 -0.1889 -0.1526 -0.1323
20736W        W39590   0.724  12.208  16.004  0.2315 -0.3090  0.0772
20737W        W39591   1.356   2.838  14.016  0.6333  0.2700  0.1381
20738W        W39592   4.829  12.467   1.262 -0.2521  0.0006 -0.2486
20739W        W39593   7.172   2.319   5.171  0.1829 -0.1181  0.0845
20740W        W39594  15.403   6.794  16.786  0.0902 -0.0518  0.0422
20741W        W39595   2.409  11.293  16.107 -0.2780 -0.0063 -0.3343
20742W        W39596  10.540  15.333   3.821 -0.1030  0.0398  0.1287
20743W        W39597  15.984  17.130   1.971 -0.2433 -0.1031 -0.0481
20744W        W39598  15.905   9.317  15.812  0.2810 -0.0490  0.1767
20745W        W39599   5.169  10.292   4.664 -0.3421  0.1139  0.2883
20746W        W39600  11.210  12.758   2.629  0.3331 -0.0532  0.0540
20747W        W39601   6.391  10.298  15.908  0.1166  0.1353  0.3874
20748W        W39602  10.841  14.343   0.380  0.0957  0.1819  0.2152
20749W        W39603  10.045  15.339  12.054  0.0392 -0.1453  0.3804
20750W        W39604  14.830  12.495   2.386  0.1360 -0.2538  0.0812
20751W        W39605   9.957  10.276   6.054  0.0314 -0.0869 -0.0141
20752W        W39606   4.976   5.670   3.810  0.2975 -0.0414  0.0183
20753W        W39607   6.491  16.604  16.787  0.0453 -0.0586  0.2620
20754W        W39608   9.518   2.402  16.104  0.1297  0.0762  0.0288
20755W        W39609   8.202   9.857   4.293  0.1049  0.0067 -0.2520
20756W        W39610   1.743   8.178  15.663  0.1440 -0.1399 -0.1510
20757W        W39611   2.441   2.399   4.721 -0.4873  0.4480 -0.0139
20758W        W39612   7.532  10.263   4.233  0.2571 -0.0998  0.2477
20759W        W39613   7.940   3.471  15.200 -0.3343 -0.0824  0.0236
20760W        W39614  16.859  11.350   1.033 -0.4574 -0.1308 -0.0426
20761W        W39615  14.148   3.132   2.794 -0.0121 -0.1796 -0.1636
20762W        W39616   1.367  10.805   0.057 -0.0672 -0.0285  0.2349
20763W        W39617  16.979   1.757  13.195  0.1343  0.3473 -0.2891
20764W        W39618  13.342  14.350  14.294 -0.2125 -0.0277 -0.0315
20765W        W39619   2.710   7.789  15.280  0.2153  0.4228  0.2540
20766W        W39620  12.428  10.321  16.105 -0.1876  0.1171 -0.3319
20767W        W39621   6.703   1.703  14.233  0.3276  0.0728  0.1385
20768W        W39622  10.389  15.183   2.017 -0.1860 -0.1148 -0.0319
20769W        W39623   9.056   5.953   2.475  0.2626  0.0749 -0.1633
20770W        W39624   0.478   1.341  15.187  0.2963  0.1307  0.3650
20771W        W39625   7.583  13.932   3.160  0.0823 -0.2369  0.1844
20772W        W39626   3.971  17.099  13.110  0.0521 -0.2037  0.0114
20773W        W39627  11.919   9.165   3.465 -0.1172 -0.1591 -0.0157
20774W        W39628   3.203   2.598   3.075 -0.1211 -0.1197 -0.2818
20775W        W39629  11.188  17.213   3.820 -0.0418  0.2628 -0.0916
20776W        W39630  13.261  15.667  17.236  0.0039 -0.1486  0.0494
20777W        W39631   7.417   5.497  13.568 -0.0639 -0.3339 -0.1632
20778W        W39632  16.044  13.063  16.805  0.0004 -0.1044  0.0789
20779W        W39633   4.511   3.684   4.467  0.0438  0.1364  0.0443
20780W        W39634   4.952   5.362   4.297 -0.1259 -0.0230 -0.0880
20781W        W39635   3.398  12.070   4.896 -0.1193 -0.1769  0.1477
20782W        W39636  12.053   4.203  15.525 -0.4158 -0.0521 -0.2252
20783W        W39637   6.286   9.835  13.005  0.3669 -0.0937  0.0219
20784W        W39638  10.959   9.743  13.197 -0.1690  0.3098  0.2395
20785W        W39639  16.283  16.558  16.971 -0.0207  0.0042 -0.2155
20786W        W39640   4.177   5.454   3.958 -0.2175  0.0260  0.1130
20787W        W39641   1.801   6.308  14.181  0.4272  0.4302  0.0053
20788W        W39642  10.138   0.496   1.723 -0.0743 -0.2065 -0.0190
20789W        W39643  17.010   0.682   2.098 -0.1281  0.0419 -0.2880
20790W        W39644  16.433  16.525  16.477 -0.2544 -0.1112  0.0070
20791W        W39645  16.043   5.008   0.658 -0.2139  0.0153  0.0539
20792W        W39646   0.465   5.724   1.527  0.1155  0.1073  0.4262
20793W        W39647  11.223  17.332  13.367 -0.3349 -0.0248  0.3321
20794W        W39648   7.769  11.351  13.604 -0.1224  0.0119 -0.1098
20795W        W39649  12.241  15.002   2.923  0.2559  0.2384  0.1512
20796W        W39650  11.323  14.506   2.916 -0.0017  0.2518  0.2830
20797W        W39651   2.314  12.053   3.436  0.0257  0.1831 -0.0762
20798W        W39652  16.126  17.106   1.484  0.1569 -0.2187 -0.2146
20799W        W39653   6.094   7.264  14.451 -0.1686 -0.0369 -0.2319
20800W        W39654  11.941   1.761  12.843  0.1470  0.2526 -0.1953
20801W        W39655   2.049   8.755  14.168  0.1310  0.1302 -0.0651
20802W        W39656   0.045   3.536  16.724  0.1789 -0.0220 -0.1819
20803W        W39657   0.083   9.906   5.530 -0.0903  0.2200  0.0200
20804W        W39658  13.519  10.761  15.892  0.0326  0.1903 -0.0190
20805W        W39659  11.071   3.174   3.676  0.1768 -0.5032  0.0781
20806W        W39660  16.782  11.045  13.400 -0.3169 -0.0541 -0.1855
20807W        W39661  14.706  13.749  14.367 -0.1543 -0.0890 -0.0064
20808W        W39662   5.568   3.867  16.599  0.0425  0.0753  0.1313
20809W        W39663   0.678  10.861  15.168  0.0819 -0.1326 -0.2002
20810W        W39664  12.922   2.952  15.555  0.0834  0.3795 -0.1894
20811W        W39665   9.292  10.988   3.133  0.1284  0.1328  0.0796
20812W        W39666  17.179   5.623   0.236  0.1467 -0.1146  0.0707
20813W        W39667   3.777  14.973  14.302 -0.3973 -0.1294 -0.0755
20814W        W39668   4.026   1.121   1.838  0.0970  0.3160 -0.0043
20815W        W39669  10.520   2.513   3.842 -0.2888  0.4796  0.0294
20816W        W39670   8.975   0.204  14.426 -0.1058  0.0338 -0.1018
20817W        W39671  16.144  10.849   0.149 -0.1567  0.1050  0.2378
20818W        W39672   5.870   5.266  13.143 -0.0075 -0.2336 -0.0428
20819W        W39673  17.148  11.821  14.506 -0.0137  0.0516  0.0872
20820W        W39674  16.471  15.020   3.335 -0.0715 -0.0407 -0.1666
20821W        W39675  10.906  10.501   2.504  0.1899 -0.3054 -0.0941
20822W        W39676   3.181  14.239   0.734 -0.3218 -0.0744  0.3167
20823W        W39677   9.718   1.075   3.062 -0.2603  0.1625 -0.2270
20824W        W39678  15.432   0.638  17.168 -0.2287  0.0369  0.0532
20825W        W39679   5.894  16.946   3.368  0.0218  0.1384 -0.2398
20826W        W39680   5.894  16.997   3.885  0.2225 -0.0425 -0.5530
20827W        W39681   5.526  11.473   0.762 -0.2201 -0.0909 -0.0784
20828W        W39682  12.082   5.900  13.764  0.1840 -0.1221 -0.3064
20829W        W39683  16.870  17.233   3.803  0.1993 -0.0330 -0.2210
20830W        W39684  12.712  17.256  14.804 -0.2246 -0.0945  0.0532
20831W        W39685  11.126  11.207   6.269  0.3379 -0.2385  0.0697
20832W        W39686  13.561   4.989   1.916  0.1188  0.2937 -0.0295
20833W        W39687   4.467   9.571  13.376  0.3209  0.0691 -0.0408
20834W        W39688   9.499  16.485   6.193 -0.0760  0.0709 -0.1975
20835W        W39689  17.202   5.876   4.701 -0.1254 -0.0040  0.0053
20836W        W39690  12.651  11.298   4.450 -0.2736 -0.1408  0.4164
20837W        W39691  10.789   7.146   3.981  0.2590 -0.2338  0.0591
20838W        W39692  13.421   8.138  15.189 -0.2779  0.0186  0.1631
20839W        W39693  14.896   5.523  16.350 -0.2429 -0.4631  0.1810
20840W        W39694  13.641  13.976   0.672  0.0065 -0.2414 -0.0061
20841W        W39695   6.310   1.637  13.937 -0.1573 -0.0482 -0.2023
20842W        W39696   6.053  13.620  13.589 -0.2212  0.0953 -0.1652
20843W        W39697   2.791  14.704   3.733 -0.1073 -0.2585  0.3599
20844W        W39698   4.214   3.443  16.832  0.0580  0.0042  0.0097
20845W        W39699  11.397  15.482   5.033 -0.2991  0.2442 -0.0924
20846W        W39700  11.595   3.172   5.717 -0.0540  0.0756  0.3234
20847W        W39701  11.417   9.955   3.660 -0.0850 -0.2667  0.1157
20848W        W39702  13.966  12.790  15.320 -0.0059  0.1676 -0.0642
20849W        W39703  14.448  16.555   2.064 -0.4710  0.1490 -0.0313
20850W        W39704   8.621   5.433  15.269  0.1693 -0.0492  0.1156
20851W        W39705   2.633  17.486   4.694 -0.1125 -0.0152  0.2575
20852W        W39706   4.715  10.907  15.320  0.0708 -0.1940  0.0167
20853W        W39707   3.608   9.139  11.629 -0.1030  0.1149  0.1708
20854W        W39708  17.059  10.946  16.214  0.0350 -0.0389 -0.0893
20855W        W39709   2.116  10.239   1.425  0.0863 -0.1273  0.2898
20856W        W39710  16.459  15.627  13.539 -0.1468  0.2723  0.0886
20857W        W39711   3.346  12.012  15.235 -0.1917 -0.0335  0.1348
20858W        W39712   8.916   9.033  12.936 -0.2562 -0.0537 -0.3809
20859W        W39713  11.600   9.998   3.160 -0.2456  0.0259  0.1035
20860W        W39714  11.782  14.265  14.159  0.1706  0.1919  0.4241
20861W        W39715  14.890  15.463   4.481 -0.0274 -0.0233  0.1544
20862W        W39716  17.151   4.489  14.765 -0.0739 -0.0703 -0.0940
20863W        W39717  10.666  10.190   3.802  0.0963 -0.0523 -0.5312
20864W        W39718  14.462  14.563  16.603  0.0173 -0.1026  0.3767
20865W        W39719  15.630   4.111   4.540  0.1830  0.1578 -0.0294
20866W        W39720  12.024  10.787  13.456 -0.0992 -0.0248  0.1482
20867W        W39721   7.297  13.700  11.538  0.4745  0.1635  0.1350
20868W        W39722  10.538  11.163  14.273  0.3379 -0.1979 -0.1723
20869W        W39723   2.940  14.531  16.145  0.1196 -0.0360  0.2410
20870W        W39724  11.525   3.625   3.985 -0.3894  0.3045 -0.1604
20871W        W39725   0.768  11.607   5.198 -0.1284 -0.2166 -0.1658
20872W        W39726   6.430  14.118   2.571  0.1168  0.2274 -0.0052
20873W        W39727  11.361   5.744  14.774  0.1133 -0.2116 -0.1770
20874W        W39728  16.281  14.138  13.470  0.0473 -0.1014  0.1376
20875W        W39729  10.518   4.831   5.674 -0.2889  0.2574  0.1808
20876W        W39730   7.982   3.635   3.746  0.2652  0.0159  0.0341
20877W        W39731  11.645  16.017   1.491 -0.0759 -0.5658  0.1034
20878W        W39732  15.418   1.167   2.604 -0.0406 -0.2301  0.0170
20879W        W39733   6.328  12.595   1.007  0.3204  0.1408 -0.0154
20880W        W39734   8.314  11.480   4.050  0.0400  0.1015  0.4614
20881W        W39735   9.279  16.885   0.408 -0.0004  0.1424  0.2612
20882W        W39736   6.716   5.564   2.036  0.1766 -0.1106  0.1340
20883W        W39737  15.530   4.182   2.804  0.0361 -0.0134  0.2206
20884W        W39738   5.658  16.187   0.543  0.4399 -0.0658  0.1768
20885W        W39739  16.769  12.336  15.641 -0.3389  0.1333  0.1035
20886W        W39740   3.992   2.075  13.536  0.0831 -0.0078 -0.2001
20887W        W39741  12.242   3.446   1.387 -0.1516 -0.0914  0.4632
20888W        W39742   5.190   8.916  13.127  0.1342  0.1891  0.1568
20889W        W39743   1.633  14.321   1.538 -0.1097 -0.0507 -0.2006
20890W        W39744   7.634   9.146   1.439  0.1699  0.0259  0.0673
20891W        W39745  10.212  17.041   0.651 -0.3033 -0.1467 -0.1193
20892W        W39746  14.004   4.701   0.694 -0.1840  0.1694 -0.0522
20893W        W39747   6.840   7.880  12.258  0.2677 -0.0338  0.0683
20894W        W39748   7.420   9.704   0.329  0.1376  0.1546  0.2894
20895W        W39749   6.460  11.314   1.311 -0.1869  0.0001  0.1689
20896W        W39750   6.398   4.346   1.428 -0.4010  0.0467 -0.0652
20897W        W39751   2.321  13.442  14.082  0.0833  0.0921  0.0593
20898W        W39752  15.650   3.061  13.218  0.0766 -0.1136  0.0400
20899W        W39753  13.735  13.721  13.872  0.4962 -0.2775 -0.0038
20900W        W39754  10.739   0.389   4.435 -0.0630 -0.0083  0.3745
20901W        W39755  15.176   1.511  12.179 -0.1996 -0.1329  0.0638
20902W        W39756   4.005   6.097   5.269  0.1570 -0.0652  0.3322
20903W        W39757   8.746  16.966  13.207  0.0195 -0.2032  0.0162
20904W        W39758   5.789  14.962  12.919 -0.2968 -0.0686  0.3619
20905W        W39759  11.204   0.443   3.241 -0.0686 -0.2942  0.2892
20906W        W39760  10.974  17.049   0.463 -0.0937  0.0094 -0.0832
20907W        W39761   2.775   4.685  10.909 -0.0577 -0.0105 -0.0067
20908W        W39762  15.527   1.324  16.800 -0.1247  0.0801 -0.2622
20909W        W39763   8.755   5.930  13.363 -0.0767  0.1341 -0.0876
20910W        W39764  11.291   8.582  13.348  0.0290 -0.4122  0.2713
20911W        W39765  14.540  12.713   4.189  0.1537 -0.0063 -0.2061
20912W        W39766   8.570  17.520   3.065  0.0431 -0.0154  0.1115
20913W        W39767   3.976   7.859   1.546 -0.0019 -0.1074 -0.1566
20914W        W39768   5.849  16.757   0.744  0.0241  0.1679 -0.0744
20915W        W39769  15.861   9.109   0.545  0.1915  0.2910 -0.2441
20916W        W39770   8.754   6.390  14.294 -0.0021 -0.1522  0.0523
20917W        W39771  10.638   6.687   3.906 -0.1074  0.2853 -0.0246
20918W        W39772  16.866   5.352  14.290 -0.0778  0.1025 -0.0627
20919W        W39773  12.447   5.870   0.116 -0.0806 -0.1328 -0.3743
20920W        W39774   4.073   2.264   2.185  0.0509 -0.1155  0.0981
20921W        W39775   6.945   3.083  13.249 -0.2152  0.1103 -0.4095
20922W        W39776   2.838   2.325  14.091 -0.1722 -0.1209  0.0189
20923W        W39777  16.654  15.182   4.209 -0.3360  0.2115 -0.1426
20924W        W39778   6.101   4.277   2.352 -0.1848 -0.1661  0.0363
20925W        W39779   2.602  10.537   5.111  0.1003 -0.0621  0.3080
20926W        W39780  15.478  16.530   4.797 -0.1386  0.0776  0.0363
20927W        W39781  13.378   2.882  15.330  0.0641 -0.2213 -0.2847
20928W        W39782  17.215   0.466  13.532  0.1679 -0.1670 -0.2666
20929W        W39783  16.363   4.072   5.078  0.0134  0.2618  0.1000
20930W        W39784   9.949  14.579   3.959 -0.0221  0.1470  0.0569
20931W        W39785  11.574   3.994   5.267 -0.0371  0.0213 -0.4854
20932W        W39786  16.508  15.953   0.077  0.1248 -0.0845  0.0424
20933W        W39787  13.709   4.162   0.814  0.1397  0.0715  0.0679
20934W        W39788   8.605  12.182  16.761 -0.0783 -0.1415 -0.3731
20935W        W39789  14.206   5.360  15.822  0.1716  0.0891  0.0290
20936W        W39790   0.641  17.587   1.817  0.0704  0.0586 -0.1727
20937W        W39791  14.183  15.136   1.088 -0.1423  0.0016 -0.0281
20938W        W39792   3.494  16.402   1.497  0.1569  0.3848 -0.0571
20939W        W39793   1.081  10.070   3.234  0.1185  0.1160 -0.1384
20940W        W39794  11.959  10.225   1.585 -0.1365  0.1277 -0.0157
20941W        W39795   5.473   1.806  14.120 -0.1939  0.0933 -0.0763
20942W        W39796  11.537   7.293  14.499 -0.1262  0.3179  0.0836
20943W        W39797  12.489   7.380   4.422  0.0935 -0.3129  0.0795
20944W        W39798   8.456  16.663   2.651 -0.1544 -0.1619 -0.2814
20945W        W39799   6.135  11.539  14.581  0.0483 -0.0072  0.1504
20946W        W39800  15.108   2.493  14.316 -0.1143 -0.1520  0.0268
20947W        W39801  15.069   8.884  15.656 -0.2496  0.2072  0.0744
20948W        W39802   8.383   1.472  13.336  0.1971  0.1862  0.2564
20949W        W39803  12.929   9.182   0.592  0.2556  0.0904 -0.0959
20950W        W39804  15.775   2.978  12.622 -0.1206  0.0188  0.1457
20951W        W39805   1.270   1.762  16.595 -0.0753  0.2322  0.0436
20952W        W39806   1.669   2.367  12.440 -0.1186  0.0962  0.2850
20953W        W39807   4.602   4.996  15.062 -0.0401  0.1868  0.2136
20954W        W39808  10.842   8.486   5.296  0.2470  0.1743  0.1623
20955W        W39809  12.050  16.279  13.812 -0.3313 -0.1668  0.0450
20956W        W39810  12.297   4.711  13.956  0.1403  0.1780 -0.2420
20957W        W39811  14.149   9.720   5.307 -0.0712  0.1989 -0.0378
20958W        W39812   6.799  10.725  13.029 -0.0655 -0.0912 -0.3242
20959W        W39813   2.930  10.997   3.601  0.1839  0.0982 -0.0997
20960W        W39814  15.394   2.028  14.313  0.1911  0.5547  0.2859
20961W        W39815   1.779   6.631   2.424  0.0855  0.1412 -0.2173
20962W        W39816   4.344  16.324   5.635 -0.0149 -0.1684 -0.3268
20963W        W39817  12.728   1.710  15.906  0.1262  0.2306 -0.2818
20964W        W39818   2.400   9.935   3.123  0.4315 -0.2319  0.2906
20965W        W39819   6.863   3.593  17.074 -0.1370 -0.1845  0.1135
20966W        W39820   1.841   0.482  12.762 -0.0020  0.0425 -0.1251
20967W        W39821   4.895   5.977   3.282 -0.2148  0.1906  0.2204
20968W        W39822   4.374   0.070  12.424  0.1874 -0.0652  0.0824
20969W        W39823   1.687  11.284  12.974 -0.2241 -0.1828  0.0356
20970W        W39824  12.064   4.750  16.707 -0.1794 -0.0814  0.0004
20971W        W39825   3.405  15.374   3.450 -0.1919  0.2175  0.0484
20972W        W39826   5.531  14.880   3.410 -0.1280 -0.2920  0.1536
20973W        W39827   7.697  13.024  13.541  0.1908  0.1877  0.0080
20974W        W39828   1.418   4.901   3.127  0.0948 -0.1240 -0.2075
20975W        W39829   8.986   9.132   0.366  0.0501  0.0176  0.1031
20976W        W39830   0.208  12.152  12.728  0.0008 -0.1853  0.1565
20977W        W39831   4.297   8.919  15.628  0.0606 -0.1099  0.0619
20978W        W39832  13.333   2.573   4.904 -0.0738  0.1294 -0.2423
20979W        W39833   7.348   3.956   1.363 -0.3174  0.2251  0.0953
20980W        W39834  13.929   6.472   4.741 -0.2782 -0.0347 -0.1801
20981W        W39835  11.365  16.962  16.288  0.1405 -0.1418  0.2183
20982W        W39836  13.861   5.154   0.215  0.2865  0.1895 -0.0856
20983W        W39837   6.438  10.831   1.076  0.0324  0.4270 -0.1225
20984W        W39838  10.611  16.873   2.446  0.1924  0.1494 -0.0937
20985W        W39839   7.545  11.321  16.960  0.0798  0.0445 -0.0341
20986W        W39840   3.545   6.325   0.353  0.0185 -0.1952  0.1291
20987W        W39841   8.883   9.939  14.766  0.1640  0.0212 -0.1012
20988W        W39842   4.423   9.885   4.883 -0.0256  0.4215  0.3068
20989W        W39843   9.011  15.754   2.547  0.0308 -0.0661  0.2182
20990W        W39844   8.159   6.053   1.860  0.0964  0.2042  0.2446
20991W        W39845  12.828  14.525  15.696  0.0786  0.3955  0.0772
20992W        W39846   9.325  14.759  13.091 -0.0663 -0.0454 -0.2099
20993W        W39847   0.548  10.447   3.293  0.0551 -0.1324  0.4107
20994W        W39848   6.471   0.476   2.769 -0.3287  0.0197 -0.0278
20995W        W39849  14.557   5.665   0.581  0.0597 -0.1505  0.1160
20996W        W39850   9.589   5.875  11.509  0.4577 -0.1486  0.1673
20997W        W39851   8.981  13.176   1.808  0.0309 -0.0250 -0.2097
20998W        W39852   3.674  15.470  15.014  0.0230  0.2376 -0.0233
20999W        W39853  11.856   4.324   3.175 -0.1279 -0.2907  0.3467
21000W        W39854  13.489   6.302  13.186  0.1190  0.0782  0.2918
21001W        W39855   9.794  13.592   2.020 -0.1227  0.0573 -0.3712
21002W        W39856   4.494   3.256  12.302  0.3119 -0.0749 -0.1591
21003W        W39857   6.735   5.912  13.789  0.0647 -0.1459  0.0688
21004W        W39858  13.853  15.073  12.863  0.0495 -0.3233  0.0083
21005W        W39859  11.252  11.313  16.195  0.2077  0.1073  0.3497
21006W        W39860  12.347   3.132   4.703 -0.1026  0.1961 -0.0053
21007W        W39861  10.918   3.862   0.413  0.2468 -0.1137 -0.2013
21008W        W39862   4.764  14.993   4.720 -0.0781 -0.0997  0.1774
21009W        W39863  10.211  17.262   4.888  0.0833  0.0352 -0.0596
21010W        W39864   0.472  16.189   1.274 -0.0524  0.0448  0.0309
21011W        W39865  15.052   1.632   0.007 -0.0239  0.0883  0.1992
21012W        W39866  17.381  17.050  16.466  0.0412  0.0159 -0.2348
21013W        W39867   8.977   0.924   2.483  0.0875  0.2286 -0.1747
21014W        W39868   9.763  11.642   0.942 -0.3046 -0.0046  0.0689
21015W        W39869   8.171  10.197  12.448  0.4077 -0.1234 -0.0401
21016W        W39870  14.040  12.047   5.240  0.0046  0.0094  0.2797
21017W        W39871  16.677  16.912  17.166  0.1691  0.0432 -0.2158
21018W        W39872   7.247  14.017  15.606  0.0059 -0.1530  0.0448
21019W        W39873   7.313   7.240   1.988 -0.0688  0.0972  0.1190
21020W        W39874  17.414  10.452  16.658 -0.2225 -0.0733 -0.3861
21021W        W39875   8.346   3.578  15.995 -0.0947 -0.1671  0.1191
21022W        W39876   1.196  14.934  14.503  0.0090  0.1146 -0.2345
21023W        W39877   9.975  16.094  15.166  0.1538  0.2396  0.0772
21024W        W39878  12.429  10.981  16.588  0.0027  0.4728 -0.0813
21025W        W39879  15.660  12.662   2.804  0.2153 -0.2370  0.0422
21026W        W39880  11.395   0.203   2.027  0.0494  0.1205  0.3080
21027W        W39881   3.602   6.528  13.470 -0.0732  0.2605  0.1209
21028W        W39882  16.865  13.001  15.286 -0.1148 -0.0020 -0.1425
21029W        W39883   9.817  12.225  15.471 -0.0935  0.2190  0.0392
21030W        W39884  16.024  14.481  14.878 -0.4059 -0.1661 -0.1856
21031W        W39885   7.855   8.259   1.550 -0.2838  0.0483  0.1122
21032W        W39886  12.259  17.431   2.998 -0.0146  0.0785 -0.0732
21033W        W39887  14.399   7.879   1.786  0.0431 -0.6489 -0.0951
21034W        W39888   2.009   7.975  14.383  0.0720 -0.1662  0.0314
21035W        W39889   9.798  10.733   3.531  0.0823  0.1786  0.0134
21036W        W39890  16.077  14.880   4.777  0.1851  0.2178  0.0602
21037W        W39891   4.149   3.900   5.004  0.0470  0.0792 -0.0537
21038W        W39892   9.963  12.992   0.746 -0.0269  0.1333 -0.0812
21039W        W39893  14.321  12.506  14.348 -0.2317 -0.2828 -0.5757
21040W        W39894   4.705  14.665   1.908  0.0658  0.1378 -0.1127
21041W        W39895  14.885   7.297   1.728 -0.1057 -0.2913  0.0512
21042W        W39896   9.710   8.215  15.312  0.2145 -0.1585  0.1139
21043W        W39897  11.245   5.969   0.960 -0.0666 -0.1167 -0.0054
21044W        W39898   7.353  10.536  12.257 -0.1833 -0.0454  0.0199
21045W        W39899   7.579   6.242   2.784 -0.2064  0.0056  0.5780
21046W        W39900  17.340   2.572  16.656  0.2542  0.1059  0.1255
21047W        W39901   5.739   3.254  13.461 -0.2225 -0.0118  0.3733
21048W        W39902  13.406  10.101  14.847  0.2662  0.0469 -0.0956
21049W        W39903   5.022   7.383   2.645  0.1339  0.0692  0.1605
21050W        W39904   3.070   3.362  13.686  0.1607 -0.2671  0.1521
21051W        W39905   0.747   4.467   0.195  0.0495 -0.0096  0.1279
21052W        W39906   3.751   3.997  13.846 -0.0650  0.1960  0.0871
21053W        W39907  16.516  17.400  12.365  0.0320  0.2219  0.3841
21054W        W39908  17.424   7.216  14.179  0.0613  0.3982  0.1046
21055W        W39909   7.951  10.171   4.612 -0.1483 -0.0381  0.0757
21056W        W39910   5.067   8.621  12.785 -0.1571 -0.1122  0.1868
21057W        W39911   3.626  17.016   4.698 -0.0613  0.0033  0.2518
21058W        W39912   6.456  14.087  14.454  0.0254 -0.3362  0.1627
21059W        W39913  14.811   8.997   5.153 -0.2693  0.0260 -0.2345
21060W        W39914   0.011   9.155   1.189  0.0573  0.0009  0.0985
21061W        W39915  13.880   0.388   1.005  0.0111 -0.0858  0.0781
21062W        W39916   2.883  16.229   3.619  0.1446 -0.1069  0.0548
21063W        W39917   2.694   0.463  16.312 -0.4026 -0.1390  0.3449
21064W        W39918  10.527  16.036  12.968 -0.2232 -0.1673  0.0861
21065W        W39919   9.424  13.568   0.585 -0.0584  0.0422 -0.2274
21066W        W39920  13.053   2.237   1.490 -0.0268  0.2070  0.0763
21067W        W39921   9.073   6.504  15.302 -0.1638  0.0517 -0.0833
21068W        W39922  11.033   3.873   4.164 -0.2659  0.3756  0.1694
21069W        W39923  17.390   7.006  12.568  0.0780 -0.0307  0.0919
21070W        W39924   1.602  11.650  13.295  0.0405 -0.0389  0.0696
21071W        W39925  15.355   8.157  15.832  0.1772 -0.2505  0.0176
21072W        W39926  13.661   7.810  14.304  0.0550 -0.2762 -0.0433
21073W        W39927  13.794   2.282  12.062  0.4104  0.2519  0.1738
21074W        W39928   7.586   1.081  14.194  0.1128 -0.1126  0.1521
21075W        W39929   9.226   7.780   0.073  0.1119 -0.0577  0.1653
21076W        W39930  13.685   2.388   1.039  0.1602 -0.3333  0.1562
21077W        W39931  16.539   4.608   1.877  0.0684 -0.0580  0.0792
21078W        W39932   6.911   1.534   1.326  0.0615  0.1742  0.0452
21079W        W39933   6.341  13.759  14.068  0.1267  0.1786  0.1264
21080W        W39934  13.877  12.018   4.642  0.2364 -0.0811  0.1045
21081W        W39935  16.184   2.578   0.551 -0.1941  0.3568  0.0136
21082W        W39936  14.626  11.371  12.883  0.0768  0.1653 -0.1406
21083W        W39937  14.578   0.845  14.629 -0.1249 -0.0110  0.1445
21084W        W39938  16.838  17.085  13.191  0.0073  0.1140 -0.1654
21085W        W39939  10.145  13.446   4.573  0.1324 -0.1046  0.3606
21086W        W39940  10.723   2.482  14.232 -0.1450  0.0480  0.1503
21087W        W39941  16.353   4.799   3.717 -0.0936  0.1255  0.1072
21088W        W39942   0.462   1.264  16.912 -0.0249 -0.1505  0.3118
21089W        W39943  16.231   4.596  13.445  0.1267 -0.3664  0.1123
21090W        W39944   1.909  12.049  16.020  0.1505 -0.0310  0.1097
21091W        W39945   7.476   6.737   1.291  0.3262  0.0862  0.0798
21092W        W39946  13.143   4.078   2.814  0.1222 -0.2180  0.0417
21093W        W39947  14.705  11.260   0.696  0.0609  0.0946  0.1139
21094W        W39948  11.003   5.286   5.023  0.1111  0.1882  0.1057
21095W        W39949  12.233   4.666  15.474 -0.2842  0.0317 -0.1816
21096W        W39950   0.123   6.961  13.860  0.1325  0.0581  0.0183
21097W        W39951   5.603  11.532  13.204 -0.2692  0.2552  0.2942
21098W        W39952  10.399   4.742  13.718 -0.1055 -0.1733 -0.2445
21099W        W39953  16.459   5.325   3.007  0.1208  0.0754  0.1277
21100W        W39954   7.023  12.176  13.855  0.0408 -0.0789  0.0215
21101W        W39955  16.378  14.573  13.633 -0.0277 -0.0017  0.0481
21102W        W39956   8.472   9.062   2.581 -0.0501  0.2438 -0.1201
21103W        W39957  13.724   8.719  14.325  0.0243 -0.0788  0.1896
21104W        W39958  15.750   6.915   0.576  0.1009 -0.1146  0.1813
21105W        W39959   4.056  12.945   0.406 -0.0556  0.2272 -0.0175
21106W        W39960   5.717  11.657  15.810 -0.1454  0.0831  0.0680
21107W        W39961   3.933   6.076   3.332 -0.0001  0.0563  0.0826
21108W        W39962  12.733  12.620   4.562 -0.2417  0.1494  0.3067
21109W        W39963  14.986   2.996  16.138  0.0386 -0.6594 -0.0335
21110W        W39964   9.922   3.437   3.304  0.2084 -0.3537  0.0339
21111W        W39965   2.622   2.566  12.630  0.2157 -0.1354  0.1553
21112W        W39966  15.257  12.126  13.878 -0.1133 -0.1184 -0.0974
21113W        W39967   7.943   3.136   2.454 -0.1914  0.2586 -0.0340
21114W        W39968  12.765  13.882  13.437 -0.1170 -0.0173  0.3478
21115W        W39969   1.189  14.985   0.859  0.1476  0.1144  0.0970
21116W        W39970  16.137   0.295  14.435 -0.1316 -0.0205  0.1619
21117W        W39971   4.123  11.127   1.860  0.1187  0.1217 -0.0704
21118W        W39972  10.189  15.617  13.184  0.0399  0.2502 -0.3335
21119W        W39973  16.572  10.968   1.176 -0.0069  0.0677  0.1909
21120W        W39974   5.820   4.975   2.922 -0.0029 -0.1149  0.4261
21121W        W39975   6.321   3.479   4.724  0.1028 -0.3012 -0.2981
21122W        W39976   2.132  17.217  15.168  0.0982  0.1098  0.0371
21123W        W39977  11.207   3.580  11.601  0.0172 -0.0996 -0.0866
21124W        W39978   9.412   8.980   0.585  0.1018 -0.4388 -0.1288
21125W        W39979   4.237   8.389  16.858 -0.0890 -0.1662  0.2222
21126W        W39980  17.209  15.643  10.894  0.3406 -0.0417  0.2878
21127W        W39981   3.535   8.138   0.079  0.2216 -0.1195 -0.1392
21128W        W39982   8.508  15.438  14.076  0.2835 -0.0312 -0.4003
21129W        W39983   2.725   5.613   4.374  0.0340 -0.1316 -0.1406
21130W        W39984   6.565   0.123  13.729  0.1640 -0.2402 -0.3128
21131W        W39985   3.037   3.223   0.001 -0.1428  0.3456 -0.5164
21132W        W39986  13.817   5.103  14.422  0.3385 -0.0208  0.2560
21133W        W39987   5.140  10.727   1.547  0.2521  0.0845  0.2173
21134W        W39988   0.040   3.758  17.155 -0.1285  0.1220  0.0071
21135W        W39989   2.561   3.214   0.107 -0.4654  0.0781 -0.0458
21136W        W39990   2.405   7.028   1.741  0.2967  0.0137 -0.1589
21137W        W39991   6.999  16.858  15.385 -0.1945  0.0377  0.3860
21138W        W39992   5.797   0.382  13.270  0.0118 -0.0347 -0.1137
21139W        W39993   7.277  12.493   0.334 -0.1302 -0.3955 -0.2083
21140W        W39994   9.315  16.128   1.136 -0.1478 -0.3660 -0.2005
21141W        W39995   4.647  14.791   2.660  0.0520  0.2615 -0.1187
21142W        W39996  13.938   1.255  12.582 -0.1366 -0.0647 -0.0559
21143W        W39997   0.687  16.461  14.534  0.0523  0.2215  0.0501
21144W        W39998  16.148   1.784   4.364 -0.3005 -0.0182  0.2160
21145W        W39999   7.473   8.332   0.450 -0.2220 -0.0860 -0.5410
21146W        W40000  13.625  16.483   4.907  0.1403  0.0457 -0.2284
21147W        W40001   1.339  13.324  15.109 -0.0772  0.1436 -0.1413
21148W        W40002  11.060   3.547   1.599 -0.1728 -0.1215 -0.0945
21149W        W40003   7.055   8.483   2.397  0.0656 -0.3085  0.0631
21150W        W40004  10.265  11.652  13.396 -0.2712 -0.1545 -0.1792
21151W        W40005   5.368   0.268   0.282  0.1437  0.3939  0.1482
21152W        W40006   0.834  16.318   3.087  0.0433  0.1214 -0.0531
21153W        W40007   6.151  14.562   1.428 -0.0618  0.0007  0.4814
21154W        W40008   9.980  13.188   1.777 -0.1105 -0.2181  0.1165
21155W        W40009   2.214  15.106   5.040  0.2685 -0.2451  0.0033
21156W        W40010  16.806   5.123   4.563  0.0658 -0.5139 -0.1091
21157W        W40011   1.433   7.928   4.733  0.0825 -0.0483  0.2180
21158W        W40012   8.970   0.003   2.718 -0.1924  0.1375 -0.2306
21159W        W40013  13.863   4.709  13.488  0.4419 -0.0210 -0.1507
21160W        W40014   7.098   4.835   1.132 -0.0573 -0.0019  0.1781
21161W        W40015   0.507  10.998   4.673 -0.3718 -0.0111  0.0234
21162W        W40016  13.160   5.634  14.639  0.3003  0.0024 -0.1326
21163W        W40017  16.073   5.543   1.634  0.1458 -0.0345  0.1693
21164W        W40018   9.230   9.582   4.323 -0.0143 -0.0576 -0.0747
21165W        W40019   7.867   6.940   0.386 -0.2919 -0.1890 -0.1227
21166W        W40020  11.052  13.326  16.090  0.1496 -0.1527  0.1054
21167W        W40021  10.102  16.564  15.238  0.0274 -0.0100  0.1733
21168W        W40022  14.808  16.125  16.723  0.2233 -0.1043  0.1091
21169W        W40023  14.964   3.550  16.866 -0.0022  0.1839  0.1892
21170W        W40024  16.979   6.733  15.458 -0.0724 -0.0274 -0.2198
21171W        W40025   4.255  13.035   4.575  0.0068 -0.0271  0.3569
21172W        W40026   0.794  13.472  16.980 -0.1785  0.0505  0.1325
21173W        W40027  11.401   2.332  10.934  0.0224 -0.2603  0.1164
21174W        W40028   4.008   5.702   0.651 -0.1945  0.0627  0.4189
21175W        W40029   2.067   4.436  11.921 -0.3507  0.0448  0.0493
21176W        W40030  10.025   4.834  15.312  0.3034  0.2252  0.0165
21177W        W40031  13.327  12.661  14.645  0.1795  0.1613 -0.0467
21178W        W40032   4.629   9.954  15.322 -0.4917  0.0647 -0.1891
21179W        W40033  15.800  10.715   0.779  0.0527 -0.2109 -0.0069
21180W        W40034  10.915   6.630  12.520  0.1926  0.0804 -0.1744
21181W        W40035   8.972  13.138  14.385  0.1414 -0.2293  0.7328
21182W        W40036   0.682  16.213  16.779  0.1273 -0.1250 -0.1559
21183W        W40037   8.418   0.289  15.411  0.1396 -0.1985  0.1780
21184W        W40038   9.524   6.664   4.687 -0.0915 -0.1924  0.2680
21185W        W40039  12.369  12.881   4.301  0.0410 -0.3059 -0.0414
21186W        W40040   4.293   0.802  13.833 -0.0674  0.3138  0.0121
21187W        W40041  16.611  17.273   0.727 -0.0141 -0.2513 -0.0300
21188W        W40042  12.299  15.286  13.944 -0.1749  0.3934  0.0097
21189W        W40043  10.716  16.857  12.908 -0.1324  0.0819 -0.1306
21190W        W40044   3.291  12.735   2.604 -0.1705  0.1808 -0.0040
21191W        W40045  13.303  11.470   1.054 -0.1576  0.1671  0.2574
21192W        W40046   0.314  15.323   0.982  0.2054 -0.0591 -0.3086
21193W        W40047  17.437   8.825   1.573 -0.0217 -0.1618  0.2192
21194W        W40048  15.442  11.926  14.852 -0.5000  0.1784  0.0985
21195W        W40049  11.785  16.510  14.155  0.0606  0.0062  0.0841
21196W        W40050   2.046   4.105   3.521  0.0609  0.3988  0.1254
21197W        W40051  11.460   0.142  16.452  0.1935 -0.1285  0.2249
21198W        W40052  14.393   1.148   2.525  0.4285 -0.0832 -0.0055
21199W        W40053   3.969  10.428  13.628  0.0256  0.0897 -0.2486
21200W        W40054  10.618  11.749   4.018  0.0932 -0.1820 -0.1247
21201W        W40055  11.543  15.477   1.546  0.3440 -0.4799  0.1982
21202W        W40056   4.582   9.107  16.012  0.0668  0.0418 -0.1609
21203W        W40057  16.491  15.475  16.370  0.6038 -0.0684  0.0462
21204W        W40058   3.919   7.611   0.075 -0.1429  0.0645 -0.1510
21205W        W40059  17.451  16.311   5.029 -0.2434 -0.0273  0.0323
21206W        W40060  13.478  11.701   4.725  0.1731  0.0319 -0.0702
21207W        W40061  14.691   1.658  13.019  0.1417  0.1713  0.3419
21208W        W40062   4.918   9.387  17.020  0.1116  0.0625  0.0598
21209W        W40063   0.465   5.571  13.849 -0.0752  0.0070 -0.1594
21210W        W40064  15.761   2.804  13.889 -0.1562  0.1095 -0.0164
21211W        W40065  12.043   6.947   3.810  0.3379  0.2236 -0.1954
21212W        W40066   9.982   7.892   0.810 -0.4527  0.0210  0.2720
21213W        W40067   0.429   7.132   3.028  0.1121 -0.1090 -0.0176
21214W        W40068   4.440   0.143   0.597 -0.0096 -0.2895  0.1864
21215W        W40069   5.347   1.758   2.416  0.1324 -0.0997  0.1459
21216W        W40070   9.492   8.253  14.120 -0.1028 -0.2018  0.1219
21217W        W40071  14.072   0.756  16.622 -0.1212 -0.2067  0.1197
21218W        W40072  10.900   7.630   4.148  0.2709  0.0726 -0.0260
21219W        W40073  13.693   1.251  15.783  0.2313 -0.2761 -0.2916
21220W        W40074  10.533   1.790   6.087  0.0279 -0.0266 -0.1093
21221W        W40075   7.862  16.276   2.052  0.0580  0.3168  0.1554
21222W        W40076  12.214  13.006   0.349  0.0735 -0.5078 -0.2781
21223W        W40077   4.495  11.799  15.773  0.1324 -0.0891  0.1566
21224W        W40078   1.792  12.214   4.256  0.1190 -0.0502 -0.1261
21225W        W40079  11.039   5.695  15.213 -0.4339 -0.0222  0.1915
21226W        W40080   1.924  16.677   1.819  0.1270 -0.1236 -0.0656
21227W        W40081   7.603   5.563   1.130  0.0610 -0.2606  0.1031
21228W        W40082  13.672   0.456  16.485 -0.1527  0.0574 -0.2835
21229W        W40083   8.374  14.022   4.040  0.0169 -0.1275 -0.0785
21230W        W40084  13.264  14.146  16.472  0.1364 -0.0550 -0.0371
21231W        W40085   7.763   4.591   1.018 -0.3717 -0.1883  0.0897
21232W        W40086   9.873   3.690   3.747  0.1740 -0.0689  0.1335
21233W        W40087   6.468  11.170   0.083  0.0214 -0.4690 -0.3654
21234W        W40088  13.272   9.615  13.408 -0.1655 -0.0743  0.0151
21235W        W40089  11.302   1.055  16.605  0.1241  0.1524  0.1168
21236W        W40090   6.778   5.228   1.245  0.2324 -0.0352  0.1305
21237W        W40091   0.423   6.135   0.180 -0.0345  0.3907 -0.0254
21238W        W40092  15.296   2.333  15.622  0.0237 -0.0448  0.0182
21239W        W40093   2.280  16.343   4.724 -0.3004  0.4353 -0.3404
21240W        W40094   0.373   4.430   1.732  0.3076  0.0360  0.1901
21241W        W40095   9.898   1.954  12.400 -0.1273 -0.3533  0.5453
21242W        W40096   5.414  16.325   1.420 -0.0841  0.0313 -0.3289
21243W        W40097  10.925  17.508  13.701 -0.0135  0.2245  0.3475
21244W        W40098   2.046   8.221   4.136  0.2099 -0.0673  0.0540
21245W        W40099   7.591   1.942  14.707 -0.3724  0.0654  0.1750
21246W        W40100   7.130   3.438   3.549 -0.2307  0.1934  0.2844
21247W        W40101   4.533   5.785  11.454 -0.0214  0.0772 -0.0074
21248W        W40102   3.984   8.520  15.958 -0.1749 -0.0882 -0.1218
21249W        W40103  11.009  11.362   1.910  0.3132  0.0666  0.0760
21250W        W40104  11.668  10.886  15.081 -0.0713 -0.1395 -0.1006
21251W        W40105  12.575   0.945  16.754 -0.0365 -0.2462 -0.0056
21252W        W40106   0.782   3.281  13.163 -0.1122 -0.5288  0.0397
21253W        W40107   3.708   6.079  13.146 -0.2880 -0.1231 -0.1999
21254W        W40108   9.664   0.244   2.484 -0.0350 -0.0568  0.4087
21255W        W40109  15.880  12.430   1.303 -0.0040  0.0155 -0.0397
21256W        W40110   9.053  15.712  14.018 -0.1037  0.2153 -0.0569
21257W        W40111   4.725  12.844  15.417 -0.0163  0.1460 -0.2287
21258W        W40112  11.463  11.590   4.721 -0.4889  0.1668 -0.0828
21259W        W40113  12.870  10.042   6.248 -0.2899 -0.0976  0.1928
21260W        W40114   6.708   6.763   5.049  0.2019 -0.1578  0.0458
21261W        W40115  10.793   2.213   0.588 -0.0282  0.0603 -0.1867
21262W        W40116  12.384  15.354   1.948  0.1259  0.1344  0.0804
21263W        W40117   2.359  13.358  13.205 -0.3272 -0.2087  0.0707
21264W        W40118   0.664   8.986   2.619  0.2441 -0.4938 -0.1813
21265W        W40119   1.346   2.452  13.505 -0.2452 -0.3015 -0.0929
21266W        W40120   8.892   1.882   3.408  0.2499  0.2752  0.0185
21267W        W40121  13.038   8.718   3.878  0.2778 -0.0247  0.0688
21268W        W40122   7.811  13.375   1.391 -0.2611 -0.0626 -0.2838
21269W        W40123  14.562   7.783   0.399 -0.2050  0.3098  0.0799
21270W        W40124   3.749   5.041   4.849  0.1053 -0.0117 -0.2957
21271W        W40125   0.744  12.032   3.821 -0.1612 -0.3511 -0.1622
21272W        W40126  14.208   2.927  12.658  0.2052  0.2115 -0.0905
21273W        W40127  15.890   0.597  13.839  0.1844  0.4817 -0.2087
21274W        W40128  11.986  14.325  15.828  0.1357  0.2631 -0.1758
21275W        W40129   3.361  11.494  16.358 -0.2781 -0.1788  0.0495
21276W        W40130   0.405  16.578  16.947  0.2387 -0.1610 -0.3803
21277W        W40131   1.860  10.048  14.986  0.0115  0.1608  0.0981
21278W        W40132   6.708  17.123   0.999  0.0036 -0.0966  0.2366
21279W        W40133  13.911   7.638   3.950  0.0540 -0.1286 -0.2404
21280W        W40134  14.130  16.321   0.044  0.3714  0.0620  0.1245
21281W        W40135  15.100  13.242   2.053  0.2562  0.0585 -0.2683
21282W        W40136  16.510  13.960   5.869  0.0592  0.3484  0.0379
21283W        W40137   0.971   2.244   0.086  0.2464  0.0006 -0.0786
21284W        W40138   5.877   5.676  12.190  0.1711 -0.0273 -0.2776
21285W        W40139   2.627   7.062  14.203  0.1501  0.0381  0.1235
21286W        W40140   5.346   3.282   5.605  0.1636  0.0937  0.0992
21287W        W40141   7.254   1.001   1.457 -0.2542 -0.0852 -0.1199
21288W        W40142   1.115  12.994  14.139 -0.0050 -0.0787 -0.4830
21289W        W40143   0.527  11.024  13.922  0.0946 -0.2004 -0.2461
21290W        W40144   7.736   5.649  15.974  0.2331  0.1966  0.0232
21291W        W40145   2.708   3.069  12.382 -0.2909  0.0609 -0.0082
21292W        W40146  17.183  10.465   1.430  0.1241  0.1528 -0.0493
21293W        W40147  10.544   6.716   4.739  0.1108 -0.1917 -0.1921
21294W        W40148  16.805   3.821   2.202  0.4099  0.0050  0.1213
21295W        W40149  16.529   3.846  14.823 -0.1512 -0.0645 -0.1689
21296W        W40150   6.435  10.993  15.806 -0.2571  0.0123  0.1789
21297W        W40151   2.367   0.712   4.504  0.2160  0.2406  0.0454
21298W        W40152  15.923   3.059   5.402 -0.0809  0.2355  0.2662
21299W        W40153   5.033  12.054  12.482 -0.3604 -0.4108 -0.1827
21300W        W40154  12.792   1.875   1.053 -0.0666 -0.2357  0.1927
21301W        W40155   2.362   5.181   2.609 -0.0094  0.4594  0.0700
21302W        W40156  14.107   9.881  13.463 -0.2021 -0.1044  0.1927
21303W        W40157   2.717  16.156  16.969 -0.2800 -0.1604  0.0716
21304W        W40158   4.114   4.873   1.796  0.0771  0.1986 -0.2095
21305W        W40159  17.580   7.316   2.952  0.1227  0.1205  0.1485
21306W        W40160  16.425   5.968   1.473  0.0883 -0.1046  0.1181
21307W        W40161   1.830  12.501   1.234  0.0140 -0.0384  0.3689
21308W        W40162   5.684   6.884   0.023 -0.0259 -0.1121  0.0934
21309W        W40163  11.238   5.309  13.194  0.1994  0.1271  0.1216
21310W        W40164   0.016  12.635  13.377 -0.2082 -0.2829 -0.0118
21311W        W40165  11.661   2.048   0.471 -0.1773 -0.0175  0.1336
21312W        W40166   7.370   0.584  16.353  0.2834 -0.3049  0.0133
21313W        W40167   1.653  11.698  14.456 -0.2742 -0.0119 -0.2424
21314W        W40168   3.550  10.441   5.372  0.3822  0.1036 -0.0756
21315W        W40169  17.596  11.264  13.929  0.2526 -0.0704 -0.4126
21316W        W40170   9.363   5.552  13.781  0.1043  0.1073  0.1640
21317W        W40171   0.934   2.139  14.989  0.0348 -0.1157 -0.1239
21318W        W40172  15.000   3.532   1.141 -0.1468  0.2109 -0.2404
21319W        W40173   4.804   0.201  13.627  0.1134  0.0726 -0.4720
21320W        W40174   4.305   2.972   5.078  0.3735 -0.0434  0.0903
21321W        W40175  14.754  11.952   2.203 -0.1440 -0.0774  0.1100
21322W        W40176   5.445   3.836  13.425  0.0244 -0.1433  0.1485
21323W        W40177  14.217  16.899  12.372 -0.0252  0.4491 -0.0086
21324W        W40178  11.194   9.124  16.629 -0.0984 -0.2978 -0.2526
21325W        W40179   4.324   9.983   0.361  0.1972  0.1123  0.2655
21326W        W40180   7.756   6.967  14.154  0.1611  0.0893 -0.2676
21327W        W40181   8.471  13.407  15.096 -0.0829 -0.0811  0.3144
21328W        W40182  10.042  14.254   0.356 -0.1794  0.0207  0.2774
21329W        W40183   1.006  10.528   3.528  0.1241  0.5973  0.0315
21330W        W40184   3.936  14.749   0.134  0.1525  0.3165 -0.0227
21331W        W40185   3.018   1.888   4.170 -0.3141 -0.6054  0.2457
21332W        W40186   8.397  14.062   4.595 -0.0404 -0.1542  0.2124
21333W        W40187  12.109  11.511   1.647  0.1682  0.0224  0.3927
21334W        W40188   9.103   3.502  14.196  0.1728  0.1643  0.2215
21335W        W40189   5.230  12.738  15.141 -0.0681 -0.0468  0.2771
21336W        W40190   5.880  14.228   4.757 -0.0318 -0.0268 -0.0837
21337W        W40191   8.400  17.432   4.981 -0.1654  0.3854 -0.1780
21338W        W40192   5.424  14.998   0.963  0.2604  0.1263 -0.1539
21339W        W40193   6.424  16.213  17.055 -0.2108 -0.0804 -0.0998
21340W        W40194   3.802   4.770   4.072 -0.2353 -0.1425  0.2469
21341W        W40195   3.969   3.108   1.631 -0.1313  0.0033  0.0520
21342W        W40196   2.639  12.910   0.732 -0.1758 -0.1988 -0.3155
21343W        W40197   7.406   7.667   5.126 -0.1492 -0.0618 -0.0221
21344W        W40198   6.760  12.501  14.640  0.0868  0.1443  0.2160
21345W        W40199  12.644  12.106   4.635 -0.0537 -0.0233 -0.2071
21346W        W40200  11.060   8.188  16.991  0.0335 -0.4319 -0.3723
21347W        W40201  13.328   8.751   0.121 -0.0431 -0.0885 -0.2085
21348W        W40202   1.747  14.145   0.361 -0.0897  0.3834 -0.3732
21349W        W40203  12.436   7.107  12.078  0.1008  0.1971 -0.1584
21350W        W40204  13.870  10.913  16.930  0.3222  0.3252 -0.0385
21351W        W40205  11.232   4.991   1.848 -0.1610 -0.1106 -0.1582
21352W        W40206  10.516   7.014   2.469  0.1414  0.1120  0.0267
21353W        W40207   0.660   4.096  15.827  0.0210  0.0879  0.0076
21354W        W40208   0.902  15.848   3.533  0.2174 -0.1152  0.1140
21355W        W40209   3.446  14.156  16.852  0.1391  0.0664  0.0377
21356W        W40210  17.461  11.245   4.618 -0.2771  0.1209  0.3261
21357W        W40211  12.191   3.471   5.012  0.2744 -0.3564 -0.0353
21358W        W40212   1.202  16.459   3.951  0.0522 -0.0231  0.1058
21359W        W40213   0.087   9.509   0.701 -0.3822  0.1187 -0.2804
21360W        W40214   8.970   3.446  11.362  0.2082  0.2019 -0.0201
21361W        W40215  10.161  14.059  16.484 -0.1478 -0.2600 -0.2013
21362W        W40216  17.168  17.100  16.018  0.1046 -0.0200  0.1045
21363W        W40217   0.651  10.291  16.044 -0.0809 -0.2672 -0.3916
21364W        W40218   5.286  13.199  14.853 -0.1828 -0.0123 -0.1967
21365W        W40219   7.211   0.753   0.999  0.0911  0.0921  0.2341
21366W        W40220   9.506  16.916  12.081  0.0930  0.2461 -0.2249
21367W        W40221  13.697  12.946   0.816  0.1147 -0.0539  0.0195
21368W        W40222  11.750   0.916   1.386 -0.1815  0.0480 -0.0910
21369W        W40223   0.592   5.291  13.351 -0.0017 -0.1813 -0.0401
21370W        W40224   7.410   8.929   3.562  0.0911 -0.2247  0.0312
21371W        W40225  15.976   3.612  14.065 -0.0377 -0.0763 -0.2001
21372W        W40226   6.330   6.199  15.917  0.0548  0.2963 -0.1170
21373W        W40227   3.748  16.532   1.922 -0.3470  0.0129 -0.2981
21374W        W40228   9.115  10.054   3.052 -0.1917 -0.1156  0.1024
21375W        W40229   9.409   8.129   3.550 -0.2573  0.0555 -0.0642
21376W        W40230   6.910   7.936  14.487  0.0468 -0.2840 -0.2134
21377W        W40231  10.893  14.395  14.587 -0.0993 -0.0210 -0.0730
21378W        W40232  12.082   2.749  13.229 -0.1096 -0.0819  0.0706
21379W        W40233  15.089   0.662   0.349 -0.2232 -0.0414  0.1468
21380W        W40234   8.168  12.264   0.854  0.3203 -0.5063  0.0236
21381W        W40235   9.067   3.449   2.560 -0.0196  0.2244  0.2901
21382W        W40236  14.473   6.172  15.191  0.1281  0.0341 -0.0157
21383W        W40237   4.615   9.526   2.752  0.0733  0.1965 -0.3188
21384W        W40238  12.796   6.153   0.882  0.1175 -0.1653 -0.3998
21385W        W40239   8.233  17.383  12.476  0.0003 -0.1289 -0.1710
21386W        W40240   7.055   9.959  16.382 -0.0152  0.0390  0.1249
21387W        W40241  13.068  10.600   0.139  0.2878  0.2829  0.0556
21388W        W40242   2.147  14.307   1.668  0.0761  0.0311 -0.0132
21389W        W40243  15.413  10.728  16.739 -0.1310  0.1830 -0.0623
21390W        W40244   6.698  15.380   3.652  0.3569 -0.1376 -0.1558
21391W        W40245  13.036  16.995   1.069 -0.0230  0.2668 -0.1362
21392W        W40246   4.600   3.935  12.530 -0.4619  0.1009 -0.1336
21393W        W40247   4.740   6.625   3.723 -0.1001  0.3111 -0.2781
21394W        W40248  16.391   6.691  15.518  0.2473  0.1233 -0.2488
21395W        W40249   8.276   4.041   1.382  0.1981  0.0514 -0.2693
21396W        W40250   4.523  14.144   5.235  0.4455  0.0466  0.0251
21397W        W40251  12.322   8.735   0.116  0.3369 -0.3221  0.0032
21398W        W40252  14.069   9.326   5.611 -0.0271  0.1361 -0.1818
21399W        W40253   3.550   1.162  16.000 -0.1121  0.2083  0.2788
21400W        W40254  15.617   0.756  16.670  0.2044  0.0589  0.0528
21401W        W40255   4.777  13.963  13.179 -0.0184  0.2174  0.0902
21402W        W40256   5.754   7.454  14.858  0.1414  0.0125 -0.0180
21403W        W40257   2.552  10.652  14.836  0.0882 -0.1399  0.0044
21404W        W40258   5.981   8.418  16.704 -0.2751  0.0002 -0.0061
21405W        W40259   0.758   4.708   3.754  0.1614 -0.0180 -0.1333
21406W        W40260   5.735   0.890   1.744 -0.0410  0.1465  0.0016
21407W        W40261   9.458  15.630  13.136 -0.1237  0.1974  0.0485
21408W        W40262   2.498  13.765   0.482 -0.0092  0.1909  0.2598
21409W        W40263  13.616   0.436  13.958 -0.1519 -0.0918  0.0656
21410W        W40264  12.962  13.983   2.125  0.1654 -0.1800 -0.0202
21411W        W40265   4.596  10.243   4.548  0.1189 -0.2406 -0.1046
21412W        W40266   8.850   7.014   1.136 -0.0269 -0.0949 -0.1891
21413W        W40267   1.201  11.795   5.008  0.0478  0.4546 -0.0156
21414W        W40268   0.816   2.432   4.330  0.0998 -0.2366 -0.0490
21415W        W40269   7.926   3.076  15.688  0.0231 -0.0290 -0.0494
21416W        W40270   4.847   5.533   2.203  0.0465 -0.1443 -0.1367
21417W        W40271  10.606  16.679  13.407 -0.1312 -0.2237  0.0154
21418W        W40272   1.269  13.879  16.242  0.2076  0.1256 -0.1037
21419W        W40273   3.009   1.057   0.473  0.0979 -0.1005 -0.3920
21420W        W40274  13.296   2.613  14.844  0.1133 -0.0973 -0.1619
21421W        W40275   6.879   1.783  16.575 -0.3830 -0.1129  0.0938
21422W        W40276   9.321   3.101   4.068 -0.0835 -0.0678  0.1045
21423W        W40277   6.370  14.255  16.411  0.1258  0.0542  0.2006
21424W        W40278   6.470  11.047   2.919 -0.0958 -0.3081  0.0415
21425W        W40279  17.396   3.876   3.482  0.0516  0.0395  0.0407
21426W        W40280   3.020  15.219  15.591  0.1110  0.3090  0.1577
21427W        W40281  16.190  13.997   4.707  0.0851 -0.1452 -0.1568
21428W        W40282   6.894   4.069  13.494  0.0255  0.0382 -0.0093
21429W        W40283   0.094   8.664  14.338  0.0708 -0.0371  0.1657
21430W        W40284   7.866   5.880  14.678  0.0845  0.1204 -0.1390
21431W        W40285   7.264   1.221  15.719 -0.3436 -0.0548 -0.1588
21432W        W40286   8.740  17.162   2.669 -0.2512 -0.0070 -0.1578
21433W        W40287  17.053   6.878  12.102  0.0180 -0.3523 -0.0419
21434W        W40288   3.221   9.427  14.776 -0.2231  0.0051 -0.1315
21435W        W40289   1.267   1.793  15.424  0.2253  0.1320  0.2857
21436W        W40290   1.011   4.465  16.445 -0.1016 -0.2749  0.0075
21437W        W40291   5.136   1.742  16.431 -0.1177  0.1646  0.1726
21438W        W40292  11.019  13.708  16.964 -0.2238  0.0694  0.0308
21439W        W40293  12.690   5.442   0.330 -0.2456 -0.1618  0.0896
21440W        W40294   1.545   6.829  16.918 -0.3526  0.0598 -0.1661
21441W        W40295   1.923  17.414  15.593  0.1443  0.1125 -0.2850
21442W        W40296   2.742   7.273  16.991  0.2152  0.1252 -0.3307
21443W        W40297   8.075  11.391   0.549  0.1356 -0.0531  0.0113
21444W        W40298   5.481  10.460   0.573 -0.2494  0.1635  0.1683
21445W        W40299  15.664   5.718   6.066  0.0483 -0.3311 -0.0225
21446W        W40300  17.515   1.717   2.689  0.0261  0.0834 -0.0289
21447W        W40301   3.906   0.288  16.567 -0.0753 -0.0538 -0.4398
21448W        W40302  16.295   5.893   2.970 -0.0645 -0.0529 -0.0077
21449W        W40303   3.197   9.936  14.930 -0.0325  0.0506  0.0333
21450W        W40304  12.380  11.626  12.516  0.2603  0.1895  0.1877
21451W        W40305   9.057   0.585  13.666  0.2389 -0.2005 -0.1096
21452W        W40306   8.801  15.266  16.560  0.1754  0.1176 -0.0423
21453W        W40307   2.059   6.731   3.493 -0.0824  0.3982 -0.0601
21454W        W40308   2.710   1.380   1.895 -0.0443 -0.1682 -0.1946
21455W        W40309  11.765  13.840  13.869 -0.3002 -0.0989 -0.1194
21456W        W40310  15.998  11.140   5.157  0.1322 -0.2425  0.1376
21457W        W40311  15.467   1.279   2.031  0.1719  0.1557  0.3009
21458W        W40312  10.843   0.870  12.974 -0.3305 -0.0337  0.1062
21459W        W40313   5.889   8.497  12.447  0.0834  0.0767 -0.0996
21460W        W40314  15.802  12.975   0.420  0.1449 -0.1099  0.2082
21461W        W40315  15.284  14.891  12.135 -0.0144  0.2860  0.2074
21462W        W40316   6.751  11.134  15.353 -0.1539  0.3288  0.0724
21463W        W40317  15.870   4.665  16.401  0.1724 -0.0822 -0.1487
21464W        W40318   1.411   4.229  15.735  0.2920  0.1230 -0.1916
21465W        W40319   3.751  13.334   0.646 -0.0833 -0.0378  0.0150
21466W        W40320   2.215  11.425   4.690  0.2716  0.1061 -0.2212
21467W        W40321   6.303   8.674  14.578  0.0189  0.2128 -0.0360
21468W        W40322   7.389   4.685  12.744  0.0639  0.0175 -0.0108
21469W        W40323   0.341   1.743  13.731 -0.2151 -0.3552  0.0228
21470W        W40324   2.223   0.956  12.832 -0.1481  0.0097 -0.1584
21471W        W40325   3.573   3.907   0.330 -0.1231  0.0930 -0.0278
21472W        W40326   5.165  12.713  15.669 -0.1419 -0.0385  0.0948
21473W        W40327  12.085   2.457   5.731 -0.0459 -0.0414  0.1849
21474W        W40328   6.790  10.310   3.766  0.4353 -0.1931  0.0644
21475W        W40329  12.770  10.481  14.228  0.0545  0.2063 -0.1054
21476W        W40330   2.104  10.659   4.977 -0.1094  0.3549  0.4181
21477W        W40331   2.199   4.736   2.126 -0.0666  0.2293  0.0689
21478W        W40332   2.695   4.379  13.753  0.1223  0.4912  0.1603
21479W        W40333   0.854  10.744  12.411  0.0999 -0.1615 -0.0974
21480W        W40334   8.391  15.363   0.651 -0.2202 -0.0638 -0.0238
21481W        W40335  12.960  15.718   1.523  0.1433 -0.4524  0.1860
21482W        W40336   9.810   3.555  14.623  0.0947  0.0134 -0.0520
21483W        W40337  13.230  11.639  14.951  0.1029 -0.1574 -0.2992
21484W        W40338   4.574   2.508   2.091  0.3823 -0.2417 -0.2456
21485W        W40339   4.823   1.234   1.614 -0.0035  0.0659 -0.1306
21486W        W40340  16.558  16.962  13.674  0.0492  0.0545  0.3349
21487W        W40341   9.360   2.170  12.486  0.3771  0.1815  0.0843
21488W        W40342   3.936  11.055  14.173 -0.1774  0.2202  0.1776
21489W        W40343   6.727   6.543   3.274  0.1078 -0.0713 -0.3833
21490W        W40344   5.053  14.340  13.880  0.3436 -0.2988 -0.2216
21491W        W40345   9.405   5.382   1.084 -0.1247  0.1791  0.1212
21492W        W40346  13.007   7.600   4.500 -0.0991 -0.0575  0.1162
21493W        W40347   6.993   4.822  15.571  0.1051  0.0126  0.1097
21494W        W40348   7.573  13.806   0.400  0.1068 -0.0905 -0.0269
21495W        W40349   6.819   9.366  13.807 -0.1198 -0.0638 -0.2517
21496W        W40350   7.344  16.612   5.087 -0.1791  0.1415  0.2898
21497W        W40351   8.496   1.314   4.508 -0.1599 -0.1326 -0.0330
21498W        W40352   4.454   4.584   2.819 -0.2037 -0.0228 -0.1413
21499W        W40353  16.787   8.789   3.423 -0.2651  0.2067 -0.1411
21500W        W40354   6.644   3.149  15.947  0.0454 -0.0199  0.2559
21501W        W40355  16.836   7.174   4.593  0.1862 -0.1959  0.0464
21502W        W40356  16.485  15.107  13.242  0.0961  0.1586  0.1922
21503W        W40357   3.131  14.724   1.445 -0.1559 -0.1004  0.2396
21504W        W40358  12.850   8.090   4.356 -0.0625 -0.1428  0.3689
21505W        W40359  16.407  12.358   3.168  0.0419  0.1499 -0.0595
21506W        W40360  13.974   1.024   4.468  0.1085  0.2624  0.1828
21507W        W40361   3.247   8.427   1.029 -0.2204  0.1341  0.0445
21508W        W40362   2.305  17.183  13.704  0.2575 -0.2347 -0.0412
21509W        W40363   5.730   7.100  13.393 -0.4005 -0.2296 -0.0835
21510W        W40364   6.303   8.092  15.417  0.2305 -0.2045  0.3347
21511W        W40365   5.122   6.924   0.034 -0.2338  0.2412 -0.1237
21512W        W40366   8.941  13.999  13.139 -0.2401 -0.3058  0.3634
21513W        W40367   0.472  10.543   2.061 -0.0585 -0.0041 -0.1023
21514W        W40368   9.281  11.947  17.228  0.2360  0.0457  0.2063
21515W        W40369   7.954   6.806   3.192 -0.2350 -0.0730 -0.2716
21516W        W40370   7.414   2.887   2.790  0.0120 -0.2598  0.1200
21517W        W40371  11.743  15.218   1.177 -0.0082 -0.3755  0.1013
21518W        W40372  11.172   2.667   2.613 -0.1786  0.0740  0.2879
21519W        W40373  10.177   7.345   5.198  0.0768  0.0549 -0.1251
21520W        W40374   5.804   5.187   5.744  0.0971  0.3018  0.2242
21521W        W40375   6.873  14.628   3.417  0.0371 -0.0033 -0.1010
21522W        W40376   4.399   9.433  12.911  0.1349  0.0391  0.0908
21523W        W40377   8.413   5.947  16.025  0.0378 -0.0454 -0.1910
21524W        W40378  13.816  13.708   3.475  0.0694 -0.0157 -0.1087
21525W        W40379  17.312   1.366  16.203  0.0051 -0.1356  0.1696
21526W        W40380  15.011   2.582   2.211 -0.1856  0.2510 -0.0456
21527W        W40381  14.500  14.107  12.637 -0.0151  0.2568  0.0792
21528W        W40382   8.995  14.715  15.733 -0.1968  0.2105  0.0687
21529W        W40383  11.811   0.264  12.937  0.0138  0.0723 -0.0526
21530W        W40384   9.997  16.638  13.633 -0.3126 -0.2178 -0.0391
21531W        W40385   9.194   0.450   2.388 -0.4381 -0.1777 -0.2883
21532W        W40386   0.696  12.947  16.548  0.0292 -0.0971 -0.3323
21533W        W40387  13.621   4.117  14.175  0.0932  0.2906  0.0130
21534W        W40388  10.348   6.068   2.445 -0.2470 -0.0784  0.1482
21535W        W40389   9.433   9.422  13.724 -0.1348  0.1718  0.3303
21536W        W40390   0.990  11.239  12.367  0.2657  0.0753 -0.1916
21537W        W40391  14.375   9.250  14.007  0.0378  0.1337  0.0126
21538W        W40392  11.371   9.465  13.327  0.3110  0.1156  0.1947
21539W        W40393  14.711  15.527  16.484 -0.3397 -0.0039 -0.1812
21540W        W40394  14.896   0.366  14.700  0.1042  0.1503 -0.1057
21541W        W40395   0.763  12.535  16.805  0.1604  0.2344 -0.0603
21542W        W40396  14.514  10.775   2.857  0.1816 -0.0561 -0.2191
21543W        W40397   0.919  16.830  14.202  0.1299  0.0830 -0.2407
21544W        W40398  16.481  11.034  14.650  0.0692 -0.1019 -0.1040
21545W        W40399   9.466  15.868  11.267  0.1480  0.2253  0.0216
21546W        W40400   1.867   7.589  13.143  0.0712  0.2068  0.0196
21547W        W40401  10.848   9.867   1.905 -0.2530 -0.2805  0.1296
21548W        W40402   7.194   8.072   3.144 -0.0907 -0.0903  0.2693
21549W        W40403   8.148  13.644   5.906  0.0750  0.4121  0.2564
21550W        W40404   7.106   7.992  13.496 -0.1413 -0.1064  0.0423
21551W        W40405   7.834   5.876  12.822 -0.1913 -0.0463 -0.0812
21552W        W40406   2.366   2.405  14.145  0.0621 -0.2605 -0.0265
21553W        W40407   7.112  14.604  16.209 -0.0858 -0.3237 -0.1400
21554W        W40408  15.769   4.685  12.050 -0.1220 -0.0713  0.1895
21555W        W40409  12.838   9.411   4.559 -0.0639 -0.2342  0.0334
21556W        W40410  14.166  13.295  16.096  0.0548  0.2571 -0.1571
21557W        W40411  10.355   1.578  16.825  0.0691 -0.1380  0.0780
21558W        W40412  15.396  11.684   0.134  0.3682  0.0595  0.2015
21559W        W40413  10.354   6.135   1.940  0.0358  0.1817 -0.0537
21560W        W40414  14.633  15.490   3.206  0.1635 -0.1424  0.2245
21561W        W40415  11.346   3.961  15.645  0.1331  0.2060 -0.1250
21562W        W40416   7.823  13.299  15.967 -0.1700 -0.4372  0.1453
21563W        W40417   5.372   3.126  16.363 -0.0166 -0.2200  0.1626
21564W        W40418   9.472   3.569   4.778  0.0813 -0.3417 -0.0128
21565W        W40419  11.829  16.690   2.258 -0.4854  0.2708 -0.1505
21566W        W40420   5.499   7.225  16.942  0.0731 -0.2870  0.0026
21567W        W40421   6.532  16.675   2.282  0.2048 -0.1185 -0.2036
21568W        W40422   2.875   9.893   3.101 -0.0074 -0.3271 -0.3116
21569W        W40423   7.354  14.515   2.916 -0.1084  0.0256 -0.2860
21570W        W40424   0.698  15.045   0.812  0.3536  0.1113  0.1216
21571W        W40425  10.791   0.270  14.722 -0.1123  0.3608 -0.2254
21572W        W40426  16.993   6.908   5.035  0.1499  0.1542 -0.1630
21573W        W40427   6.585   9.244  12.543  0.0868 -0.2731 -0.1933
21574W        W40428  14.703   0.138   3.392 -0.3456  0.0538 -0.0612
21575W        W40429  12.015   4.886   4.047 -0.4560 -0.0087  0.1816
21576W        W40430   4.938  14.616   5.068  0.1094 -0.2090 -0.0261
21577W        W40431   6.344   8.892   5.583 -0.0579  0.2522 -0.2616
21578W        W40432  11.063  14.942   2.158  0.2762 -0.0721  0.2724
21579W        W40433   1.353  10.007  12.676  0.0461  0.0264 -0.1606
21580W        W40434   1.916  15.634   4.279  0.3041  0.2274 -0.4419
21581W        W40435   7.751  12.066  16.490 -0.3388 -0.1237  0.1824
21582W        W40436   3.347  11.177   0.593 -0.3222  0.0336 -0.3511
21583W        W40437   1.836   0.455  14.612  0.0717  0.0622 -0.0996
21584W        W40438  12.793   7.608   2.253 -0.0535 -0.0642 -0.1220
21585W        W40439  12.990   8.985   1.417  0.2106  0.0357  0.0309
21586W        W40440   4.632  12.909  12.968  0.0166 -0.0325 -0.2566
21587W        W40441  15.718  17.270   0.202 -0.1485  0.3999 -0.0163
21588W        W40442   1.007  12.148   1.675 -0.2136  0.2987  0.4673
21589W        W40443  17.307  11.399  12.176 -0.1291  0.0344 -0.2916
21590W        W40444  16.493   1.924  16.977  0.0848 -0.2488 -0.0343
21591W        W40445   6.163  13.213   3.792  0.1248 -0.0909 -0.3095
21592W        W40446  12.854  14.581   3.819  0.0357 -0.2578  0.2568
21593W        W40447   0.944  13.511   2.487 -0.1394  0.0736  0.0325
21594W        W40448  11.710   4.556  14.087  0.0907 -0.0075 -0.0557
21595W        W40449  16.080   9.250   3.826 -0.0718  0.1835  0.0239
21596W        W40450   2.878  15.843  15.647 -0.0467 -0.0573  0.1716
21597W        W40451  14.947   1.799  14.199 -0.3435  0.0731  0.0564
21598W        W40452   2.577  11.258   3.894  0.0631 -0.2905  0.1683
21599W        W40453   3.107   0.235  13.655  0.1342 -0.4077  0.3532
21600W        W40454   7.605   8.229  14.280 -0.0274  0.2390  0.1835
21601W        W40455  14.709   3.002   1.980 -0.2755  0.0122 -0.3786
21602W        W40456   1.922  16.495  12.424 -0.0705 -0.0026 -0.0503
21603W        W40457  10.514  13.948   3.008 -0.0874  0.1582 -0.0530
21604W        W40458   9.046   6.370   5.473 -0.1460 -0.1805  0.1134
21605W        W40459  10.711  15.474  13.313  0.3478 -0.1043  0.0703
21606W        W40460  10.431   7.712   4.473 -0.0361  0.0552 -0.2068
21607W        W40461   7.748  17.202   2.393  0.0023 -0.1817 -0.1052
21608W        W40462  14.731   4.736   5.099 -0.0456 -0.0261  0.0358
21609W        W40463  10.531   3.935  13.564 -0.1608  0.0750  0.1564
21610W        W40464  15.451   5.462  16.530 -0.2090 -0.3757 -0.1478
21611W        W40465   6.068  12.225   1.328 -0.2035  0.1822 -0.4170
21612W        W40466   8.822   1.755   4.941  0.1215  0.2234 -0.1245
21613W        W40467   1.406   7.498   4.469  0.0021  0.0351 -0.1178
21614W        W40468   5.973  10.794   3.961 -0.0280  0.0391  0.0546
21615W        W40469  11.639  10.821   2.791 -0.0877 -0.0123  0.0337
21616W        W40470  11.582   8.654   1.233 -0.1566  0.2468  0.2859
21617W        W40471   7.031  14.132   0.117 -0.1592  0.0494 -0.0455
21618W        W40472  12.758  16.432   3.541 -0.1350 -0.1474 -0.1952
21619W        W40473   4.939  16.835   3.021 -0.0935  0.0536  0.0744
21620W        W40474   1.225  11.276  14.599  0.1515 -0.1513 -0.1861
21621W        W40475   8.407  16.846  15.633  0.0730  0.0159 -0.1068
21622W        W40476   0.292  15.087  16.073 -0.1618 -0.3405 -0.0182
21623W        W40477   5.054   8.842   2.549 -0.3300  0.1192  0.0125
21624W        W40478   8.735  13.611  14.304  0.0348  0.0044  0.1811
21625W        W40479   6.801  16.533   1.940 -0.2705 -0.0506  0.1570
21626W        W40480  11.169  17.184  15.475  0.0037 -0.0969 -0.1263
21627W        W40481   4.862   2.511   2.465 -0.1429 -0.1066 -0.0454
21628W        W40482   3.944  16.819  15.947  0.1194  0.1664  0.0987
21629W        W40483   1.713   4.971  13.386  0.0962 -0.1114  0.0791
21630W        W40484  13.343   1.383   2.479 -0.2428 -0.1385  0.3161
21631W        W40485   3.558  11.325  14.951 -0.0442  0.2089 -0.2318
21632W        W40486   4.665   2.337  14.024 -0.2906 -0.0086  0.4777
21633W        W40487  15.771   3.952   3.539 -0.3219 -0.2727 -0.0942
21634W        W40488   4.809  10.168  13.315 -0.0799  0.1197 -0.1899
21635W        W40489  12.271  14.056   4.566  0.0057  0.1039  0.0345
21636W        W40490  17.058  11.638  15.624 -0.1126 -0.2189  0.3449
21637W        W40491   4.266  10.089  16.492  0.2318 -0.2238 -0.0546
21638W        W40492  15.158  10.076   0.952  0.2971  0.2667 -0.2878
21639W        W40493   4.712   3.276  13.218 -0.0688  0.1371  0.1612
21640W        W40494   6.528   9.526   2.660 -0.0353  0.2444 -0.0907
21641W        W40495   6.483   6.811  15.084  0.1241  0.1737  0.2017
21642W        W40496   3.605   1.979  14.966  0.0421 -0.0709  0.2408
21643W        W40497  16.859   0.948   1.405  0.1105  0.1108  0.1429
21644W        W40498  15.207  12.988  13.489  0.2041 -0.0036 -0.4106
21645W        W40499   9.724   8.468  12.932  0.0275  0.0062  0.3560
21646W        W40500   5.415   8.471  13.258  0.1057 -0.1120 -0.2431
21647W        W40501   0.528   3.390  15.113  0.2060  0.0837 -0.0813
21648W        W40502  10.204   7.433  15.786 -0.1468  0.3784 -0.0892
21649W        W40503  17.514  10.511  14.300 -0.0211 -0.0635 -0.1300
21650W        W40504  16.764  10.018   2.091  0.0234 -0.2821 -0.1569
21651W        W40505  16.569   9.833  13.391 -0.0872  0.1381  0.2806
21652W        W40506  10.241  14.747  14.877  0.0738 -0.1215  0.2324
21653W        W40507   5.045   4.798   4.652 -0.0503 -0.2329  0.3973
21654W        W40508   4.079  11.800   3.320  0.0254 -0.4226 -0.0624
21655W        W40509  14.389   0.382  16.544 -0.1910 -0.1243 -0.0843
21656W        W40510   4.794   7.688  16.280  0.0713 -0.0683 -0.0314
21657W        W40511  14.721   4.833   2.682  0.0824 -0.1590  0.0209
21658W        W40512   4.089   2.717  15.515 -0.0642  0.1922 -0.0110
21659W        W40513   4.371   8.778   3.310  0.0088  0.2642 -0.2202
21660W        W40514   5.503  12.082  17.079 -0.1846  0.0398 -0.0312
21661W        W40515   5.813   9.804   2.287  0.0023  0.0329 -0.1236
21662W        W40516   1.275   0.715  15.330 -0.2573 -0.1289  0.1298
21663W        W40517  15.232   0.439   1.058 -0.0707 -0.0775 -0.1777
21664W        W40518   4.154   9.885  13.770  0.2082 -0.0904 -0.0089
21665W        W40519   9.632  14.975   2.212 -0.1645  0.2009 -0.1690
21666W        W40520   8.925   7.571  14.734 -0.0973  0.2324 -0.2250
21667W        W40521   5.128  12.246   2.941 -0.2400 -0.0848  0.0207
21668W        W40522  17.410  15.754   4.732  0.0621 -0.0124 -0.1877
21669W        W40523  16.408   9.954   4.360 -0.1672  0.2980  0.1923
21670W        W40524  15.258  15.737  12.535  0.1205  0.0347 -0.2563
21671W        W40525   5.206  14.496   1.917 -0.1896 -0.4517  0.0934
21672W        W40526  13.619   2.010  14.572 -0.1414  0.0670 -0.1176
21673W        W40527   0.870   5.247   0.643 -0.2411 -0.1772  0.4469
21674W        W40528   2.867   1.771   2.900 -0.1539 -0.2609  0.0972
21675W        W40529  11.318   6.012  14.262 -0.0625 -0.0160  0.0436
21676W        W40530  13.595  11.300  15.013  0.1594 -0.1802 -0.3610
21677W        W40531  17.044   0.023  15.826  0.1231  0.1095 -0.0778
21678W        W40532   6.108   6.334   2.873  0.2301 -0.0622  0.0894
21679W        W40533   7.173  12.147   0.663  0.2138  0.2541 -0.2009
21680W        W40534   2.612   0.454   5.158  0.2798 -0.1513  0.1333
21681W        W40535   1.387   2.793   3.124 -0.0058 -0.0383  0.1286
21682W        W40536  13.319   6.405  14.121 -0.1719  0.2722 -0.1174
21683W        W40537   2.160   0.632   3.995 -0.2789 -0.1091  0.0832
21684W        W40538   4.682   7.211  16.380  0.0817  0.1383 -0.0663
21685W        W40539  11.658  11.238   5.066 -0.0834  0.0822 -0.0199
21686W        W40540  11.049  11.704   5.435  0.0387  0.0062 -0.3913
21687W        W40541   8.720  13.074  13.158 -0.2704  0.1881 -0.2149
21688W        W40542   8.767   1.157  15.906  0.1265  0.0644  0.0424
21689W        W40543  14.641  13.624  11.907  0.1519  0.0910 -0.0321
21690W        W40544  13.936  16.788  12.818 -0.2620 -0.3833  0.0028
21691W        W40545  13.951   7.218  16.713 -0.0861 -0.1647  0.1509
21692W        W40546   2.351  17.377  12.286  0.0752 -0.0425 -0.3999
21693W        W40547  10.551   8.674   4.910  0.1356  0.1426  0.1703
21694W        W40548   4.611  16.463   3.766  0.0070  0.1526  0.1117
21695W        W40549   5.060   2.726   3.858  0.0846 -0.0244 -0.3539
21696W        W40550  16.357   0.478   5.367 -0.2581 -0.0656  0.0760
21697W        W40551  13.245   4.524   3.485  0.0808 -0.3074  0.1308
21698W        W40552   6.876   1.863  15.143  0.0624  0.0977 -0.2320
21699W        W40553  11.343   8.788   4.455 -0.2502 -0.0239  0.1378
21700W        W40554  15.468   6.419  12.523  0.0683  0.0771  0.0602
21701W        W40555   8.143   8.193  15.682  0.0590 -0.1419  0.2352
21702W        W40556  16.737   2.396   0.615  0.0386 -0.2177 -0.1042
21703W        W40557   6.867  10.526  12.464  0.0097  0.0641 -0.3107
21704W        W40558  13.142   4.753  15.197  0.1632  0.0872  0.0974
21705W        W40559   4.786   1.105  15.808 -0.2000 -0.1506 -0.1661
21706W        W40560   9.278  13.616   2.131 -0.0861  0.0679  0.1319
21707W        W40561   7.855   9.386   1.913  0.0574 -0.0196  0.0364
21708W        W40562   9.021  11.777  13.241  0.3347 -0.0310 -0.1449
21709W        W40563  13.123   0.285  13.067  0.0508 -0.2071  0.1999
21710W        W40564   8.110  10.351  12.906  0.0259 -0.0060  0.2967
21711W        W40565  14.530   0.800   3.598  0.2163  0.0366 -0.1392
21712W        W40566   6.917   3.044   4.754 -0.3388 -0.1096 -0.0620
21713W        W40567   4.667  14.492   0.194 -0.1531  0.2170 -0.3211
21714W        W40568   9.145   1.385  16.085 -0.0904  0.0128  0.0078
21715W        W40569  10.547   4.847  14.628 -0.0141  0.3439 -0.1387
21716W        W40570  16.902  15.185  14.035 -0.0745  0.5502 -0.0765
21717W        W40571   8.590  12.009  13.479  0.0741 -0.3581 -0.2519
21718W        W40572  10.842  11.358   1.045  0.4205 -0.0458 -0.2824
21719W        W40573   1.439   0.988  16.494  0.2409 -0.0283  0.2180
21720W        W40574   0.364   5.920  16.178 -0.0433  0.0889 -0.1209
21721W        W40575   1.741   8.679  16.554 -0.1045  0.1297  0.1569
21722W        W40576   5.901   7.081  13.937  0.1746 -0.3249 -0.1342
21723W        W40577  14.295   5.039  14.508  0.3209 -0.0389  0.0749
21724W        W40578   8.144  14.011  11.859 -0.2409 -0.1715  0.2198
21725W        W40579   0.069  14.750  13.320  0.2039  0.1182 -0.1211
21726W        W40580   2.145  14.492  14.849  0.1442  0.0283  0.1679
21727W        W40581  17.418  16.087   2.584  0.1263  0.3151  0.0574
21728W        W40582  14.270   4.536   5.233 -0.2241 -0.1708  0.0756
21729W        W40583  16.580   4.553   4.968 -0.0518 -0.3681  0.0427
21730W        W40584  14.050  10.885  13.135 -0.2591  0.0376 -0.2424
21731W        W40585   3.507   3.847   1.714  0.0455 -0.1670  0.0264
21732W        W40586   3.979  15.872   0.846  0.0690  0.0846  0.0896
21733W        W40587   0.332  10.037   5.099 -0.3382  0.1217 -0.0775
21734W        W40588   1.165   7.307  15.675 -0.1118  0.0216  0.2313
21735W        W40589   8.924   4.108  12.952 -0.0312  0.0393  0.0013
21736W        W40590   9.503   2.789  13.584 -0.1520  0.1333 -0.2983
21737W        W40591   3.363   9.820   0.687 -0.1718  0.0409  0.2634
21738W        W40592   6.655   9.343  16.990  0.3738  0.2035 -0.0730
21739W        W40593  11.745  13.921   2.550  0.2599 -0.1816 -0.3518
21740W        W40594  17.491   3.403   3.157  0.0901  0.1248 -0.1017
21741W        W40595   5.654  13.959  13.584  0.0332  0.0279 -0.0311
21742W        W40596  13.158  13.953   4.082  0.1062 -0.3765  0.2646
21743W        W40597   2.207   3.254  14.943 -0.1886 -0.1056 -0.3407
21744W        W40598   6.801   9.829  14.383  0.3182 -0.3950  0.0679
21745W        W40599   2.478   1.569   3.777 -0.2458  0.1197  0.0597
21746W        W40600   7.486  13.778  16.075  0.2540 -0.1110  0.1404
21747W        W40601   2.365   6.427  12.046  0.0943 -0.0044  0.2343
21748W        W40602   5.516   5.137  12.224  0.0426 -0.1932  0.1315
21749W        W40603  13.765   5.876   5.001 -0.0421 -0.2063  0.0720
21750W        W40604   0.984  16.120   1.538 -0.0434  0.0037 -0.0528
21751W        W40605  11.774   5.206   5.329 -0.2895  0.0324  0.1032
21752W        W40606   4.866  16.645   4.547 -0.0297  0.0386  0.0717
21753W        W40607  14.529   7.668   3.967  0.0191  0.0322 -0.0843
21754W        W40608   2.758  17.000  12.680 -0.1698 -0.0748  0.1274
21755W        W40609   9.516   9.869  16.708 -0.0536 -0.1084  0.0387
21756W        W40610  13.934   9.225   4.901 -0.2085  0.1633 -0.0626
21757W        W40611   6.002  15.194   4.288  0.1212  0.5740  0.0408
21758W        W40612   2.801  16.832  14.407  0.0682  0.1333  0.1474
21759W        W40613   1.780  10.867  14.891 -0.1533 -0.3231  0.1640
21760W        W40614   4.443  12.281  13.764 -0.1641 -0.1784  0.2630
21761W        W40615   8.373   9.742  15.765  0.1116 -0.0222  0.1101
21762W        W40616   1.170   6.705   2.980  0.1199  0.1712  0.0017
21763W        W40617  13.433   9.642   0.009  0.1165 -0.2563  0.0426
21764W        W40618  11.313   1.105  16.008 -0.0601 -0.2391  0.1907
21765W        W40619   5.283  17.133   2.876 -0.3953 -0.0166  0.1827
21766W        W40620  13.315  15.867  14.389 -0.0976  0.0859 -0.2485
21767W        W40621  10.723  15.101   3.012  0.1680  0.1390  0.3259
21768W        W40622  13.734  10.721   0.811 -0.0382  0.0612  0.1195
21769W        W40623  16.727   9.093  12.469  0.1244 -0.0271  0.1113
21770W        W40624  16.750  12.580   1.431 -0.0136  0.0338  0.2905
21771W        W40625   8.612   5.667   0.718 -0.2823 -0.0221 -0.0464
21772W        W40626   7.779  11.871   5.195  0.1121  0.0471  0.0923
21773W        W40627  12.179   8.586   2.500  0.2486  0.1554 -0.0816
21774W        W40628  10.075  14.654  12.667  0.0881 -0.0045  0.1245
21775W        W40629  15.027  15.145   3.156 -0.1062 -0.0649 -0.5774
21776W        W40630   2.147   4.362   3.113 -0.2786  0.0420  0.2904
21777W        W40631   7.532   6.553  16.604 -0.0631 -0.2876 -0.1076
21778W        W40632   7.067   9.850  17.233  0.0646 -0.1505  0.3654
21779W        W40633   3.402  17.130   0.787  0.0975 -0.1517  0.0225
21780W        W40634  13.977   5.976  13.358 -0.0409 -0.0965 -0.0783
21781W        W40635   8.005  13.476   1.845 -0.0550 -0.1886 -0.1847
21782W        W40636  11.553   5.189   4.059 -0.1025  0.1774  0.0065
21783W        W40637  16.011   2.548   2.126  0.0474 -0.3688 -0.0147
21784W        W40638  14.267  12.536  17.113 -0.3143 -0.0637 -0.1795
21785W        W40639   7.215   4.684  15.998  0.1484 -0.0476  0.0131
21786W        W40640   9.699  13.176   4.465  0.0354  0.0459 -0.0442
21787W        W40641  15.099  16.842   1.587 -0.1761 -0.0313  0.0244
21788W        W40642   6.541   9.734  12.388  0.0364 -0.2396  0.1565
21789W        W40643  14.996   0.112  16.005 -0.3360  0.1980 -0.1938
21790W        W40644  15.748  13.431   3.555  0.1180  0.0500  0.0706
21791W        W40645  13.554   4.311   3.118  0.3415 -0.0743 -0.5570
21792W        W40646   9.666   1.587   3.037 -0.2373  0.4155  0.1476
21793W        W40647   6.534  12.878   2.197 -0.0020  0.2414 -0.0427
21794W        W40648   7.093  12.285   3.637  0.0432  0.2750  0.3865
21795W        W40649   8.274  16.795  14.625  0.3039 -0.0099 -0.2495
21796W        W40650  11.445  13.541  16.707  0.1313 -0.0081 -0.0677
21797W        W40651  12.369  14.922   1.618 -0.0396  0.0800  0.1077
21798W        W40652  10.522  13.462  12.221 -0.2740  0.4393  0.0931
21799W        W40653   3.497   0.087   2.014 -0.1327  0.2561 -0.0927
21800W        W40654  10.274  13.792  14.033  0.3350 -0.1315 -0.4191
21801W        W40655   0.123   7.179   4.851  0.0518 -0.1371  0.0408
21802W        W40656  14.422  15.518  12.155  0.1596  0.0494 -0.3840
21803W        W40657   9.744  10.379   5.018 -0.0688  0.0885 -0.1424
21804W        W40658  12.095   6.051  16.086 -0.1614 -0.1539  0.3194
21805W        W40659  14.708   7.536  10.852  0.3058 -0.0563 -0.4788
21806W        W40660   0.501  14.119   4.558  0.0877 -0.2224  0.1230
21807W        W40661  15.486   9.368  16.958 -0.3557  0.3460  0.0831
21808W        W40662  15.004  13.874   3.491 -0.0790 -0.1208  0.0765
21809W        W40663   7.793   5.577  15.043 -0.1685  0.0608 -0.2593
21810W        W40664   7.022   0.977  13.857 -0.0645  0.1549 -0.1841
21811W        W40665   7.883   2.608  15.388 -0.0369 -0.0509  0.0024
21812W        W40666  16.906   5.780   4.297  0.3555 -0.0260 -0.1598
21813W        W40667  12.746   9.120  14.826 -0.0457  0.2893  0.0363
21814W        W40668   4.816   4.011  14.644  0.0726  0.0092 -0.0964
21815W        W40669   0.680   6.654   3.915 -0.1446  0.3519 -0.0699
21816W        W40670  12.380  12.410   0.373  0.0310  0.1501  0.1139
21817W        W40671   6.935   4.009   3.610 -0.0679  0.1102 -0.0345
21818W        W40672   0.377   4.259  14.809  0.2024  0.3264 -0.0186
21819W        W40673   4.916   5.739  12.452 -0.1192  0.1727  0.2231
21820W        W40674  13.278   9.336   2.947 -0.0364 -0.1626 -0.0967
21821W        W40675  10.783  13.224   0.623  0.1654 -0.0559 -0.1886
21822W        W40676   5.210   9.593   0.692 -0.2035  0.0553  0.3211
21823W        W40677  11.792   4.008   0.470  0.2858  0.1739 -0.2760
21824W        W40678   0.396   5.173   0.762 -0.1953  0.1654  0.0571
21825W        W40679  13.904   1.454   1.926  0.0791 -0.0263  0.2896
21826W        W40680  10.595  15.280   2.504  0.1562  0.3373 -0.0641
21827W        W40681   5.425   2.378   1.860  0.1265 -0.1171 -0.0817
21828W        W40682   9.342  16.882  16.011 -0.0507  0.0083 -0.2975
21829W        W40683   3.604   4.386   4.306 -0.0442  0.1938  0.0524
21830W        W40684   5.452   9.803  16.274 -0.0567  0.1869  0.1069
21831W        W40685  15.973  15.599  14.300 -0.1787  0.0160  0.5147
21832W        W40686  15.754  13.420   4.028 -0.1365 -0.2585 -0.1818
21833W        W40687   7.955  17.151   1.789  0.2325 -0.2449  0.0961
21834W        W40688   3.541   7.001   1.031 -0.1701  0.2299 -0.0375
21835W        W40689   1.507   1.641  12.256 -0.0638  0.0592 -0.0078
21836W        W40690   9.027   5.739   3.966  0.3184  0.3631  0.0912
21837W        W40691   0.779   7.746   1.532 -0.2694  0.1063 -0.5765
21838W        W40692  15.194  12.796  14.423 -0.1206 -0.0347  0.3360
21839W        W40693  13.497   0.664  13.093  0.2095 -0.0041 -0.0278
21840W        W40694  12.534   0.346  16.378 -0.1965  0.1141  0.1620
21841W        W40695  10.435   7.033  14.321  0.2247 -0.3757  0.3771
21842W        W40696  17.566  13.931   4.525  0.0705 -0.1586 -0.2854
21843W        W40697   6.719   7.274  13.445  0.1286 -0.0658  0.0412
21844W        W40698   6.487   1.790   0.945 -0.1490  0.1541 -0.1235
21845W        W40699   7.510   9.700  13.901  0.1038 -0.3106  0.0646
21846W        W40700   6.848   3.546   4.799 -0.3570 -0.1278  0.0212
21847W        W40701  11.966   1.808   4.372 -0.0255 -0.0778 -0.4502
21848W        W40702   7.012   3.218  14.853 -0.0614  0.1037  0.0543
21849W        W40703   2.180  13.165   5.137  0.5140  0.0475  0.0744
21850W        W40704   8.842  12.665  14.672  0.0637  0.0833 -0.0291
21851W        W40705   7.235   3.799   4.945 -0.2283 -0.0370 -0.0328
21852W        W40706  10.672   4.756  14.122  0.0613  0.0240 -0.0004
21853W        W40707  14.997   3.642  14.491 -0.2177  0.2345  0.2175
21854W        W40708  13.149  17.223  15.229 -0.0441 -0.0931 -0.1074
21855W        W40709  12.638   8.089   6.584 -0.1090 -0.2200 -0.1323
21856W        W40710   1.859   7.774   0.541 -0.3732  0.0582  0.0166
21857W        W40711   6.579   5.712  16.224  0.2012  0.0099  0.2251
21858W        W40712   6.619   9.753   5.040  0.3233  0.0642  0.4148
21859W        W40713  16.794   8.710   5.051 -0.2383  0.3185 -0.2477
21860W        W40714   4.597   4.031  16.040  0.0156  0.1241 -0.0996
21861W        W40715  17.590  11.340   5.236 -0.0649 -0.0598 -0.1846
21862W        W40716   9.707  12.241  16.514 -0.0024  0.0693  0.0097
21863W        W40717   2.518  10.031   2.654 -0.1055 -0.1301 -0.0792
21864W        W40718   3.693   9.713   3.884  0.0006 -0.0876  0.2080
21865W        W40719  13.531  12.323   3.416  0.1733  0.0568  0.0887
21866W        W40720   8.562  14.621   1.312  0.0236 -0.4312 -0.0790
21867W        W40721   3.171   8.193   2.754 -0.1422 -0.1746 -0.2765
21868W        W40722   2.895  12.283  15.346  0.0351 -0.5443  0.1845
21869W        W40723  15.524  14.978  16.023  0.0849 -0.0408  0.1065
21870W        W40724   0.027  14.312  14.998  0.0219 -0.2972  0.1273
21871W        W40725   8.505  16.073   1.346  0.0590 -0.1220  0.0260
21872W        W40726  11.609   1.007  17.094  0.0261  0.0444 -0.2694
21873W        W40727   2.103   9.137   2.398  0.0299 -0.0054  0.0255
21874W        W40728   3.292   8.190  14.739 -0.0800 -0.1920 -0.1379
21875W        W40729   3.085   2.072  16.273  0.2306 -0.0280  0.0598
21876W        W40730  10.408   9.049   5.261  0.0668  0.0774  0.2252
21877W        W40731  17.441  10.752   2.139 -0.0562  0.2480 -0.0218
21878W        W40732  11.006   8.889   0.408  0.0217  0.1507  0.0368
21879W        W40733   8.472   8.830   1.850 -0.0979  0.0882  0.0607
21880W        W40734   8.712   2.725  16.093  0.0049 -0.2705  0.1096
21881W        W40735   2.837  13.458   3.288 -0.2844  0.0648  0.0781
21882W        W40736   7.746  11.997  14.591 -0.2987 -0.0748  0.0314
21883W        W40737  17.274   5.015  14.700  0.1584  0.1282  0.0547
21884W        W40738  14.911  16.971   1.080  0.2407  0.3678 -0.1906
21885W        W40739   0.703   7.771  14.048 -0.0076  0.0382  0.2176
21886W        W40740  17.392  11.988   1.550  0.1994  0.1083  0.1573
21887W        W40741   5.367  15.586  12.832  0.0127 -0.1615  0.0094
21888W        W40742   2.050   1.679   5.154 -0.2767  0.0316  0.0267
21889W        W40743  17.367   8.611   0.647  0.1915 -0.0987  0.0172
21890W        W40744   7.494  11.189   4.586  0.2684  0.2136 -0.1695
21891W        W40745  13.386   6.898  17.122 -0.1607 -0.0138 -0.0622
21892W        W40746  11.772  10.259   0.725 -0.1771  0.2945 -0.0317
21893W        W40747   6.155  14.359   5.192 -0.0550 -0.2766  0.0995
21894W        W40748  15.186  15.775   4.090  0.2486  0.0706  0.1164
21895W        W40749   2.665  14.344   5.069 -0.2611 -0.1076 -0.1463
21896W        W40750   1.821   2.867  16.522  0.2439 -0.1159 -0.0554
21897W        W40751  12.901   7.242   4.135  0.0625  0.0882 -0.0719
21898W        W40752  17.358   5.135   2.776 -0.0719 -0.0343  0.1889
21899W        W40753  17.573   9.266   4.845 -0.0984  0.0581  0.0956
21900W        W40754  10.616   9.757   0.531 -0.0002 -0.1242 -0.0956
21901W        W40755  14.835   6.441  15.392 -0.2291  0.0164 -0.0274
21902W        W40756   1.170   3.528  14.645 -0.3006 -0.3708 -0.3949
21903W        W40757  14.164  15.777  17.164 -0.1173 -0.0856  0.2189
21904W        W40758  15.777  11.472   2.528  0.0475 -0.0795 -0.0540
21905W        W40759  14.881   6.580  13.376 -0.2102 -0.1688  0.0215
21906W        W40760   5.868   5.903   3.190  0.1511  0.5941 -0.0661
21907W        W40761  14.102  16.607   1.648  0.2479  0.4665  0.0712
21908W        W40762   1.645  10.284  16.922  0.0782  0.0077  0.3964
21909W        W40763   1.354  11.004  12.106 -0.0813  0.0426  0.0862
21910W        W40764  13.269   8.921  16.100  0.2224  0.0476 -0.0540
21911W        W40765  15.910   0.483  12.151 -0.5078  0.0291  0.0702
21912W        W40766   8.153   5.765   0.799  0.0291 -0.0616 -0.0181
21913W        W40767  12.539   7.093   1.150  0.1067  0.1879 -0.1417
21914W        W40768  11.048   7.840  12.299 -0.1159 -0.2781 -0.1610
21915W        W40769  13.114  17.465   4.240  0.1444  0.1677 -0.2220
21916W        W40770  13.471   4.333  17.128  0.1635 -0.0716  0.0666
21917W        W40771  15.593  15.635  11.897 -0.0629  0.0980  0.1625
21918W        W40772   0.716   8.912   0.738  0.0745  0.0946  0.0385
21919W        W40773  10.765  13.035   1.165  0.1511 -0.2421  0.1692
21920W        W40774   1.541  15.132   0.384 -0.0986  0.0759  0.0630
21921W        W40775   9.362  16.179   5.045 -0.1222 -0.0647 -0.1671
21922W        W40776  10.926  16.347  13.140  0.0876  0.0472  0.3691
21923W        W40777   5.371  11.638  14.148  0.1684 -0.1366 -0.0390
21924W        W40778  11.762  15.276   3.273 -0.1143  0.2262 -0.0932
21925W        W40779  10.063   6.457  13.767 -0.1160  0.1494  0.1333
21926W        W40780  17.518   6.654   5.578  0.4166 -0.0280 -0.0348
21927W        W40781   6.939   9.760   1.539 -0.1512 -0.1863 -0.1997
21928W        W40782  10.945   0.442   3.707  0.2452  0.2882  0.2482
21929W        W40783   6.758   3.042   0.775  0.0537  0.0651  0.1321
21930W        W40784   7.008   0.099   4.009  0.0755 -0.1217 -0.1775
21931W        W40785   9.552   4.511   3.202 -0.3360  0.1234 -0.1475
21932W        W40786  14.622  10.760  12.674  0.1165 -0.1269  0.3732
21933W        W40787  13.350   2.729  16.778  0.0538 -0.3902 -0.1300
21934W        W40788  11.974   5.599   4.289  0.0613  0.0448 -0.2013
21935W        W40789   2.257  11.006   2.584 -0.2498  0.1811  0.0031
21936W        W40790   3.485   4.394   2.409 -0.1344 -0.1520  0.4392
21937W        W40791   9.011   1.035   0.144  0.0365  0.4419 -0.1371
21938W        W40792   0.054   7.719  12.219 -0.2519  0.0989  0.2995
21939W        W40793  16.852  16.792   5.747 -0.0333  0.1589  0.0645
21940W        W40794   4.851   8.757   3.538  0.0989  0.2186  0.1179
21941W        W40795   0.392  12.063  14.740 -0.3108  0.1007 -0.3016
21942W        W40796   7.633  17.471  14.887 -0.1486 -0.0647 -0.1357
21943W        W40797  11.277  17.557  17.058  0.1399 -0.0566 -0.2095
21944W        W40798  13.536   4.405   4.492 -0.0496  0.0661  0.1333
21945W        W40799   1.773   4.430   2.345  0.2995 -0.1110 -0.0671
21946W        W40800   5.339   9.222  13.517  0.0496 -0.1690 -0.2618
21947W        W40801   9.876  14.741   2.737 -0.0548  0.2774  0.0338
21948W        W40802   4.722   0.689  13.664  0.0547  0.2467 -0.0084
21949W        W40803   0.683  11.239  13.119 -0.2009  0.0404 -0.2218
21950W        W40804  14.257   8.035  15.032 -0.2643  0.0168  0.0922
21951W        W40805   7.921  15.464  13.773 -0.0272  0.0551 -0.1775
21952W        W40806  17.564  17.071  12.496  0.1220  0.0452 -0.0669
21953W        W40807  16.338  12.735   3.635  0.0534 -0.0798  0.0458
21954W        W40808   7.494   2.379   2.750  0.1436  0.1752 -0.1432
21955W        W40809   5.013  11.499   5.125 -0.2533 -0.0754 -0.0982
21956W        W40810   2.599  14.090  10.982 -0.1711 -0.1052 -0.1468
21957W        W40811   3.415  12.594   1.339  0.1925  0.0988  0.1186
21958W        W40812   7.567  13.876   5.238 -0.3884 -0.0034 -0.0846
21959W        W40813  11.481   0.252  15.932 -0.1514 -0.1548 -0.1458
21960W        W40814  16.800   9.748  15.273  0.1734  0.1224  0.2048
21961W        W40815   9.263  16.601   4.397 -0.1734 -0.1611 -0.0364
21962W        W40816   2.208   4.735   1.315 -0.1449  0.1829 -0.1887
21963W        W40817  15.823   9.910  12.661  0.2633  0.1640 -0.3368
21964W        W40818  10.623   3.644   4.935 -0.3636 -0.5350  0.1718
21965W        W40819   4.818   6.344   5.276  0.0497 -0.0676 -0.1758
21966W        W40820   7.820   9.461  16.448 -0.0430 -0.0163  0.0312
21967W        W40821  11.187   9.723   3.194  0.0099  0.1785  0.0730
21968W        W40822   6.572  12.011   3.385 -0.3039  0.2415 -0.1179
21969W        W40823  15.500  17.168  14.726 -0.0402 -0.1472 -0.0339
21970W        W40824   7.287  17.075   3.743  0.0136 -0.0001  0.0003
21971W        W40825  13.767   8.945  16.065  0.3004  0.1815  0.0805
21972W        W40826   0.189  15.535   0.180 -0.0975 -0.1342 -0.2007
21973W        W40827   6.824  12.566   1.323  0.1458 -0.0309 -0.4989
21974W        W40828  14.951  15.999  15.133  0.2697 -0.0131  0.0366
21975W        W40829   1.461   6.060   5.732 -0.1162 -0.2525 -0.2860
21976W        W40830   1.626  10.919   2.449 -0.0799 -0.4496 -0.0434
21977W        W40831  16.256  17.335  12.861 -0.0230 -0.1320 -0.0466
21978W        W40832  13.174   5.673  12.775  0.1095  0.0488 -0.1785
21979W        W40833  16.519   2.070  11.626  0.3809  0.3580  0.3159
21980W        W40834   1.804   5.497   3.812  0.0302  0.1153 -0.0623
21981W        W40835   9.911   0.893  16.234 -0.1667  0.2049 -0.1810
21982W        W40836   5.595   6.894   2.065  0.2695  0.1434  0.1350
21983W        W40837   6.290  15.602  15.658 -0.1271  0.3852 -0.0634
21984W        W40838  16.807   8.661  12.673  0.2136  0.1751  0.1795
21985W        W40839   2.100  13.324  11.993 -0.1316 -0.0297 -0.0570
21986W        W40840   8.191   3.621  13.111  0.0336  0.0728 -0.1240
21987W        W40841   7.423  14.645   1.378 -0.2085  0.1646  0.4008
21988W        W40842   3.680  10.259   4.896  0.0477 -0.1848  0.0524
21989W        W40843   0.933  16.944   0.439 -0.2628 -0.2261  0.0991
21990W        W40844   3.714  11.137   1.544 -0.0173 -0.2005  0.3126
21991W        W40845   4.977   9.427  13.057  0.2627 -0.2090  0.0582
21992W        W40846  10.714   6.108  12.784  0.0266  0.0447  0.1746
21993W        W40847  14.876   3.814   4.156 -0.5892 -0.0448 -0.2499
21994W        W40848   1.101   0.156   1.116  0.2340 -0.6015 -0.0291
21995W        W40849  12.412  15.112  14.897 -0.0294  0.0737 -0.3401
21996W        W40850   5.570   8.045   1.642  0.0102  0.6558 -0.1921
21997W        W40851   8.672   3.717   1.258 -0.0756  0.1714 -0.0496
21998W        W40852   9.808   6.731  15.915 -0.0960  0.0081 -0.0227
21999W        W40853  14.235   4.025   3.666 -0.0509 -0.3707 -0.0036
22000W        W40854   1.715   0.405   3.672  0.1846  0.0524  0.2343
22001W        W40855   0.612  10.174   4.671 -0.2803  0.1263 -0.1242
22002W        W40856  12.109   3.009  15.015  0.0282  0.0597 -0.1020
22003W        W40857   3.330  10.626  12.655  0.2143  0.1722 -0.0464
22004W        W40858   5.477   5.515  15.006  0.0891 -0.1728  0.2133
22005W        W40859  14.578   8.668  17.088 -0.2757 -0.0011 -0.1692
22006W        W40860  14.072  13.615   4.074 -0.1685 -0.0409 -0.3254
22007W        W40861   7.048   3.256   4.101 -0.2540  0.0895  0.2207
22008W        W40862  10.366   3.004   2.517  0.1243  0.0010 -0.1356
22009W        W40863   3.403   9.493   4.427  0.2232 -0.0283  0.2801
22010W        W40864   0.854   8.440  15.376  0.3919  0.0048  0.1861
22011W        W40865  16.015   4.828  15.572 -0.1271 -0.1217  0.1174
22012W        W40866   8.455   4.684   1.782 -0.1822  0.0030 -0.0947
22013W        W40867  12.700  11.998   1.209 -0.0255  0.2733 -0.0199
22014W        W40868   5.729   6.794  12.986 -0.0714  0.0286  0.4249
22015W        W40869  13.525   1.508  14.440 -0.3646 -0.0958 -0.3662
22016W        W40870   5.333   8.489   1.846  0.0757  0.3969  0.3186
22017W        W40871   8.032  14.936   0.614 -0.4051 -0.1001 -0.0915
22018W        W40872  16.503   1.826  13.324 -0.4141 -0.1825  0.1026
22019W        W40873  16.915   7.884   5.103  0.2116  0.0233  0.0630
22020W        W40874   4.959  10.831   2.805 -0.0074 -0.0357 -0.2698
22021W        W40875  12.048  11.848  13.466 -0.0307  0.2985 -0.2585
22022W        W40876   2.778   3.065   4.305  0.1696  0.4374 -0.0688
22023W        W40877   9.995  17.520  14.498  0.0451  0.2227 -0.0597
22024W        W40878  13.984   0.233   1.503 -0.2577 -0.4490 -0.2407
22025W        W40879   1.253   4.816   0.558  0.2620  0.0193  0.0134
22026W        W40880   1.375   0.332   2.333 -0.0986  0.0101  0.1151
22027W        W40881   9.722   3.211   3.743 -0.2637  0.1150  0.2442
22028W        W40882   9.441   3.744   6.391  0.3521 -0.0068  0.0927
22029W        W40883   0.090   8.498   2.930  0.4659  0.1362 -0.1270
22030W        W40884  13.462   3.337  16.003 -0.0411  0.1358 -0.2301
22031W        W40885   2.635   4.584  13.315 -0.2925 -0.1894  0.1052
22032W        W40886  16.273   9.637   1.913  0.1515 -0.1212  0.2770
22033W        W40887  15.022   6.912   0.433 -0.0835 -0.1147  0.2620
22034W        W40888   0.773  10.793   5.238  0.0175  0.3143  0.0159
22035W        W40889   2.267   7.777   2.829 -0.0523  0.0677 -0.2578
22036W        W40890   4.200  13.620  15.616  0.0495 -0.0381 -0.1245
22037W        W40891   7.861   1.582  13.349 -0.0980  0.1757 -0.1362
22038W        W40892   3.829  12.121   0.719 -0.3312 -0.0392  0.1958
22039W        W40893  13.054   1.827  12.787 -0.1052 -0.0961 -0.2951
22040W        W40894   4.534   4.647   1.061  0.0430 -0.0243  0.2809
22041W        W40895  16.542   7.149   0.019 -0.1656  0.0656  0.0319
22042W        W40896  14.815   6.038   0.397 -0.5524 -0.2886  0.1389
22043W        W40897  12.195  15.935  13.257 -0.3968 -0.1724 -0.1580
22044W        W40898   7.852  14.344   2.752 -0.0842  0.3635 -0.0348
22045W        W40899   4.350  12.443   4.600  0.1171 -0.0133  0.1557
22046W        W40900   5.217  17.329   0.324 -0.0578 -0.0219 -0.1339
22047W        W40901   4.891  13.311  16.223 -0.1229  0.2057  0.1131
22048W        W40902  15.150   1.565   2.355  0.0638  0.1081  0.0050
22049W        W40903   3.237  10.241   3.169 -0.0038  0.1334 -0.0172
22050W        W40904   8.165   7.668  12.536 -0.1232 -0.0131  0.0386
22051W        W40905   4.450   0.055   4.755 -0.0926  0.1570  0.2477
22052W        W40906  12.346  15.707   1.029 -0.2250 -0.0685 -0.2418
22053W        W40907  16.635  11.679   4.346  0.1110 -0.0145 -0.3523
22054W        W40908  11.699   7.563  14.920 -0.0279 -0.0466  0.2732
22055W        W40909  15.494   9.646   0.149  0.0600  0.1695  0.0529
22056W        W40910   2.604   1.871   1.765  0.2201 -0.1703  0.0823
22057W        W40911   7.891   8.588   1.149  0.0436  0.0344 -0.0204
22058W        W40912  16.559  11.311   3.610 -0.0369 -0.0561  0.2130
22059W        W40913  17.502   5.028   3.948  0.2488  0.2056 -0.2411
22060W        W40914   1.944   1.363  12.223  0.2736  0.2796 -0.2050
22061W        W40915  11.781   3.650  15.953 -0.0316 -0.0755  0.2903
22062W        W40916   0.710   2.027   0.815  0.2251  0.0691  0.0204
22063W        W40917  16.232   3.982  15.838  0.1931 -0.0023  0.3848
22064W        W40918   2.787  12.897   3.224  0.0194  0.2064 -0.2798
22065W        W40919  11.142  10.095  13.494  0.2146 -0.2661  0.1596
22066W        W40920  11.817   4.054  16.458 -0.0114  0.1446 -0.4506
22067W        W40921   8.070   2.327  12.898  0.0213  0.2166  0.2400
22068W        W40922   8.854  15.178   4.775 -0.0939 -0.1123 -0.0517
22069W        W40923   6.154   2.937  13.436 -0.2337  0.0460 -0.1629
22070W        W40924   0.203  10.465  15.776 -0.1511 -0.0081 -0.4106
22071W        W40925  16.858  10.105  13.069  0.0798  0.0967 -0.0287
22072W        W40926   5.509  13.005   1.133 -0.0897 -0.1064 -0.1555
22073W        W40927  14.431   4.835  11.440 -0.0836 -0.0639 -0.1254
22074W        W40928   0.373   3.824   0.783  0.1629 -0.1421 -0.1140
22075W        W40929   0.729  14.203   3.067  0.0337  0.0681  0.0985
22076W        W40930  14.471   7.491  14.492  0.2818 -0.2824  0.1103
22077W        W40931   8.782  13.958  16.535 -0.1932 -0.2062 -0.0498
22078W        W40932   3.129   8.123  16.186 -0.1748  0.0205  0.4174
22079W        W40933   6.301   1.044   4.856 -0.1599 -0.1192 -0.1505
22080W        W40934  17.595  14.668   2.874 -0.2729  0.2638 -0.1748
22081W        W40935  12.301  11.770   2.020 -0.2589 -0.0884 -0.0490
22082W        W40936   2.652   1.713  13.420 -0.1494  0.3239 -0.0512
22083W        W40937  12.423  11.164   1.388  0.1917 -0.0808  0.1373
22084W        W40938  15.771  12.920   1.499 -0.1944  0.0014 -0.3216
22085W        W40939   3.671   3.182   4.610  0.0816 -0.1677  0.1548
22086W        W40940   3.021   7.022  15.433 -0.1696  0.0009 -0.3452
22087W        W40941   3.255   7.786   0.357  0.0253  0.0344  0.0689
22088W        W40942   6.968   8.096   4.000  0.2798  0.1737 -0.1285
22089W        W40943  15.167  11.376  15.598  0.1184 -0.4094  0.1973
22090W        W40944   9.877   5.271   2.538  0.1293 -0.1660 -0.0582
22091W        W40945   8.215  13.109   1.440  0.0621  0.2999  0.0159
22092W        W40946   4.606  12.028   2.809 -0.0112  0.1126  0.0448
22093W        W40947   4.809   3.166   4.346 -0.1403  0.0302 -0.2446
22094W        W40948   8.430  16.661   0.257  0.1109  0.1472 -0.2680
22095W        W40949  10.379  16.091   2.779 -0.1051 -0.1149 -0.1367
22096W        W40950   4.605   3.180  17.090  0.0762 -0.1665 -0.2928
22097W        W40951   2.794  16.747  16.290 -0.2848 -0.2222 -0.1615
22098W        W40952  14.079   5.511  14.512 -0.0279  0.2143  0.0447
22099W        W40953   6.023   0.215   2.969  0.1674 -0.0740 -0.0266
22100W        W40954   2.499  16.514  14.535 -0.0092  0.3000 -0.1868
22101W        W40955  10.656   3.152  15.385 -0.2017 -0.0170  0.1875
22102W        W40956   0.231  13.017  16.241 -0.0578 -0.1789 -0.2446
22103W        W40957  11.246  10.792  15.936 -0.4760 -0.0234  0.0614
22104W        W40958   5.952   0.669   3.370 -0.0750 -0.0393  0.3847
22105W        W40959  11.427   8.413   4.775  0.0805 -0.0199  0.1096
22106W        W40960  14.863  10.966  16.601  0.1311 -0.0452  0.1047
22107W        W40961   5.797  16.498   4.561 -0.2661  0.5309 -0.2405
22108W        W40962   8.970  11.769   0.414 -0.1651  0.2283  0.3271
22109W        W40963   7.161  15.979   1.363  0.0246  0.1832  0.0575
22110W        W40964  11.684   4.594  12.590 -0.2119 -0.2046  0.0888
22111W        W40965  14.407  10.195   3.034 -0.1656  0.0449  0.1921
22112W        W40966   5.589  16.303   2.773 -0.3284  0.1033 -0.2080
22113W        W40967  10.915  15.015   3.877 -0.1217  0.1571 -0.0087
22114W        W40968  12.103  10.822  16.999 -0.0185 -0.0088 -0.0302
22115W        W40969  11.858  10.251  16.972 -0.1586 -0.0525 -0.0420
22116W        W40970   0.920  15.915  14.934  0.1616 -0.1762  0.2687
22117W        W40971  13.058  15.914  16.220 -0.1197  0.1549 -0.0401
22118W        W40972   7.639   8.183   3.424  0.1747  0.4860 -0.1236
22119W        W40973   8.487  10.752  15.695  0.1221 -0.3334 -0.0575
22120W        W40974   9.716  11.407  15.274 -0.1012 -0.2115  0.1302
22121W        W40975   5.767   8.800  13.443 -0.0055  0.1707 -0.0020
22122W        W40976   9.215   2.476  14.046 -0.3299  0.0503  0.1173
22123W        W40977   2.483  17.149  16.377 -0.1839  0.1219  0.1406
22124W        W40978   1.218   9.421  12.102 -0.2405 -0.0514  0.1466
22125W        W40979   8.287   6.319   4.067 -0.0595 -0.1013  0.1673
22126W        W40980  14.535  12.070  14.443 -0.0655 -0.0523  0.0510
22127W        W40981   5.106   6.405   3.475  0.1675 -0.1037  0.1112
22128W        W40982  17.548  11.209  15.071 -0.2959  0.0293 -0.1154
22129W        W40983   0.225   8.642   4.716  0.2075  0.3630  0.0418
22130W        W40984   8.924   3.419  16.781  0.2373 -0.1466  0.0286
22131W        W40985  16.847  13.847  14.874 -0.1785 -0.0953 -0.1910
22132W        W40986  14.197   3.011  13.238  0.2987  0.0660 -0.2096
22133W        W40987   2.268   8.414  11.643  0.0633  0.1136 -0.1944
22134W        W40988   8.504  13.610  15.519  0.1218  0.3382 -0.0862
22135W        W40989   6.534   3.963   5.070 -0.1624  0.3686  0.0156
22136W        W40990   7.095  13.415   3.891 -0.3245  0.1034  0.2136
22137W        W40991   8.258   4.900  15.972  0.0820  0.0582  0.0577
22138W        W40992   9.849   3.105   2.879 -0.2424 -0.0726 -0.1306
22139W        W40993  16.834   1.680  12.403 -0.0769 -0.0283 -0.0460
22140W        W40994  13.995   4.743  16.046  0.3355 -0.2832  0.0614
22141W        W40995  10.064   4.067   1.444 -0.0083 -0.0363  0.0126
22142W        W40996  14.689  12.830  16.804  0.0149 -0.0623  0.2029
22143W        W40997  11.368   3.237   5.007  0.0863  0.2236 -0.1345
22144W        W40998   9.280  17.235   0.021  0.0051  0.0819  0.0514
22145W        W40999   5.649   2.458   5.160  0.1060  0.2638  0.5347
22146W        W41000   4.171  12.274   3.494  0.0859 -0.0042  0.1223
22147W        W41001  16.138   7.025  15.069 -0.4050 -0.0779  0.2611
22148W        W41002  15.452  12.155  15.910  0.1115 -0.0616 -0.0316
22149W        W41003   1.033   8.047   1.124  0.1982 -0.0363  0.1560
22150W        W41004   5.011   2.675  13.889  0.1277 -0.0142  0.0440
22151W        W41005   6.468   6.616   1.605  0.0647  0.1879 -0.0766
22152W        W41006  12.388   5.325  13.548  0.1486  0.2506  0.2097
22153W        W41007   5.562   5.739   3.869 -0.0147  0.0459  0.0134
22154W        W41008   4.410   3.971  15.194 -0.1813 -0.1395 -0.1006
22155W        W41009   7.620  15.516   4.299  0.1332  0.2077  0.1067
22156W        W41010  10.123  16.877   3.087 -0.1531 -0.0178  0.3259
22157W        W41011  11.215   9.719  14.481 -0.3654 -0.0812 -0.0743
22158W        W41012   8.699   5.580   1.947  0.3192  0.0005  0.0857
22159W        W41013   0.016  16.191  11.036  0.2531  0.2804  0.0936
22160W        W41014   2.549  17.438  17.206  0.3561 -0.0387 -0.0099
22161W        W41015   2.773  10.075   1.674 -0.0030  0.0324  0.3798
22162W        W41016  13.025  14.765  17.212  0.1612 -0.0038  0.2097
22163W        W41017   3.846  11.363  13.215  0.0107 -0.4515  0.2658
22164W        W41018   5.433  17.419   1.341 -0.2029  0.0001  0.3218
22165W        W41019   0.983   8.549  16.508 -0.1672  0.2286  0.1577
22166W        W41020  16.130  15.914  12.648  0.0078  0.0124 -0.1397
22167W        W41021   5.676  13.842   5.019 -0.3734  0.1581  0.1109
22168W        W41022  12.034   2.916  12.731 -0.1039  0.0902  0.0495
22169W        W41023  15.266  15.777  14.819  0.0813 -0.2936  0.1496
22170W        W41024   1.451   9.215  17.046  0.1160 -0.1389 -0.1145
22171W        W41025  16.207   1.529   1.410  0.1805  0.0891 -0.0930
22172W        W41026  11.935   1.182   4.457 -0.2849 -0.0914 -0.1190
22173W        W41027  16.693   2.780   4.840  0.0392 -0.0378 -0.2095
22174W        W41028   0.318  15.363  16.917 -0.2116  0.1457 -0.0197
22175W        W41029  11.061   2.650   1.456 -0.0881 -0.1802  0.2860
22176W        W41030   0.734  16.777   0.032  0.2287  0.2281 -0.0225
22177W        W41031  12.515  13.967   1.848  0.0688  0.4078  0.0236
22178W        W41032  10.932   3.019  12.967 -0.0091 -0.0684  0.1218
22179W        W41033  11.988  13.686  14.291  0.0407  0.1819 -0.2609
22180W        W41034   1.330  12.142   2.030 -0.0798  0.6005 -0.1120
22181W        W41035  12.728   4.509   4.843  0.1810  0.1373 -0.1176
22182W        W41036  10.453  13.087  13.073 -0.1132  0.3113  0.0252
22183W        W41037   2.046   7.503   1.018 -0.2210 -0.0293 -0.0828
22184W        W41038  11.212   5.547   1.864 -0.0427 -0.1626  0.0501
22185W        W41039  11.035  15.992   3.402 -0.3834 -0.2117  0.2229
22186W        W41040   4.591   7.061  16.968 -0.0460 -0.0683  0.1696
22187W        W41041  17.269  14.347   4.819 -0.0043 -0.1247 -0.0189
22188W        W41042  15.424   1.067  12.631 -0.1848 -0.1330  0.1244
22189W        W41043  10.659   8.311   1.007 -0.0792  0.1724 -0.1603
22190W        W41044   7.944  16.640   2.826 -0.1583  0.1835  0.0753
22191W        W41045   6.411   8.488  16.270 -0.0140  0.2532  0.1400
22192W        W41046  12.261   2.729   3.906 -0.1112  0.2635 -0.2124
22193W        W41047   5.768   4.684  16.278  0.1527  0.2173 -0.0740
22194W        W41048   9.605  16.084  12.284  0.5227  0.0506 -0.0796
22195W        W41049  17.540   7.296   1.592 -0.1266  0.1155  0.1271
22196W        W41050  14.720   6.932  12.898 -0.1179 -0.2450 -0.0182
22197W        W41051  14.783   9.892   2.781 -0.3044 -0.1610 -0.2310
22198W        W41052   8.884   8.671  16.222 -0.0331  0.0585  0.3065
22199W        W41053  12.216   3.225   0.883 -0.1466 -0.1532 -0.2366
22200W        W41054  11.586  11.171   1.558 -0.0491  0.0277  0.0144
22201W        W41055   1.635   4.880   3.987 -0.0416  0.0250 -0.0610
22202W        W41056   0.521   6.233   0.639  0.4639 -0.1248  0.1238
22203W        W41057   4.133  17.279  15.788  0.0911 -0.3649 -0.2233
22204W        W41058  10.037   6.038  16.199 -0.4662  0.1657  0.1078
22205W        W41059   8.817  15.848   1.026 -0.1908  0.1300 -0.3072
22206W        W41060  10.517   1.063   2.679  0.0623  0.1991  0.2834
22207W        W41061  11.985   7.067   5.629  0.0026  0.1846  0.4646
22208W        W41062   3.104   4.508   4.243 -0.0861 -0.0183 -0.0406
22209W        W41063  16.465   8.462  12.307  0.1416 -0.2213  0.0816
22210W        W41064   3.322   7.096  16.267 -0.0952  0.0508  0.2132
22211W        W41065  16.600   6.586  13.921 -0.0286  0.1071  0.2775
22212W        W41066   1.180   0.204  12.865 -0.2662 -0.0270 -0.0635
22213W        W41067   5.426   9.990   0.403  0.3027 -0.1861 -0.2042
22214W        W41068  16.434   8.716  16.285  0.0242  0.0957  0.0677
22215W        W41069   3.076   8.229   3.256  0.1331 -0.0958 -0.0292
22216W        W41070   1.883   0.712   4.430  0.0448 -0.0396 -0.1023
22217W        W41071  10.604   2.176  16.432 -0.0924  0.2798 -0.0275
22218W        W41072   3.002   1.410  15.409 -0.1430  0.0273 -0.3092
22219W        W41073   6.065  13.794  16.163 -0.2089  0.0852 -0.1483
22220W        W41074   4.550   7.971  11.723 -0.2453  0.0941  0.1644
22221W        W41075   6.722   9.849   1.047 -0.1199  0.1267 -0.1019
22222W        W41076  17.241   6.838   1.209 -0.0469 -0.0610  0.0800
22223W        W41077   1.840   3.613   3.591  0.1234 -0.1427 -0.1836
22224W        W41078   3.629   8.663  14.959 -0.2290  0.1009  0.0064
22225W        W41079   0.426  10.838  16.108 -0.2191 -0.1450  0.1264
22226W        W41080  14.749   7.693  13.605 -0.0964  0.3516 -0.0511
22227W        W41081   3.695   6.060  12.006 -0.1210  0.0076 -0.0439
22228W        W41082  16.284  13.717   0.008  0.1989 -0.2186  0.1865
22229W        W41083   5.907   4.763  14.372  0.0417  0.0943 -0.1304
22230W        W41084  10.999   0.230  16.272  0.0572 -0.1918  0.1901
22231W        W41085   2.460   5.427  16.914  0.0066 -0.1120  0.3094
22232W        W41086   9.719   3.992   3.356 -0.1398 -0.1351  0.2475
22233W        W41087  10.354   1.311  14.950 -0.1284 -0.2791 -0.1392
22234W        W41088   7.297   2.688   1.914  0.1338  0.2224 -0.2166
22235W        W41089  16.672   9.840  12.533 -0.3461 -0.2457 -0.1838
22236W        W41090  12.720   3.673   1.707 -0.0517 -0.1437  0.0791
22237W        W41091  12.838  11.408  13.882 -0.0811 -0.0328  0.3035
22238W        W41092   3.848   4.991  13.040 -0.1020 -0.4201 -0.0316
22239W        W41093   9.899   9.430  13.482  0.0411 -0.0154 -0.1651
22240W        W41094   5.634   3.696  11.443  0.2028  0.0826  0.2580
22241W        W41095  14.774   4.047  14.783  0.0910  0.1713 -0.1193
22242W        W41096   2.479   9.410  13.023 -0.0433 -0.1531 -0.3501
22243W        W41097   6.604   4.873  13.616 -0.0887  0.0408  0.2730
22244W        W41098   8.724   4.251  17.221 -0.1850  0.1063 -0.3492
22245W        W41099  10.566  16.296   1.141 -0.0916 -0.2293  0.3093
22246W        W41100  13.727   8.863  11.878 -0.1319  0.3571  0.2453
22247W        W41101   6.415  14.939   2.900  0.0279 -0.0292 -0.0402
22248W        W41102   9.973  15.516  15.157  0.0728  0.5463  0.0687
22249W        W41103  17.487   6.257   4.445  0.0224  0.0438 -0.0820
22250W        W41104   5.230  10.205  16.747  0.1553 -0.4287 -0.0191
22251W        W41105   5.029   5.114  17.053 -0.1025 -0.0324  0.0077
22252W        W41106   2.239   5.868  16.716 -0.0495 -0.2352  0.2245
22253W        W41107   5.356   4.960  15.738 -0.1341  0.1648 -0.1547
22254W        W41108  16.532  10.863   3.831  0.1364 -0.3678 -0.0810
22255W        W41109  15.134   0.905  16.760  0.1858 -0.3064  0.1895
22256W        W41110   0.415   4.944  12.948  0.0417  0.1634  0.0309
22257W        W41111   8.843  14.768  13.592 -0.0496 -0.2100 -0.1860
22258W        W41112  13.178   3.913  12.412 -0.1284 -0.2137  0.1712
22259W        W41113  13.279  12.277   2.862 -0.1209  0.0524 -0.0628
22260W        W41114   8.113  11.161   1.906  0.0782  0.2223  0.0697
22261W        W41115   4.663   7.768  14.482 -0.1808 -0.0117  0.0664
22262W        W41116  12.941   2.130   1.943 -0.2134 -0.0433  0.0250
22263W        W41117  11.116   2.446  16.106 -0.1012 -0.0508  0.0085
22264W        W41118  16.526   1.271   3.228 -0.3775  0.3304 -0.2621
22265W        W41119  13.297  15.886  12.700  0.0048 -0.0687  0.2037
22266W        W41120  10.993   3.128  15.730  0.0290  0.1403 -0.3295
22267W        W41121  13.292   3.409  12.328 -0.3663  0.0397  0.0144
22268W        W41122  14.412   6.686  17.143  0.1022 -0.1045 -0.0394
22269W        W41123  11.535  15.955   1.998  0.3859  0.1717 -0.1115
22270W        W41124   5.469   3.140  12.758 -0.0509 -0.0519 -0.0769
22271W        W41125   9.816  12.289   4.275  0.1955 -0.0084 -0.1206
22272W        W41126  14.643   1.867  15.267 -0.1275 -0.1724  0.3466
22273W        W41127   3.495   5.963   4.497 -0.0734 -0.1755 -0.0185
22274W        W41128  15.866  10.594   5.131 -0.2432  0.1440 -0.0214
22275W        W41129  12.433   7.761   2.593  0.0571  0.1919  0.0037
22276W        W41130   1.057  17.253  14.738 -0.1923  0.3858  0.0400
22277W        W41131  17.259   0.759  15.753 -0.2337  0.1749  0.1515
22278W        W41132  16.542   5.413   4.157 -0.2074 -0.2219  0.5702
22279W        W41133   6.623   7.042   3.124  0.1115 -0.0503 -0.0024
22280W        W41134  12.143   2.641   4.611 -0.0663 -0.0074 -0.0190
22281W        W41135   6.133   8.763   1.586  0.1539 -0.0531 -0.2303
22282W        W41136   3.923   9.602   3.201  0.2196 -0.0052 -0.2211
22283W        W41137  12.109   6.253   0.023 -0.0658 -0.0100 -0.1741
22284W        W41138   3.504   0.431  12.874 -0.1407 -0.1530  0.0102
22285W        W41139   2.632   5.140   2.149 -0.1039 -0.1015  0.0795
22286W        W41140  16.146  10.712  13.078 -0.0400 -0.1043 -0.3084
22287W        W41141  14.750  16.544  15.718 -0.2983  0.0141 -0.1397
22288W        W41142  11.115   2.907  14.736  0.6343 -0.0872 -0.2469
22289W        W41143  13.927   5.340  12.782 -0.1409  0.1199  0.0972
22290W        W41144  12.832  11.400  14.406 -0.3636 -0.0869  0.0169
22291W        W41145  13.804   6.908  14.269 -0.4913 -0.0418 -0.0778
22292W        W41146  14.537   3.358   0.256  0.3234 -0.1151 -0.0662
22293W        W41147   7.426  16.298   2.489  0.0762 -0.2186  0.0106
22294W        W41148   6.231  12.456   2.118  0.1616 -0.2065 -0.0753
22295W        W41149   2.698   3.919  15.813 -0.2171  0.1896 -0.0655
22296W        W41150  13.522   3.917   4.493  0.0232  0.0824 -0.1322
22297W        W41151  14.158   9.920  12.095  0.0914  0.4575  0.4801
22298W        W41152   4.034  12.800  17.112  0.0783  0.4777  0.1382
22299W        W41153  15.662   6.636  12.996 -0.1427  0.0757  0.1201
22300W        W41154   8.023  12.654  13.667 -0.0487  0.0262 -0.0431
22301W        W41155   0.113   0.829  15.925 -0.1528 -0.2817  0.0814
22302W        W41156   4.675   2.900   3.002  0.0760  0.0442 -0.0905
22303W        W41157  13.369   0.862  15.811  0.1582  0.0539  0.1533
22304W        W41158  16.498   3.779   4.604  0.0005  0.1515  0.0525
22305W        W41159  14.222  15.441  14.129 -0.0090  0.1765  0.0356
22306W        W41160   2.975   0.398   3.658 -0.4491 -0.2028  0.1528
22307W        W41161  15.945   8.954  14.136  0.2381 -0.3470 -0.1563
22308W        W41162   2.914  10.210   2.347 -0.0255  0.1186 -0.2760
22309W        W41163   3.137   1.273   1.649 -0.2235  0.1634 -0.3583
22310W        W41164   4.619   3.662   2.372  0.4834  0.1658  0.0008
22311W        W41165   8.976  15.736   4.054 -0.2723 -0.0434 -0.1766
22312W        W41166  16.090  17.055   0.797  0.0511  0.0746  0.1519
22313W        W41167   5.547   7.787  11.908  0.2033 -0.0557 -0.0374
22314W        W41168  14.118  13.166   0.611  0.1825  0.2885  0.2056
22315W        W41169  12.076   7.550   0.814  0.1564 -0.0309  0.0799
22316W        W41170   7.122   6.978  16.828 -0.1465  0.2713  0.2951
22317W        W41171   3.782  15.512   1.221  0.0356 -0.2320 -0.0605
22318W        W41172  10.200   3.782  15.915 -0.1231  0.0090 -0.0170
22319W        W41173   0.009  17.485  16.626  0.2148  0.0218  0.1529
22320W        W41174   1.803  13.986  15.615  0.0738 -0.3148  0.1133
22321W        W41175  17.425  13.349  16.365 -0.2109 -0.1835  0.1486
22322W        W41176  14.878  10.495  13.383 -0.0013  0.4249  0.0975
22323W        W41177  17.281   6.562   3.968  0.0167 -0.0822 -0.0048
22324W        W41178  14.806   9.054  14.178 -0.0367  0.1606  0.0112
22325W        W41179  11.521  15.497   2.859 -0.0067  0.0311 -0.2633
22326W        W41180  11.586  11.608   2.934  0.2451 -0.1144  0.0902
22327W        W41181  16.010  12.747   0.936 -0.1700  0.0299 -0.4864
22328W        W41182   6.196  13.273   0.630 -0.1357  0.2929  0.0181
22329W        W41183  14.347  16.889   3.134 -0.2175 -0.0285  0.1161
22330W        W41184   3.301   1.884   0.206  0.0458  0.2427  0.1493
22331W        W41185   8.439   1.524   1.267 -0.0111  0.1424  0.2024
22332W        W41186  10.679   3.612  16.791  0.2506  0.0325  0.1096
22333W        W41187  10.237   9.905   3.622 -0.1047 -0.1137  0.0235
22334W        W41188   4.386   4.531  15.301 -0.2604 -0.2008  0.2378
22335W        W41189  16.058  17.544   4.143  0.1730  0.0741 -0.1482
22336W        W41190  17.033   2.088   3.163  0.0739  0.2080 -0.0433
22337W        W41191  13.141   0.410   4.615  0.0900 -0.0508 -0.0002
22338W        W41192   2.627  15.150   0.265  0.2656  0.0153  0.1830
22339W        W41193  10.840  15.400   2.112 -0.1704 -0.1305  0.0933
22340W        W41194  12.495  17.103   1.074 -0.0907 -0.1401  0.0150
22341W        W41195  16.752   2.606  14.880  0.3073 -0.0279  0.0919
22342W        W41196  10.764  17.207   3.534  0.5299 -0.4122  0.1414
22343W        W41197   5.755   0.957   0.584 -0.1465  0.0840 -0.2744
22344W        W41198   3.708   3.583  13.029 -0.2174 -0.3898 -0.0553
22345W        W41199  10.594   3.693   1.443 -0.1950  0.2000  0.0096
22346W        W41200   6.540   9.421  15.618  0.2041 -0.2479  0.1186
22347W        W41201   0.613   0.715   4.348 -0.1414  0.1069  0.0436
22348W        W41202  10.650  17.475   0.367  0.0288  0.0654  0.0517
22349W        W41203  14.309   1.876  16.576  0.2801 -0.1960  0.0834
22350W        W41204   3.960   5.624   2.271 -0.0276  0.1496  0.0979
22351W        W41205   5.104  15.901  17.214  0.0040 -0.3052 -0.0352
22352W        W41206   5.403   9.220   3.970 -0.1422 -0.1672 -0.0191
22353W        W41207   0.874  12.021  17.012 -0.1742 -0.2367  0.0307
22354W        W41208   0.003   5.129   0.461 -0.1861 -0.1209  0.0465
22355W        W41209   1.276  12.789  13.709 -0.1095  0.0878  0.0042
22356W        W41210   2.778   7.949  13.822  0.4424  0.5380  0.0153
22357W        W41211   9.736   6.042   4.973  0.0608  0.0769  0.0554
22358W        W41212   8.314   6.658   2.748  0.1387 -0.0811  0.0497
22359W        W41213  17.423   5.689   5.109  0.0049 -0.0396  0.0924
22360W        W41214   2.675  13.834  14.169 -0.1665  0.2639 -0.0971
22361W        W41215   3.046   9.463   3.392  0.0721  0.3061  0.5112
22362W        W41216  15.525   5.289   4.917 -0.2895 -0.1448  0.0517
22363W        W41217  16.429   0.632  12.325  0.1436  0.1388 -0.1545
22364W        W41218  14.270   2.038  13.661  0.1393  0.1024  0.1098
22365W        W41219   4.854  12.050  16.434 -0.0484  0.1148 -0.0384
22366W        W41220  11.318  15.945  12.400 -0.2450 -0.0046 -0.0309
22367W        W41221  16.641  10.209   5.328 -0.0823  0.1237  0.2007
22368W        W41222  16.367   5.821   4.487 -0.1287  0.0083 -0.0616
22369W        W41223  10.614   1.892   0.125  0.1601 -0.1544  0.0372
22370W        W41224  13.802  17.371   1.697 -0.1435  0.4445 -0.1341
22371W        W41225   8.291   8.803   3.870  0.1618  0.2079  0.2662
22372W        W41226   9.381   0.941  17.032  0.1785 -0.3024 -0.3262
22373W        W41227   0.457   5.959  14.656 -0.0572  0.1257 -0.1296
22374W        W41228   5.929   2.080   4.862  0.0007  0.0513 -0.1608
22375W        W41229   7.210  13.636   4.909 -0.1242  0.3171 -0.3622
22376W        W41230   4.807  16.369   0.777  0.1702  0.1121 -0.4010
22377W        W41231   9.230   9.184  16.338  0.2118 -0.1118 -0.0969
22378W        W41232   9.225   7.250  13.826  0.3006  0.0370 -0.0942
22379W        W41233   6.148  14.519  14.184  0.1227  0.3016 -0.0691
22380W        W41234  12.278  15.059   3.939 -0.0438 -0.0599  0.4142
22381W        W41235   8.841   2.003  15.395  0.1293  0.0512  0.0959
22382W        W41236  16.782   5.929  14.548  0.0747  0.1558  0.2398
22383W        W41237   5.598   3.426   2.115  0.1830  0.4770 -0.2085
22384W        W41238   8.550  14.706  15.291 -0.1574 -0.0817 -0.0902
22385W        W41239   3.019  14.560  16.700 -0.2294 -0.4855 -0.3040
22386W        W41240   2.121   5.214  11.992 -0.2507 -0.1658  0.1751
22387W        W41241   7.370   3.876   2.529  0.1026  0.0905  0.1624
22388W        W41242  13.032  11.924  13.977 -0.3374 -0.1277 -0.1601
22389W        W41243   9.871   0.176   4.828 -0.1193 -0.0269 -0.0009
22390W        W41244  10.731  17.195  14.003  0.2318  0.3085 -0.2595
22391W        W41245  14.027   5.344   1.995 -0.2885 -0.2302  0.2862
22392W        W41246   5.542   2.027   0.509 -0.1121  0.0087  0.1086
22393W        W41247   4.775   3.312   1.696 -0.0849  0.0745 -0.2870
22394W        W41248  15.057   2.432   2.676  0.1943  0.2844 -0.0460
22395W        W41249  11.932   1.217  12.828  0.1256 -0.0607 -0.0058
22396W        W41250   0.130   2.179  14.712  0.4030  0.1495  0.1116
22397W        W41251   5.062   2.922  16.915  0.2196  0.0322  0.0275
22398W        W41252   8.842  13.742   2.520 -0.1154 -0.2945  0.0561
22399W        W41253   6.094   3.993   4.253  0.0312  0.1897 -0.2796
22400W        W41254   6.615   6.721  13.294  0.0296  0.2806  0.0697
22401W        W41255   7.905   8.862  15.898 -0.2085  0.0992 -0.2932
22402W        W41256  14.036   0.680  15.277  0.1250 -0.2547 -0.1263
22403W        W41257  17.004   1.209   2.494  0.1271  0.0070 -0.1795
22404W        W41258  12.891  11.689   3.464  0.0705  0.2968  0.1278
22405W        W41259  13.343   5.352  13.659 -0.1293  0.1341  0.3179
22406W        W41260   8.300   4.769  13.932 -0.1774  0.2358  0.0944
22407W        W41261  12.896   7.165   3.617  0.5741  0.3613  0.4206
22408W        W41262   2.941   8.340  14.128  0.1219  0.1580 -0.3187
22409W        W41263   3.117  16.105  15.986 -0.0249 -0.1704 -0.0314
22410W        W41264   2.197  16.596   1.375  0.3750 -0.3476 -0.0324
22411W        W41265  12.047   3.896   5.358  0.1466 -0.2232 -0.0294
22412W        W41266   4.972  14.069  17.174  0.0370  0.0833 -0.1656
22413W        W41267  13.546  12.258   2.430 -0.0242 -0.0793 -0.0133
22414W        W41268   7.861   1.221  14.559  0.0356 -0.0759 -0.0988
22415W        W41269   2.216  16.262   1.835  0.2208  0.0823 -0.0439
22416W        W41270   1.337  11.106  16.317  0.0768  0.1701 -0.3611
22417W        W41271  13.777  10.391  15.577  0.0280  0.0033  0.1001
22418W        W41272  10.221   9.943   3.003  0.1942  0.1511 -0.1199
22419W        W41273  11.967   1.503  15.543 -0.0892 -0.0125  0.0659
22420W        W41274  13.485  11.015   2.362 -0.0320  0.2903 -0.0174
22421W        W41275  10.489  11.783   4.564  0.0751 -0.0846  0.1317
22422W        W41276  11.151  15.302  14.613  0.0167 -0.1287 -0.3355
22423W        W41277   8.536  15.437  13.182 -0.0173  0.1189  0.0880
22424W        W41278   5.607  12.660   5.131  0.1585 -0.0232 -0.2859
22425W        W41279  12.007  16.666   4.114 -0.0653  0.1010  0.0711
22426W        W41280   7.092  17.283   2.325 -0.0986 -0.0309  0.3986
22427W        W41281   3.382  16.338   0.578 -0.0530  0.0119  0.0873
22428W        W41282   1.074  16.025   2.011 -0.1876  0.0554  0.1142
22429W        W41283   3.062   3.117   2.344 -0.4280 -0.1040  0.0430
22430W        W41284   8.303   3.520   1.583  0.0040  0.0682  0.0818
22431W        W41285   2.389   7.204   2.954  0.2487  0.4222 -0.1624
22432W        W41286  10.741   9.749  14.273 -0.0855  0.0056 -0.1873
22433W        W41287   9.498   6.428  12.407 -0.0128 -0.1266 -0.1069
22434W        W41288  15.466  15.278  13.926 -0.0250 -0.4221 -0.1281
22435W        W41289   8.873  13.392   4.117  0.3081  0.1695 -0.0111
22436W        W41290  17.300  14.363  16.714 -0.1213 -0.0017  0.0057
22437W        W41291  15.671  13.117   1.004 -0.0694  0.2005  0.0523
22438W        W41292   1.475  15.833  11.754  0.1440 -0.2249  0.0840
22439W        W41293  10.882  11.139   3.364 -0.3009 -0.1455 -0.1671
22440W        W41294  14.524   2.500   3.422  0.1566  0.2176 -0.1182
22441W        W41295   8.878  10.017   3.544 -0.3908  0.0317  0.0704
22442W        W41296  15.014   9.861  13.656  0.0108  0.0352  0.0441
22443W        W41297  13.276   2.730  12.725 -0.1932  0.1731 -0.0820
22444W        W41298   3.985  10.607   5.417 -0.1116 -0.0872  0.2411
22445W        W41299   1.309   0.994   0.740  0.0997  0.2345  0.0441
22446W        W41300   5.216  10.512   5.172 -0.2628  0.0550  0.0813
22447W        W41301  13.069   4.619  14.619 -0.0146 -0.2374 -0.0111
22448W        W41302   9.325   3.733  15.552 -0.0996 -0.0167 -0.1330
22449W        W41303  13.998   3.181   3.335 -0.0338 -0.2484  0.1337
22450W        W41304  16.822   6.693  13.383 -0.1262  0.1839 -0.1656
22451W        W41305   9.072  15.812   0.136  0.0853  0.0245 -0.3193
22452W        W41306  15.348   7.171  14.282  0.2855  0.3340  0.1555
22453W        W41307   0.827   1.082   0.641 -0.0226  0.0477  0.3348
22454W        W41308   7.790  14.763   2.974  0.0738 -0.1324  0.2150
22455W        W41309   1.563  10.236  16.396  0.2697  0.1720  0.3339
22456W        W41310   5.893   0.315  15.746 -0.0457  0.0499  0.1637
22457W        W41311   8.939   4.255  12.415 -0.1193  0.0991 -0.4033
22458W        W41312   6.118   4.069   0.046 -0.1882 -0.0261 -0.2563
22459W        W41313   9.049  12.047  13.844  0.1305  0.0482  0.1355
22460W        W41314   9.092   4.778  14.906  0.1814  0.0350  0.1257
22461W        W41315   1.902  11.676  16.854 -0.2312  0.0343 -0.1355
22462W        W41316   6.197  16.628  12.091 -0.0337  0.0504 -0.1351
22463W        W41317  12.802   0.486   2.239  0.4150  0.1879 -0.1666
22464W        W41318  11.637  16.867  13.412 -0.0632 -0.0834 -0.0727
22465W        W41319  12.711  14.971   4.645  0.2003 -0.0225 -0.1257
22466W        W41320   6.544   2.128   2.456  0.0536  0.0751  0.2042
22467W        W41321   6.532   0.628  15.999 -0.1095 -0.2388  0.0528
22468W        W41322  12.272   0.965  12.519 -0.1629  0.1688 -0.3442
22469W        W41323  14.539   1.218   3.941 -0.3739 -0.1737 -0.0907
22470W        W41324   3.774  12.554   2.540 -0.2438 -0.1176 -0.0375
22471W        W41325  12.882   0.868  15.624  0.0805  0.2167 -0.1051
22472W        W41326   0.740  15.715  16.526 -0.0025  0.1579 -0.0495
22473W        W41327  16.441   5.430  14.099  0.1193  0.0908 -0.1989
22474W        W41328  16.132  11.344   2.114 -0.3990  0.3766 -0.1105
22475W        W41329   1.503  15.532  15.416  0.0800 -0.0913  0.0893
22476W        W41330   0.475   5.737   3.685 -0.2979 -0.3588 -0.0341
22477W        W41331   6.700   9.062   4.218 -0.3223 -0.0994  0.1278
22478W        W41332  10.703   0.401   1.613  0.1610 -0.1102  0.0341
22479W        W41333  14.757   0.703  15.113 -0.3243 -0.1606  0.0088
22480W        W41334   2.800   6.620  13.101  0.3379  0.2274  0.1221
22481W        W41335   4.718  15.512   4.782 -0.1211  0.1023 -0.2517
22482W        W41336   7.243   1.626   2.456 -0.1108  0.2298 -0.0439
22483W        W41337   1.908   2.820   1.966  0.0669  0.2369 -0.3506
22484W        W41338   0.792   1.128  14.871  0.0691 -0.0879 -0.1566
22485W        W41339  11.346  12.939  12.977 -0.2039  0.0052 -0.0663
22486W        W41340  17.059   1.175   4.424 -0.1856  0.1400 -0.0268
22487W        W41341  11.195  12.816  14.314  0.1020  0.0875  0.2632
22488W        W41342  13.365   9.735   2.656 -0.1021  0.0203 -0.1702
22489W        W41343   7.380  10.039  13.478  0.1447  0.0374 -0.1432
22490W        W41344  15.996  14.730   1.902 -0.2676  0.1775 -0.3786
22491W        W41345  17.304  14.975  12.541 -0.0322  0.0032  0.1958
22492W        W41346  12.236   4.209  15.970  0.2601  0.0507  0.0944
22493W        W41347   1.402   6.809  16.023 -0.0362  0.2930  0.0445
22494W        W41348   7.825   5.542   3.167 -0.0311  0.1985  0.0529
22495W        W41349  17.501  16.877   4.389  0.1213 -0.0923 -0.3684
22496W        W41350  14.777   1.999  13.450  0.1833  0.0652  0.2073
22497W        W41351   2.837  17.559   3.762 -0.2637  0.0049  0.0314
22498W        W41352   8.887   8.211  14.986  0.0948 -0.1317  0.1322
22499W        W41353   7.833   6.472  14.163  0.1776 -0.0688  0.0565
22500W        W41354   7.703  12.121  15.568 -0.1461 -0.0410 -0.1928
22501W        W41355   9.122   3.539   5.364  0.0562 -0.1046 -0.2964
22502W        W41356  14.659  13.796   0.387 -0.3126 -0.0490  0.0812
22503W        W41357   9.540   3.294   2.413 -0.5897  0.0169  0.0973
22504W        W41358   4.668   3.164  15.701  0.2049 -0.0601  0.0670
22505W        W41359   4.028   1.660  13.892  0.2549  0.0300  0.1199
22506W        W41360   3.778  10.041  13.015  0.1102  0.1149  0.1097
22507W        W41361  11.241   1.189  13.807  0.0080  0.1283 -0.0339
22508W        W41362  13.781  10.859   4.721  0.2541  0.2641  0.0604
22509W        W41363   6.016  16.522   3.103 -0.2046 -0.5225  0.1311
22510W        W41364  10.310  16.417   4.635  0.1696  0.0129  0.0326
22511W        W41365   6.075   4.853   0.320 -0.0441 -0.2660  0.0660
22512W        W41366  13.790   3.018  14.340  0.0760 -0.0283  0.1820
22513W        W41367   3.635   5.594   1.863 -0.1193  0.2185 -0.0481
22514W        W41368  13.792  16.550  15.632 -0.0322  0.0176  0.0047
22515W        W41369  10.648  12.946   3.111  0.1187  0.1064 -0.2433
22516W        W41370  17.071  12.535   0.839 -0.1168 -0.2339  0.1032
22517W        W41371   6.854   9.512   4.220 -0.0698  0.0914 -0.1168
22518W        W41372   4.927   3.736  15.701  0.0184  0.0074  0.4154
22519W        W41373   7.773   5.292  15.589  0.2009 -0.1000  0.3109
22520W        W41374  10.073  13.852   3.332  0.2308 -0.1199  0.3417
22521W        W41375   3.845  10.875   3.470  0.0528  0.2527  0.3671
22522W        W41376  10.591   1.619  15.752 -0.1406 -0.0164 -0.2683
22523W        W41377   3.149   5.878   4.165  0.2134  0.0278 -0.1083
22524W        W41378   4.308   3.280   4.186 -0.0355  0.0891  0.0231
22525W        W41379   1.697  10.140   4.494 -0.4463  0.1308 -0.1339
22526W        W41380   0.400  11.472   4.677  0.1481  0.0958  0.0587
22527W        W41381   8.902  17.328  14.106 -0.1888  0.1117 -0.0083
22528W        W41382   7.992   6.769   1.299  0.2319 -0.1327  0.1588
22529W        W41383  14.289  10.647  16.353  0.0265 -0.1088  0.1050
22530W        W41384  16.682   4.800  11.225 -0.2819 -0.1394 -0.1013
22531W        W41385  13.944  15.282  13.372 -0.0608 -0.2686 -0.0443
22532W        W41386   3.264  13.838  13.593  0.2243  0.0311  0.0806
22533W        W41387  14.656   3.863  13.477  0.2982 -0.5388  0.0657
22534W        W41388   1.821  11.185  14.429 -0.0761  0.3686 -0.2543
22535W        W41389  11.150  16.804  13.201  0.0303 -0.0595  0.0365
22536W        W41390  10.452  13.838  14.900  0.0867  0.0695  0.2310
22537W        W41391  16.691   6.659   4.503  0.0204  0.0916 -0.0027
22538W        W41392   7.420  16.342   4.206 -0.1112  0.0655 -0.1361
22539W        W41393   3.753   9.665  15.543 -0.3502  0.2007  0.0845
22540W        W41394  14.467  16.426   4.267 -0.0440 -0.2366 -0.1773
22541W        W41395   3.017   8.260  16.703 -0.1747 -0.0111 -0.1833
22542W        W41396  17.024   3.071   1.159 -0.0035 -0.3013 -0.0398
22543W        W41397   9.097   7.037  15.118  0.1137 -0.1901 -0.0953
22544W        W41398   9.558  10.155   2.406 -0.1315  0.4895  0.3626
22545W        W41399   3.832  14.398   3.593  0.0825  0.0622  0.0455
22546W        W41400   6.642  10.549  13.489 -0.0529 -0.3304 -0.2799
22547W        W41401   2.733   6.394  15.923  0.0107  0.2362  0.1835
22548W        W41402  16.197   5.349   3.704  0.0183 -0.2087 -0.3857
22549W        W41403   3.732   1.504   1.955 -0.1028  0.0683 -0.1970
22550W        W41404  14.399  16.165  15.715  0.1335  0.0978 -0.0520
22551W        W41405   2.000   1.722  16.704  0.0008  0.2368  0.0255
22552W        W41406   5.617   9.023   1.802 -0.1369 -0.0701 -0.0754
22553W        W41407   5.291  12.312  12.769  0.3640 -0.0065 -0.3938
22554W        W41408  12.979   6.904   0.290 -0.5070  0.0588 -0.6198
22555W        W41409   7.501  11.392   1.707 -0.1405 -0.1151 -0.2484
22556W        W41410   4.961  17.111  14.058 -0.1221 -0.0749  0.1697
22557W        W41411   3.678   4.043  12.783  0.0012 -0.0947  0.1896
22558W        W41412   3.013  11.693  15.008 -0.1690 -0.1468  0.0347
22559W        W41413  15.000  16.364   4.771  0.3884 -0.0652 -0.3475
22560W        W41414  17.137   7.648  16.422 -0.1211  0.0830  0.1872
22561W        W41415   7.205   0.798  16.827  0.1153  0.1634 -0.1557
22562W        W41416   0.004   8.076  15.146 -0.2915  0.2390 -0.1002
22563W        W41417  16.698   8.023   4.266 -0.0799 -0.1312 -0.1515
22564W        W41418   3.022  16.354  14.661  0.1833 -0.2118  0.1002
22565W        W41419   8.437  11.444   4.552  0.1293 -0.0249  0.1165
22566W        W41420   6.624   5.755  13.254  0.1174 -0.1741  0.1469
22567W        W41421   2.152   9.984   3.647  0.2027 -0.1615  0.0305
22568W        W41422  11.350   3.035   2.217  0.0243  0.2688  0.0772
22569W        W41423   4.270  17.122  17.022 -0.0976  0.1211  0.1212
22570W        W41424   5.633  15.828   0.934 -0.5682 -0.0001  0.0225
22571W        W41425  11.736  12.256   5.212  0.0891  0.1677 -0.0243
22572W        W41426   3.238   5.639  14.262  0.0881  0.0680 -0.2171
22573W        W41427   0.987  12.724   2.424 -0.1420 -0.1979  0.4648
22574W        W41428  15.560  16.326  12.076 -0.0915  0.0507  0.1595
22575W        W41429  12.795   6.040   4.668  0.0619 -0.1553 -0.3391
22576W        W41430   5.155  16.697  11.840  0.0170  0.2628  0.0663
22577W        W41431   3.766  10.439  14.910 -0.1095  0.1242 -0.2105
22578W        W41432   7.888  13.894   4.793  0.1148 -0.1793  0.1161
22579W        W41433  13.253   2.982  12.132  0.0173  0.3000 -0.0459
22580W        W41434   1.607   6.564   4.350 -0.0527  0.4524 -0.4134
22581W        W41435  16.329  17.458  14.328  0.0301  0.0112 -0.2547
22582W        W41436   2.888  14.798   2.411 -0.2473  0.1207  0.2963
22583W        W41437   1.479   1.516   3.442 -0.1816  0.1715  0.1420
22584W        W41438   3.439   1.780  13.630  0.0191 -0.0973  0.0654
22585W        W41439  13.701   9.724  13.176 -0.1113 -0.0472 -0.0237
22586W        W41440  15.653   7.203   3.620  0.1899 -0.0287 -0.0417
22587W        W41441   9.922   8.061   4.573  0.0199  0.1239  0.2402
22588W        W41442   8.353   5.960  15.564  0.1771  0.2447 -0.1208
22589W        W41443   0.546   2.652  12.206 -0.0773 -0.2850  0.1636
22590W        W41444   0.074   8.242   5.568 -0.1925  0.1960  0.2826
22591W        W41445  16.931   3.057  11.958 -0.3435  0.3540 -0.0705
22592W        W41446   7.908   4.782  16.381 -0.3531  0.0903 -0.0043
22593W        W41447   9.703  16.154  16.027  0.2663  0.2026  0.2505
22594W        W41448   4.685  13.303  15.639  0.0338 -0.0911  0.1801
22595W        W41449   8.101   9.089   4.294 -0.0848  0.0115  0.0996
22596W        W41450  15.646   3.667   3.163 -0.0244  0.0821 -0.2073
22597W        W41451  14.016  11.167   4.375  0.1578 -0.0358 -0.3013
22598W        W41452   6.268   0.125  16.965 -0.1050 -0.1056 -0.0007
22599W        W41453   6.064   4.613  11.979  0.3339 -0.2237 -0.1746
22600W        W41454   9.431   1.959  14.687  0.1705 -0.0840  0.2148
22601W        W41455   4.190   1.060  15.000 -0.0879 -0.2163  0.0450
22602W        W41456   8.420   3.165  14.682 -0.2813 -0.2875  0.0881
22603W        W41457   7.877   3.864   2.727 -0.0597 -0.0582 -0.0245
22604W        W41458   2.889  10.590  16.644  0.2022 -0.1974 -0.2127
22605W        W41459  15.131   3.140   0.845 -0.0978 -0.3346  0.0964
22606W        W41460   0.982   3.553  16.271  0.1879 -0.1375 -0.3690
22607W        W41461  12.036   0.554  17.244  0.2489  0.0894  0.2954
22608W        W41462   3.161   0.517  17.009 -0.0792 -0.3147 -0.0260
22609W        W41463  13.990   6.866  15.302 -0.1604 -0.3558  0.3526
22610W        W41464  16.399   1.588   3.569 -0.2298 -0.1340 -0.2882
22611W        W41465   3.373   8.093  15.250 -0.1342 -0.1342 -0.2784
22612W        W41466   5.066   6.058  12.812 -0.0051 -0.0345 -0.2335
22613W        W41467  14.313  12.153  13.982  0.0266 -0.3204  0.1013
22614W        W41468   1.783  17.399   2.936 -0.0137 -0.0873  0.0002
22615W        W41469  11.840   8.111  14.614  0.0809 -0.1897  0.2989
22616W        W41470   4.857  14.407   3.149 -0.1720  0.1787 -0.0900
22617W        W41471   1.095  15.794  14.036 -0.1749 -0.1480 -0.0178
22618W        W41472   0.752   8.126  13.609  0.0947  0.0536  0.4270
22619W        W41473   5.025   0.239   2.089  0.2129 -0.0627  0.4368
22620W        W41474  10.071  16.141  15.670  0.0219 -0.1808  0.0946
22621W        W41475   9.307  14.815  13.601  0.2109 -0.1176  0.2769
22622W        W41476   1.077  14.116   4.228 -0.1873  0.1752 -0.0891
22623W        W41477   5.557   3.656  15.240  0.2170 -0.3093 -0.0041
22624W        W41478  13.615  16.434   1.696 -0.0190 -0.3125  0.0082
22625W        W41479  14.703   1.644  13.749 -0.1112  0.0264 -0.1737
22626W        W41480  17.232   9.045   0.439  0.1610 -0.0587  0.0675
22627W        W41481  15.896  10.333   2.899 -0.0597  0.1185 -0.0009
22628W        W41482  14.800   2.247  12.208  0.0719 -0.0045 -0.2004
22629W        W41483  13.920  11.817   2.379  0.0153 -0.1663 -0.2726
22630W        W41484  17.486   0.766   1.624  0.0278 -0.2027  0.1215
22631W        W41485  16.277  12.720   1.437  0.1217  0.1841 -0.0030
22632W        W41486   5.454  16.299  16.290  0.2823 -0.2373  0.1513
22633W        W41487   7.525   6.735  13.622 -0.2376 -0.0101  0.0062
22634W        W41488  10.854  17.245  17.218  0.0148  0.1947 -0.0574
22635W        W41489   5.373  10.713  16.914  0.0576 -0.0348  0.0493
22636W        W41490   7.385   2.261  13.572 -0.1623 -0.1598 -0.2049
22637W        W41491  16.350   4.733  16.263  0.0030 -0.1187 -0.1548
22638W        W41492   4.675   5.090  13.413 -0.1605 -0.1030  0.1325
22639W        W41493   6.176  12.294  13.612 -0.0450  0.0120  0.2609
22640W        W41494   3.046  10.896  15.439  0.0692 -0.1212  0.5086
22641W        W41495   0.337  14.171   3.590  0.0484 -0.0554  0.1741
22642W        W41496   2.955  14.070  14.604 -0.0907  0.1741  0.2517
22643W        W41497   1.532   5.700   1.080 -0.1047  0.0497 -0.1431
22644W        W41498  14.982  10.035  13.177 -0.1640  0.0789 -0.2695
22645W        W41499   3.427  15.251   0.882 -0.4258 -0.0784  0.1697
22646W        W41500   8.834  11.999   2.163 -0.0170 -0.1103 -0.0123
22647W        W41501  10.392  12.552  13.008  0.1691 -0.1851 -0.1601
22648W        W41502   5.074  10.516  14.691 -0.2650  0.0461  0.3267
22649W        W41503   3.471   0.625  13.835 -0.4227 -0.2539 -0.0393
22650W        W41504   2.703   5.213   4.780 -0.1387  0.1610  0.1735
22651W        W41505  11.747   6.944   2.356 -0.2137  0.1073  0.0119
22652W        W41506   6.381   7.529   1.283  0.1038 -0.2998  0.0762
22653W        W41507  10.733   2.348   4.864 -0.0728  0.1537 -0.1203
22654W        W41508  13.003  12.673  16.137  0.1273 -0.3135 -0.0987
22655W        W41509   9.128   5.291  15.186  0.2009  0.1681 -0.3506
22656W        W41510  15.900  12.116  14.909 -0.0594 -0.0202  0.1819
22657W        W41511   4.376   0.038   0.119  0.0828 -0.1673 -0.0184
22658W        W41512   0.197   3.624   1.189  0.2098  0.1850  0.0627
22659W        W41513   9.482  11.424  13.059 -0.0017  0.0277  0.1438
22660W        W41514  11.802   7.158  15.361  0.1823  0.0335  0.1065
22661W        W41515   5.978  13.737   3.412 -0.2483  0.0416  0.0623
22662W        W41516  13.635   3.132  12.575 -0.2322 -0.0528  0.0849
22663W        W41517   9.800  12.675   4.659  0.4846 -0.2415 -0.1165
22664W        W41518  14.624   2.063   0.732 -0.1098  0.1962 -0.1556
22665W        W41519  16.953  15.088   0.597  0.0395 -0.1600  0.0264
22666W        W41520   0.941   0.949   3.566 -0.0316 -0.1558 -0.2603
22667W        W41521   7.288   3.627  16.188  0.1790  0.2585  0.0763
22668W        W41522   6.712  13.932   4.762  0.0037  0.2069 -0.0353
22669W        W41523   8.254  13.661  13.611  0.2838  0.2499 -0.3864
22670W        W41524  12.161   8.420  16.994  0.0576  0.1716 -0.0002
22671W        W41525   9.443  16.375   3.426 -0.1564 -0.0250  0.0969
22672W        W41526   5.121  16.947   4.261 -0.1020  0.0009 -0.0601
22673W        W41527   4.950  15.853   2.023  0.0227  0.1507 -0.1276
22674W        W41528   5.632  14.088  16.178  0.3912 -0.0878  0.0626
22675W        W41529   3.668  15.375  13.441 -0.1031  0.0389 -0.0642
22676W        W41530   5.641   5.434  15.816  0.0240  0.0545  0.0008
22677W        W41531   0.815   7.407  14.972 -0.1388  0.0911  0.1952
22678W        W41532  14.066   2.120  16.134  0.1444  0.0279  0.0741
22679W        W41533  15.535   5.097  15.690 -0.1063 -0.1714 -0.1200
22680W        W41534   6.538   6.231  16.399  0.1687 -0.1589  0.1108
22681W        W41535  10.874   8.887  13.718  0.1241  0.1835 -0.1931
22682W        W41536  15.160   8.379   3.300  0.3358  0.0093  0.1189
22683W        W41537   2.905  14.125   4.169  0.0205  0.0698  0.2868
22684W        W41538   2.542  15.570   2.761  0.0682  0.4286  0.0172
22685W        W41539   7.152  12.090  11.486 -0.1497  0.1565 -0.0787
22686W        W41540   8.413  13.665  12.713 -0.0162  0.2093  0.2273
22687W        W41541  11.805   5.931   1.192 -0.2706 -0.0130 -0.2979
22688W        W41542   3.432   3.807   1.093 -0.0275 -0.1855  0.2596
22689W        W41543  13.738   4.288  14.881  0.1534 -0.1478  0.0761
22690W        W41544  13.313  14.911  16.211  0.0831 -0.0882  0.0553
22691W        W41545   8.245  17.103  13.329 -0.1886 -0.2045  0.1128
22692W        W41546   8.559   3.291  17.073 -0.0578 -0.0017  0.2581
22693W        W41547   7.365   7.008   0.853 -0.0943  0.2483 -0.3420
22694W        W41548   5.885   8.149  16.196  0.2625  0.3702 -0.0931
22695W        W41549  13.080  12.070  13.507  0.1744 -0.0555  0.0347
22696W        W41550  16.607  17.359   0.244 -0.5293 -0.0609  0.0081
22697W        W41551   9.699   3.154  17.090 -0.1604 -0.3090 -0.0470
22698W        W41552   2.480  14.209  13.836  0.3272  0.0341  0.1971
22699W        W41553   6.438  14.739   5.000 -0.1065 -0.0454 -0.0100
22700W        W41554   4.468  15.561  13.994 -0.0623  0.0515 -0.2654
22701W        W41555  12.166   9.053  13.917 -0.0042 -0.0863 -0.1053
22702W        W41556   2.579   4.797   3.505 -0.1677 -0.2906  0.3626
22703W        W41557  13.941   2.659   0.663 -0.0477 -0.2550 -0.2006
22704W        W41558  10.979   7.978   0.731  0.2661 -0.1862  0.1287
22705W        W41559   6.413   9.851   0.539 -0.2542  0.0652  0.0158
22706W        W41560   6.736  15.920  15.707  0.1012  0.0701 -0.1029
22707W        W41561   9.864   1.754   3.911 -0.0068  0.0860 -0.1187
22708W        W41562  17.289   6.558   0.280 -0.1066 -0.0088  0.0774
22709W        W41563   3.954   7.608   3.822  0.1725 -0.2629 -0.0670
22710W        W41564   8.535  12.723   4.430 -0.0260 -0.3522  0.3426
22711W        W41565   7.307  12.178   1.707 -0.1652 -0.0886 -0.0928
22712W        W41566   9.929   2.152  14.788  0.0577  0.1511 -0.0209
22713W        W41567  16.375   9.367  17.072  0.0609 -0.0204 -0.1581
22714W        W41568   6.948  16.199   0.054 -0.3201 -0.2125 -0.3257
22715W        W41569   5.781   5.158  14.029  0.3708 -0.2095 -0.0734
22716W        W41570  10.667  12.237  15.353  0.5337  0.2327 -0.0833
22717W        W41571  15.167   9.369   2.071  0.2142 -0.1411  0.3799
22718W        W41572  14.762   8.860  16.568 -0.0895  0.1714 -0.0805
22719W        W41573  16.606   2.197  16.057  0.1969 -0.2350  0.0317
22720W        W41574   1.549   3.562   2.977  0.0492 -0.0341 -0.0080
22721W        W41575  11.973  12.933  15.940 -0.0483  0.1790 -0.0117
22722W        W41576  14.958  15.654   2.754 -0.0955 -0.5473 -0.0054
22723W        W41577   7.130   8.524   4.269  0.1136  0.1301 -0.0138
22724W        W41578   6.464   3.659  14.153  0.0764  0.0046  0.0003
22725W        W41579  17.002   3.027   0.270  0.1567 -0.1993 -0.2048
22726W        W41580  14.257   2.389  12.191  0.0077 -0.2660  0.2357
22727W        W41581   6.512  17.463   0.133  0.0740 -0.0590 -0.0825
22728W        W41582   4.944   8.484   0.483  0.0618  0.3765 -0.1792
22729W        W41583  12.340   5.053   0.206  0.1451 -0.5382  0.0886
22730W        W41584  14.405  17.452  16.509  0.2212 -0.0300  0.4115
22731W        W41585   1.883   3.940  11.652 -0.0181 -0.1027  0.1526
22732W        W41586   3.504  15.570   2.924 -0.3252 -0.0293  0.4225
22733W        W41587   2.395   8.171   3.214 -0.2358  0.3813  0.2130
22734W        W41588   0.965   9.486   0.390 -0.2001  0.1262 -0.1772
22735W        W41589   1.987   8.158  15.167 -0.0913  0.0683 -0.1908
22736W        W41590   3.702  15.168  16.601 -0.2293  0.2143  0.3012
22737W        W41591   2.056   7.739  14.810  0.4096  0.0008 -0.0949
22738W        W41592  16.782   8.036  13.451 -0.1401 -0.2103  0.0044
22739W        W41593   5.753   0.789   5.076 -0.1012 -0.0167 -0.1186
22740W        W41594   9.894   6.290   2.313  0.2793  0.1596 -0.2792
22741W        W41595   0.457   2.602  16.259  0.0766 -0.1304 -0.2110
22742W        W41596   7.221  11.653  17.108  0.2226 -0.0854 -0.1758
22743W        W41597  15.109  14.066  14.467  0.3807  0.3060  0.0317
22744W        W41598   0.204   1.471   4.077  0.2213  0.1061  0.2906
22745W        W41599   5.531  15.694   2.416 -0.1651 -0.0944 -0.1099
22746W        W41600   7.111   4.950   2.387 -0.1141  0.3524  0.1043
22747W        W41601  10.039  17.053  16.655  0.0406  0.0567  0.1057
22748W        W41602  15.023  17.040  15.758  0.0394 -0.3984  0.0864
22749W        W41603  14.165  11.751  16.168  0.0867 -0.1323  0.0905
22750W        W41604   0.040  10.699  12.739  0.1061  0.0702 -0.1955
22751W        W41605  13.914   0.766   1.339 -0.0009  0.0974 -0.1398
22752W        W41606  10.944  10.947  17.239  0.1547  0.3008 -0.0134
22753W        W41607   6.042  13.006   2.076 -0.3364  0.0949 -0.0242
22754W        W41608  14.309  13.869  13.011  0.0252  0.1718 -0.0441
22755W        W41609   7.601   0.905   1.898 -0.0430 -0.1114 -0.1004
22756W        W41610  14.866   3.502   1.623  0.0829  0.0614  0.2468
22757W        W41611  12.547   0.606  14.522 -0.3565 -0.1274  0.2491
22758W        W41612  16.736   0.517  13.250 -0.0098 -0.5230  0.1122
22759W        W41613   5.016  13.864   0.817  0.0338 -0.2196 -0.2109
22760W        W41614   8.549   0.290  17.094  0.1972  0.2662 -0.0480
22761W        W41615  10.665   0.782  15.766 -0.0522  0.1559  0.0879
22762W        W41616  13.202  14.890  15.056 -0.2391 -0.0613 -0.1992
22763W        W41617   0.214   9.808   3.737 -0.2333  0.1506 -0.1296
22764W        W41618   2.981  16.796   0.896  0.0222  0.0473 -0.1242
22765W        W41619  12.373  15.533   3.913  0.2007 -0.3119  0.2903
22766W        W41620  15.370  13.498   1.621  0.0433  0.1837  0.3781
22767W        W41621   0.388   4.644  13.806  0.0896 -0.0267  0.0532
22768W        W41622  11.244   8.586   2.748 -0.1506  0.0347  0.2236
22769W        W41623  16.087   1.899   2.406  0.3360 -0.0905  0.0025
22770W        W41624   0.449   5.520   4.224 -0.1641 -0.2301 -0.0189
22771W        W41625   3.126   4.479  16.484 -0.0229 -0.1355  0.3298
22772W        W41626  12.783  12.723  15.577 -0.1663  0.2476 -0.2520
22773W        W41627   1.068   6.564   4.265 -0.2524 -0.0826 -0.0286
22774W        W41628  13.355  13.589   2.120  0.0444  0.1285  0.2365
22775W        W41629  15.970  14.864  16.919 -0.2100  0.1409 -0.1098
22776W        W41630   5.051   6.607   2.547  0.0260 -0.1515  0.0874
22777W        W41631  12.227  13.858  13.564 -0.0405  0.0934 -0.2969
22778W        W41632   6.113   4.274   1.885 -0.1367  0.2026 -0.0238
22779W        W41633   6.460  16.964  16.399 -0.0156  0.0532 -0.0571
22780W        W41634   8.363   2.974   3.147  0.0324 -0.1007 -0.0024
22781W        W41635   7.140  10.879   3.556  0.0442  0.2141  0.2009
22782W        W41636  14.119   2.542   1.372  0.2308  0.2498  0.1858
22783W        W41637   9.294   5.033  12.170 -0.1285 -0.2826 -0.2309
22784W        W41638   2.493   8.992   2.793  0.2697 -0.2029 -0.0182
22785W        W41639  11.445   2.192  13.833 -0.3374  0.0200  0.1624
22786W        W41640  13.381  16.126   0.434  0.0920  0.0149 -0.2623
22787W        W41641   5.506   0.900   2.566  0.0362 -0.0824  0.0382
22788W        W41642   2.958  16.482  15.286  0.1279 -0.0887 -0.2127
22789W        W41643  17.183   4.064   2.970  0.0982 -0.0810  0.0443
22790W        W41644   6.482   6.984   1.242  0.0882 -0.0410 -0.0683
22791W        W41645  11.945  14.980  12.786 -0.0892  0.0398  0.0059
22792W        W41646   1.181  15.853  16.322 -0.0028 -0.1303 -0.0605
22793W        W41647   4.471  15.624   3.095 -0.0765  0.0118 -0.0426
22794W        W41648   3.123  11.541  12.128 -0.0373 -0.0900  0.0746
22795W        W41649  15.707  12.126  16.769  0.0410 -0.1641  0.2468
22796W        W41650   2.514   5.265  14.228  0.0361  0.1141 -0.2280
22797W        W41651   6.154   3.170   3.360  0.0626 -0.1077  0.1979
22798W        W41652   1.535   9.982  13.277  0.1810  0.1349  0.3161
22799W        W41653   4.170   4.176  14.255  0.2999  0.1628  0.0825
22800W        W41654   4.105  13.110  12.520 -0.3439 -0.1584 -0.2672
22801W        W41655  12.251   3.638  16.770  0.1882  0.0111 -0.1236
22802W        W41656   9.105  10.013  12.959  0.2269  0.1220  0.0402
22803W        W41657   6.259  13.499   2.442  0.0763  0.0006  0.1257
22804W        W41658   6.374   2.431  12.370 -0.2245  0.1351 -0.2391
22805W        W41659  12.331   9.135   1.068 -0.2912  0.1044  0.2359
22806W        W41660  16.154   0.431  16.099 -0.0871  0.0971  0.1301
22807W        W41661  14.443   6.080   1.402 -0.2689 -0.3262  0.1646
22808W        W41662   8.624   4.821  14.538  0.2966  0.0768  0.1161
22809W        W41663  10.451   2.064  16.932  0.0331  0.1198 -0.0465
22810W        W41664   0.500   4.429  16.549 -0.2462  0.1603  0.0605
22811W        W41665   2.435   6.057   2.519  0.2293 -0.0024  0.0949
22812W        W41666  15.309  16.254   3.883 -0.0321  0.0551 -0.0575
22813W        W41667  17.271   3.148   1.658  0.2806  0.4470 -0.0498
22814W        W41668   7.951   8.840  12.729  0.2855  0.0667  0.0449
22815W        W41669   4.800   4.704  15.607  0.0639  0.1788  0.0676
22816W        W41670   6.470   3.782  13.596 -0.1263  0.0140 -0.2235
22817W        W41671  13.542  16.305  15.192  0.0386  0.0938 -0.2413
22818W        W41672  12.747  10.858  17.032  0.1034 -0.1950  0.1470
22819W        W41673   9.973   7.926  16.548  0.0287  0.1413 -0.1469
22820W        W41674   8.546   1.740   2.269  0.3965 -0.2142 -0.0592
22821W        W41675  13.332   5.791  13.938  0.1554  0.2003 -0.0598
22822W        W41676  14.589  16.208  17.201  0.1564 -0.2896  0.2243
22823W        W41677   1.967  14.513  13.060  0.2254 -0.4228 -0.0131
22824W        W41678  16.586  14.708  14.634 -0.3218  0.4803  0.0094
22825W        W41679  15.908   6.767  16.432 -0.4255  0.1087 -0.0419
22826W        W41680  14.507   2.734   3.867  0.2384 -0.2384 -0.2732
22827W        W41681   3.726   7.492   4.460  0.3986 -0.0603 -0.0999
22828W        W41682  15.257  12.679  16.649  0.1223  0.2941 -0.0665
22829W        W41683   2.747   9.289  12.621  0.2164  0.0241  0.1413
22830W        W41684  11.409  15.663  16.330 -0.2031  0.2045  0.0487
22831W        W41685  11.515   1.997   4.582 -0.0113  0.0270 -0.0954
22832W        W41686  13.899  12.561  14.700  0.1502 -0.1025 -0.0120
22833W        W41687   1.257  13.422   4.287 -0.1293 -0.1366  0.1972
22834W        W41688   6.451   2.141  13.893 -0.1171  0.2781 -0.1056
22835W        W41689   1.918  12.357   3.698  0.0711 -0.3635  0.0031
22836W        W41690   8.976  11.535  15.950  0.2515  0.0509 -0.0484
22837W        W41691   3.119   5.990  17.226 -0.2220 -0.0438  0.0019
22838W        W41692   7.553  13.100   0.640 -0.2687  0.3092 -0.0349
22839W        W41693   4.837   9.807   0.499  0.0927 -0.0551  0.1443
22840W        W41694  16.054  17.001   2.839  0.1736  0.0449 -0.1531
22841W        W41695   1.864  10.803   5.781 -0.2211  0.1284  0.0075
22842W        W41696  16.527   8.423   0.840 -0.0079 -0.0350 -0.2856
22843W        W41697   8.689  10.664  15.234 -0.1955  0.0932  0.1040
22844W        W41698  12.108  14.745   3.323 -0.0562  0.0983 -0.0590
22845W        W41699  16.608   1.715  14.858 -0.1776  0.0455 -0.3157
22846W        W41700   5.444   1.628   4.474  0.0945 -0.0352 -0.0756
22847W        W41701  17.324  10.057   3.844  0.0846  0.2337 -0.0175
22848W        W41702   7.779  14.944   1.603 -0.3167 -0.3968 -0.0621
22849W        W41703  12.566   5.264   2.561 -0.3189  0.4940  0.2651
22850W        W41704  17.347  10.587   0.745  0.2629 -0.1998 -0.3957
22851W        W41705   4.769   4.253   2.954  0.0821  0.1735 -0.0120
22852W        W41706   5.177  11.194   1.503  0.1780  0.0222 -0.1085
22853W        W41707  10.964   0.849   4.556 -0.1951  0.3715  0.0157
22854W        W41708  14.787   8.160   4.358  0.0462  0.2669  0.2424
22855W        W41709  10.083  11.326   3.368 -0.3216  0.0467  0.0018
22856W        W41710  11.345  11.096  14.179 -0.0821  0.1925  0.0070
22857W        W41711  11.640  14.976   0.116  0.0534 -0.0370 -0.0671
22858W        W41712  17.132   2.496   3.401  0.0040 -0.0194 -0.2240
22859W        W41713  17.456  14.503   1.954 -0.0374  0.2925  0.3584
22860W        W41714  12.513  14.288   1.053 -0.2463 -0.1553 -0.0765
22861W        W41715  15.822   0.441   3.944  0.4135  0.0991 -0.0389
22862W        W41716  17.548   5.132   3.422 -0.0209 -0.2282 -0.2642
22863W        W41717  12.846   8.172  14.205 -0.0314 -0.0156 -0.3215
22864W        W41718   1.922  17.126   1.086 -0.3975 -0.0373 -0.1912
22865W        W41719  13.374  17.561   1.794 -0.0256  0.1289 -0.0300
22866W        W41720  15.632   3.253   2.731 -0.1898  0.2255 -0.0631
22867W        W41721  12.384  16.937  14.585  0.0717  0.1348  0.0128
22868W        W41722  14.016   4.090  15.502  0.1504 -0.2566  0.0061
22869W        W41723  12.743   4.433  16.685  0.3809  0.0546 -0.1384
22870W        W41724   0.346  12.948  14.709  0.3727  0.1819  0.1954
22871W        W41725   5.497  12.848   1.994 -0.0597  0.3073  0.2994
22872W        W41726   8.563  11.225   0.959 -0.1718  0.2788 -0.0049
22873W        W41727   9.421  15.536  14.332 -0.0673  0.0098 -0.0227
22874W        W41728   7.961   1.741  15.512 -0.1606 -0.2449  0.1937
22875W        W41729  14.379   9.222   1.521 -0.1815 -0.1748 -0.0072
22876W        W41730   7.986  12.823   0.718 -0.1270  0.0666 -0.0545
22877W        W41731  10.777   9.296   1.299 -0.2482 -0.0289 -0.0970
22878W        W41732   7.220   9.599  13.448 -0.0814 -0.2861  0.1159
22879W        W41733   4.309  15.536  12.435 -0.1330 -0.1094  0.1061
22880W        W41734   1.378  10.944  12.624 -0.0992 -0.0743 -0.0052
22881W        W41735   5.576  12.358   0.211  0.5153  0.0120  0.3010
22882W        W41736  17.535  13.014   0.978  0.1204  0.0174  0.4888
22883W        W41737  12.956  16.005  13.084 -0.4815  0.1750 -0.1878
22884W        W41738   2.934   9.628   4.761 -0.0140 -0.0009 -0.0778
22885W        W41739   1.401   7.014   2.628  0.2194  0.0456  0.0007
22886W        W41740  12.143  10.139   3.207 -0.0402  0.0922 -0.2383
22887W        W41741  15.388   1.723   4.878  0.2541  0.3056  0.0242
22888W        W41742   5.996   3.411   5.200  0.2576 -0.3419  0.0246
22889W        W41743   2.851   9.109   3.761  0.0248  0.3955  0.0494
22890W        W41744   8.003   8.635   4.622 -0.0253 -0.0431  0.0055
22891W        W41745  14.373   4.331  13.623  0.1437  0.1403  0.1196
22892W        W41746  15.592   7.968   2.956  0.1402 -0.1097  0.0099
22893W        W41747   8.757   8.610   2.206 -0.0849 -0.0267  0.1386
22894W        W41748   5.235   8.198  17.001  0.2479 -0.4342  0.1927
22895W        W41749  15.524  11.829  16.320  0.1114  0.1226  0.0086
22896W        W41750  13.526  14.131   2.102 -0.0925  0.0969 -0.1446
22897W        W41751  11.959  15.612  16.651 -0.0514  0.3460 -0.0718
22898W        W41752   0.354  17.253  15.792 -0.1033  0.2136  0.4122
22899W        W41753   5.949  16.025   4.708  0.0569 -0.1863 -0.1640
22900W        W41754  13.475   4.469  13.760 -0.1305 -0.1398 -0.1165
22901W        W41755  12.717  15.909  16.693  0.0925 -0.1984 -0.1651
22902W        W41756   3.689  13.724   3.496  0.1507  0.0024  0.2435
22903W        W41757   1.457   9.201   4.627  0.1292  0.1506 -0.0981
22904W        W41758   4.298  13.803  13.427  0.1862  0.0901 -0.0520
22905W        W41759  11.188  14.040   4.877  0.1456 -0.2381  0.0674
22906W        W41760   1.708  17.134   5.007  0.0160  0.1227  0.2435
22907W        W41761  17.357  11.536   0.733 -0.0138  0.0915  0.2937
22908W        W41762   2.830  12.453   1.124 -0.1493 -0.1799  0.1078
22909W        W41763  17.156  14.449   2.781  0.1056  0.3289 -0.0556
22910W        W41764   7.282  11.066   3.985 -0.3239 -0.1734 -0.0252
22911W        W41765   9.170   7.407   1.520 -0.1157  0.0377 -0.1271
22912W        W41766  14.770   2.136  16.717  0.2172 -0.0729 -0.0244
22913W        W41767  17.151   7.855  15.063 -0.0306 -0.0435 -0.1099
22914W        W41768  10.141  15.198  12.553  0.3398  0.0546 -0.2174
22915W        W41769   6.843   1.449  14.710  0.1480  0.2497 -0.0649
22916W        W41770   7.739   7.251   5.286  0.0912  0.1272  0.2101
22917W        W41771  14.261  13.116  13.717  0.1024 -0.1186  0.1791
22918W        W41772   5.905   1.661   1.874  0.1009  0.0399  0.0137
22919W        W41773   0.017  16.484   1.287 -0.1266  0.0971 -0.3411
22920W        W41774   2.366   4.956  15.123  0.1957  0.1940 -0.4295
22921W        W41775  16.576  14.693  12.588 -0.0831  0.0333  0.0483
22922W        W41776   9.950  12.422  13.774  0.0287  0.0523 -0.1720
22923W        W41777   4.255   5.412  11.649  0.0437 -0.3031  0.0423
22924W        W41778   7.074  15.975  12.852  0.0420  0.3858 -0.1961
22925W        W41779   4.835  17.045   2.592 -0.0381  0.1797  0.0397
22926W        W41780  16.725   1.031   0.185 -0.1602  0.0610  0.0599
22927W        W41781  17.436   1.225  15.694  0.1404  0.1377 -0.2974
22928W        W41782   4.399   6.843  16.067 -0.1235  0.3676 -0.1214
22929W        W41783  12.542  14.248  16.003  0.1996 -0.2804 -0.0629
22930W        W41784  16.132   3.391   4.651  0.0058 -0.1567  0.0467
22931W        W41785   6.928   6.372   4.684 -0.1638  0.0414 -0.1373
22932W        W41786  16.770  10.333  14.987  0.0794  0.0733 -0.1229
22933W        W41787  13.647  13.011  12.993  0.0244  0.0306 -0.0311
22934W        W41788   8.392  10.250  13.714  0.3714  0.1713 -0.2184
22935W        W41789  16.468   3.693  13.690  0.0939 -0.0718  0.3941
22936W        W41790   6.786  11.149  16.467 -0.0621 -0.2191 -0.0145
22937W        W41791   3.739   3.896   4.228 -0.1076  0.0903 -0.0045
22938W        W41792  17.206   3.402  14.958 -0.1721  0.0467  0.0574
22939W        W41793  14.916   3.797  11.378 -0.2160 -0.2009  0.0423
22940W        W41794   2.832  15.633   1.766 -0.0227  0.3189  0.0404
22941W        W41795  13.971   8.097   1.115  0.1452 -0.1832 -0.1265
22942W        W41796   9.186  14.610   0.774 -0.2481 -0.3549 -0.0444
22943W        W41797  16.481  15.243  15.896  0.1159  0.1357  0.1552
22944W        W41798   6.801  14.430   2.153 -0.5421  0.3128  0.1377
22945W        W41799  12.587   7.159  14.375  0.1964  0.2119  0.0429
22946W        W41800  14.327   8.019   4.360 -0.0433  0.0942 -0.3763
22947W        W41801   5.679   4.154   5.098 -0.1504 -0.1047  0.0412
22948W        W41802   2.511   1.342  16.094 -0.0732  0.1280 -0.0075
22949W        W41803   5.457   6.961  16.513 -0.2467  0.1345 -0.1447
22950W        W41804  11.493  13.235   3.158 -0.1089 -0.0554 -0.2119
22951W        W41805   5.942   3.640  14.230  0.1904 -0.2018  0.0481
22952W        W41806  10.969   7.465   5.225 -0.3171 -0.1095 -0.0062
22953W        W41807   9.320   7.014   5.096  0.2133 -0.2713 -0.2888
22954W        W41808   0.616   3.052  14.652  0.0723  0.1633  0.0483
22955W        W41809   7.153  14.496  15.731  0.0749 -0.0435  0.0404
22956W        W41810  12.672   9.061  17.008  0.1140  0.1397 -0.0411
22957W        W41811  16.901   4.442  12.510 -0.1822  0.1263  0.0735
22958W        W41812   2.276  14.326   0.382  0.2506 -0.2237 -0.1401
22959W        W41813   6.262   8.950  13.338  0.4904  0.2935  0.3127
22960W        W41814   3.009  16.344   0.116 -0.1255 -0.0574  0.0203
22961W        W41815   3.932  17.496  17.238 -0.2163 -0.3939 -0.2647
22962W        W41816   0.106   2.851  12.106  0.0298 -0.0910 -0.3297
22963W        W41817  11.903   5.292  14.389  0.2556 -0.0798 -0.0715
22964W        W41818   6.070  12.410   0.126  0.1189 -0.2410  0.0591
22965W        W41819  17.223   0.028  16.355 -0.0820 -0.1727  0.2096
22966W        W41820  15.389  12.845  14.878  0.0992 -0.1011 -0.1738
22967W        W41821  12.414  17.511   3.836  0.0472 -0.0895  0.0182
22968W        W41822  14.682   5.674   3.513  0.1188  0.0990  0.0999
22969W        W41823  11.349   4.530   3.070 -0.0242  0.0988  0.2454
22970W        W41824   9.977   8.862   2.291  0.1731 -0.0372 -0.2031
22971W        W41825   1.154  11.873   3.307 -0.0148 -0.0828  0.1221
22972W        W41826  12.798  10.631   1.899 -0.0495 -0.0372 -0.1945
22973W        W41827  17.098  10.674  12.701 -0.1905 -0.1490  0.1363
22974W        W41828   7.969   1.283   5.251  0.0993  0.0734  0.0535
22975W        W41829   1.805  10.295   3.432 -0.1784  0.1570  0.0305
22976W        W41830   7.704  16.355  14.041  0.3463  0.1000 -0.2931
22977W        W41831  14.742  13.912   2.847 -0.5101  0.0904 -0.0516
22978W        W41832  16.989   5.799  12.900  0.1519  0.1978  0.4521
22979W        W41833   8.270  13.401  13.158  0.1427  0.0988 -0.1997
22980W        W41834   3.028   2.775  16.629  0.1229 -0.0485 -0.0866
22981W        W41835  14.107  15.154  15.807  0.3509  0.2350 -0.1174
22982W        W41836   6.121   2.849   1.285  0.2349  0.1148  0.0041
22983W        W41837  17.528  10.291  13.614  0.0270 -0.0789  0.1902
22984W        W41838   7.428   0.227  15.776  0.0988  0.2370  0.1239
22985W        W41839  10.858  17.480   1.709  0.3551  0.1224  0.1166
22986W        W41840   9.592   1.539  15.432  0.1229  0.0926  0.0400
22987W        W41841  15.246   2.946   2.622 -0.1259  0.1728 -0.0672
22988W        W41842   7.159   2.060  14.058  0.1455 -0.0751 -0.1170
22989W        W41843   2.846  16.447   2.617 -0.0720  0.2609 -0.1837
22990W        W41844  14.185   6.387  16.139  0.1784  0.1583  0.0930
22991W        W41845   3.699  11.434  16.819 -0.0866 -0.0266  0.1308
22992W        W41846   1.799   7.592   4.835  0.0212  0.2190 -0.1024
22993W        W41847  12.346   2.434   2.607 -0.0100 -0.0568  0.0076
22994W        W41848  12.228  16.359  14.324 -0.0619  0.1611 -0.2775
22995W        W41849  11.339   7.840   4.159 -0.3805 -0.1391  0.0942
22996W        W41850  11.088  15.836  13.045  0.0636 -0.2630  0.0488
22997W        W41851   5.045   9.271   1.305 -0.1349  0.1999  0.0217
22998W        W41852   8.041   1.920  16.040  0.3777 -0.1073 -0.0476
22999W        W41853   4.975   2.146   3.782 -0.2864  0.1511 -0.0491
23000W        W41854  15.205   3.843   0.872 -0.0190 -0.2080 -0.2050
23001W        W41855  11.838   8.069  12.857 -0.1385 -0.1738  0.1085
23002W        W41856  17.104   7.509   1.577  0.0426  0.1906  0.1619
23003W        W41857  16.467  14.539   2.930  0.2057  0.1364  0.0984
23004W        W41858   7.129   6.484   0.935  0.3819 -0.0196 -0.0775
23005W        W41859   8.551   3.013  15.183 -0.1076 -0.1216 -0.3269
23006W        W41860  11.125   6.155  15.514 -0.5412  0.0247  0.0550
23007W        W41861  17.256   2.868   3.690  0.1260  0.1091  0.2613
23008W        W41862   2.057   5.339  14.131 -0.0566  0.0032  0.1052
23009W        W41863  17.309   6.662  16.677 -0.1985 -0.1322  0.1229
23010W        W41864   9.420   3.904   5.118  0.0378  0.0609  0.0934
23011W        W41865  10.528   4.913  13.284 -0.2897  0.0081  0.1980
23012W        W41866   4.227   6.929   1.644  0.0377  0.0873 -0.0037
23013W        W41867  17.596   5.707  16.396 -0.0651  0.1645 -0.1117
23014W        W41868  12.095   2.267  17.162 -0.1754 -0.1632 -0.1258
23015W        W41869   1.399   0.277   4.086  0.4123  0.0843 -0.1407
23016W        W41870   0.512   9.859  14.518  0.0617 -0.1709  0.0564
23017W        W41871   2.563   5.305  16.458 -0.2193  0.0567  0.0927
23018W        W41872  16.673   8.089   0.386  0.0911 -0.1061 -0.3243
23019W        W41873  10.922  14.505   3.725  0.0220  0.0879  0.2514
23020W        W41874   7.025  11.136  12.943 -0.4555  0.2202 -0.1915
23021W        W41875  11.079  11.054   1.462 -0.1263 -0.2866  0.1725
23022W        W41876   8.440  15.178  15.146  0.1986  0.2468 -0.0316
23023W        W41877  13.398  13.537   3.192  0.1555  0.2929 -0.1737
23024W        W41878   3.949   6.844  13.734 -0.1198  0.2516 -0.4627
23025W        W41879  13.876   8.288  14.464  0.0567  0.0682 -0.0250
23026W        W41880  12.958  16.114   0.689  0.0550 -0.0941  0.0874
23027W        W41881  13.349   7.997  16.358 -0.1649  0.0041 -0.0713
23028W        W41882   2.656   6.807  11.887 -0.1565  0.0574 -0.0076
23029W        W41883   2.231   2.555   2.436 -0.2796 -0.0906  0.1833
23030W        W41884   4.171   2.908   2.927 -0.1792 -0.2056  0.0320
23031W        W41885   1.188   8.609  13.469  0.1416  0.0487  0.0252
23032W        W41886  12.195  17.433  14.383  0.2629 -0.1246 -0.0544
23033W        W41887  11.238  15.140  12.073 -0.0632 -0.5491 -0.3145
23034W        W41888   0.111   8.228  10.912  0.1766  0.0300 -0.1344
23035W        W41889   1.840  12.042   2.836  0.0982 -0.0593 -0.1159
23036W        W41890  16.036   8.728   0.949 -0.0256 -0.1185 -0.1250
23037W        W41891  14.198   5.220  12.305  0.0176  0.0714 -0.0931
23038W        W41892   9.646   1.667   1.055 -0.0362  0.1108  0.1613
23039W        W41893  11.111   2.594  12.763 -0.2110  0.0438 -0.0163
23040W        W41894  10.265   3.098   0.376 -0.2034  0.2567 -0.3619
23041W        W41895  12.763   3.251  14.667  0.0534 -0.1048 -0.2460
23042W        W41896   3.004  13.226  14.911 -0.2537 -0.1745  0.3982
23043W        W41897  12.679   2.561   2.191  0.0337 -0.1991  0.2466
23044W        W41898   5.302   2.587   5.518  0.0270  0.2897  0.0390
23045W        W41899   9.568   7.626   1.190  0.1924 -0.1454 -0.2234
23046W        W41900  15.205   8.410   0.883 -0.2264  0.0108 -0.1294
23047W        W41901   7.103  16.125  15.950  0.1487 -0.0802 -0.0579
23048W        W41902   8.000  12.222   2.693  0.2351 -0.0214 -0.0280
23049W        W41903   5.738   6.147  13.310 -0.0727 -0.1258 -0.0380
23050W        W41904   0.370  10.448   1.407  0.4488 -0.0592  0.0133
23051W        W41905   9.108   4.925  17.137 -0.1491  0.0818  0.1752
23052W        W41906   6.272   6.833   4.795 -0.2061 -0.0187 -0.0449
23053W        W41907  12.423   8.027  13.939 -0.0724  0.0788  0.1118
23054W        W41908   5.607  12.049   2.804  0.2919 -0.1107  0.3173
23055W        W41909  11.173  11.593  12.272 -0.2721  0.1170 -0.1309
23056W        W41910   3.941  10.680   1.673  0.0258 -0.2449 -0.4268
23057W        W41911  10.925  11.850   1.903 -0.0627  0.0180  0.0679
23058W        W41912  15.176   0.274  14.275  0.2166  0.0706 -0.0444
23059W        W41913   4.579  10.364  14.650 -0.1485 -0.2320 -0.3570
23060W        W41914  11.898   5.844  14.253 -0.1400  0.1055 -0.1477
23061W        W41915   7.344   7.982   0.868  0.1071  0.3392  0.0931
23062W        W41916  16.385   2.698  15.886  0.1726 -0.0420  0.1657
23063W        W41917  16.890   4.508   1.507  0.0349  0.0064 -0.1098
23064W        W41918   4.745  11.906  16.908  0.0486  0.3039  0.0909
23065W        W41919  14.434  13.187  15.193  0.3453 -0.4197  0.2358
23066W        W41920   2.077  14.498  13.670  0.1123  0.0678 -0.0672
23067W        W41921   5.453  13.192   5.102 -0.3876  0.0679 -0.1786
23068W        W41922   7.622   7.684   4.587  0.1085 -0.0881 -0.1406
23069W        W41923   6.057   7.148   5.250  0.1141  0.3133  0.1688
23070W        W41924  12.464   0.986   1.565 -0.0830 -0.3178 -0.0597
23071W        W41925  11.602  13.723   4.963 -0.1318  0.1006  0.1679
23072W        W41926   0.097  13.727  17.145  0.1477  0.2015  0.0277
23073W        W41927  16.761   2.104  14.082 -0.0462  0.3487 -0.0703
23074W        W41928   5.038  10.732  14.187 -0.0048  0.0252 -0.0394
23075W        W41929  12.422  10.532  12.883  0.3282  0.0034  0.0468
23076W        W41930   4.491   4.539  14.147 -0.0973  0.1155 -0.0323
23077W        W41931  16.365  16.986  14.196  0.4156 -0.1452 -0.1829
23078W        W41932   9.549   2.224  13.780  0.0692 -0.3895 -0.0303
23079W        W41933  15.169   1.875  13.783 -0.0452 -0.1517 -0.1636
23080W        W41934  11.116   1.812   0.106  0.0898 -0.0170 -0.2042
23081W        W41935   7.881   9.866  12.804  0.0124  0.2020  0.1166
23082W        W41936   8.391   8.532  15.023  0.0625  0.0068 -0.1995
23083W        W41937   2.667   5.239   1.662 -0.2151  0.0717  0.4022
23084W        W41938   6.467   0.247  15.705  0.3187  0.3092 -0.2965
23085W        W41939  15.356   4.405   1.053 -0.0250  0.0250  0.0624
23086W        W41940  11.960  15.680   1.325 -0.1869  0.1156  0.0925
23087W        W41941   0.272   2.751   1.841  0.1695 -0.2516  0.0656
23088W        W41942  13.465   7.674   3.130  0.0952 -0.2032 -0.0225
23089W        W41943  13.131  16.659   0.311  0.3349  0.1491  0.1017
23090W        W41944  11.142   4.557   2.598 -0.0524 -0.0688 -0.3044
23091W        W41945   3.117   4.576  13.498 -0.1982  0.1041 -0.0405
23092W        W41946   3.933  11.533  15.886 -0.4454  0.1782 -0.1241
23093W        W41947   7.288  10.742  15.114 -0.0681  0.2210 -0.0726
23094W        W41948   3.009  10.834   0.750  0.2521  0.2250  0.1722
23095W        W41949   0.479   3.593  12.706  0.0659  0.0031 -0.0832
23096W        W41950   5.154   5.051   3.798  0.3222  0.2484 -0.4080
23097W        W41951  13.537  14.723   4.443  0.0915  0.1494  0.1565
23098W        W41952  13.137  15.526  15.585 -0.2035 -0.1027 -0.0826
23099W        W41953  13.151   1.216   1.486  0.0449  0.3035  0.0659
23100W        W41954  11.783   8.467   5.219 -0.0203 -0.1038 -0.0300
23101W        W41955  11.932   3.383   0.369 -0.0857  0.1497  0.1845
23102W        W41956   2.577   8.968   4.197 -0.0288  0.1529  0.1777
23103W        W41957   5.342  15.859   4.029  0.1266 -0.1907  0.1077
23104W        W41958   9.054   0.645   3.921  0.0058 -0.2812  0.0357
23105W        W41959   2.683   9.840   3.976 -0.1093 -0.1799  0.1059
23106W        W41960   6.576  13.502   4.045 -0.0230 -0.1118  0.1650
23107W        W41961   4.020  14.732  13.082  0.0962  0.1157 -0.0391
23108W        W41962   1.899   8.995  17.135 -0.0027 -0.0543 -0.2339
23109W        W41963  14.941   2.759  12.182 -0.2237 -0.2442  0.2518
23110W        W41964  15.896  11.254   0.051 -0.3540  0.2296  0.0760
23111W        W41965   1.177  17.008  12.468  0.0991  0.3771  0.2158
23112W        W41966  11.095  17.576  15.061  0.1568  0.1175  0.0882
23113W        W41967   7.645  17.385   3.311 -0.0315 -0.2725  0.0528
23114W        W41968  17.391  11.391  16.070  0.2316 -0.1985  0.0210
23115W        W41969   9.319   0.014  16.959  0.0547  0.2776 -0.0382
23116W        W41970   7.099  13.644   1.937  0.3131  0.3089 -0.0908
23117W        W41971   6.347   9.531   0.964  0.1602 -0.3070 -0.2752
23118W        W41972  16.776   2.042   1.422 -0.2079 -0.1626  0.1512
23119W        W41973  14.726   6.013   1.895  0.0144 -0.0608 -0.0758
23120W        W41974   1.289  15.066  15.600  0.2319  0.0919  0.0737
23121W        W41975   1.119   3.161  15.959  0.0058  0.3171 -0.0391
23122W        W41976   4.360   1.145   3.453  0.2384 -0.0251 -0.0119
23123W        W41977  14.630  13.015   2.890  0.1620  0.2445  0.0434
23124W        W41978  10.947   7.080  14.443  0.0243 -0.4529  0.2716
23125W        W41979   4.702  13.732  15.856  0.0605 -0.0410 -0.0730
23126W        W41980   8.567  15.204  17.022 -0.0553 -0.1380 -0.2227
23127W        W41981  13.320   5.750   3.206  0.1311  0.1283 -0.0364
23128W        W41982  14.252  10.771   4.639  0.1789  0.1981  0.3824
23129W        W41983  15.215  12.735   2.157  0.2744 -0.1418  0.2918
23130W        W41984   2.612  16.080   0.255  0.0497 -0.0306  0.1279
23131W        W41985   6.319   0.316   4.505  0.0007 -0.1776 -0.0794
23132W        W41986   9.464  14.288   2.926  0.2544  0.2993 -0.2263
23133W        W41987  14.238  14.147  15.276 -0.0087 -0.1964  0.1958
23134W        W41988   6.444  11.479   5.270 -0.1712 -0.0167 -0.2167
23135W        W41989   9.532  10.274  15.224  0.1061 -0.3007  0.0169
23136W        W41990  11.694   2.596   1.421 -0.0721  0.0501 -0.0223
23137W        W41991  10.937   9.308   2.872  0.1638  0.1106  0.0801
23138W        W41992   7.880  14.970  14.663 -0.0566  0.2372 -0.1027
23139W        W41993   2.403  17.433   4.108 -0.3060 -0.0885  0.4851
23140W        W41994   8.616   5.177   1.576 -0.0627 -0.2716  0.0966
23141W        W41995   7.880  12.997   3.161 -0.0687 -0.1619  0.0169
23142W        W41996  11.992   8.370  16.496 -0.0906  0.1673 -0.2178
23143W        W41997   8.921   6.234   0.665 -0.1204 -0.3366  0.0246
23144W        W41998   0.767   8.855  11.924 -0.1473  0.0939 -0.2272
23145W        W41999  14.829  12.292   0.695  0.0851 -0.2432 -0.4406
23146W        W42000  14.414   3.696  14.443 -0.2586  0.3914  0.1121
23147W        W42001   4.503   1.648   2.946  0.1626  0.0375  0.2242
23148W        W42002   9.336   8.887   4.200 -0.0952 -0.3225 -0.0774
23149W        W42003   7.767  16.746   0.985  0.2018 -0.2341  0.0280
23150W        W42004   7.717   2.030  13.249  0.2112 -0.0700  0.0163
23151W        W42005  13.611   8.105   2.828  0.0155  0.2048 -0.0778
23152W        W42006  15.923   5.514   3.060 -0.0518 -0.0726  0.2168
23153W        W42007   2.115  15.246  12.120 -0.0260 -0.0385  0.0532
23154W        W42008  13.598  12.378  15.025 -0.0962 -0.2468 -0.0767
23155W        W42009   8.310  16.652   3.262  0.0390 -0.7812 -0.0511
23156W        W42010   3.873   0.440   1.797 -0.0054 -0.0906  0.0731
23157W        W42011   3.823   3.129  16.789 -0.0860 -0.0954 -0.1354
23158W        W42012   5.790  16.340  13.267  0.0075 -0.0387 -0.3774
23159W        W42013  11.479   1.277   1.091  0.1161  0.2633  0.5839
23160W        W42014   9.719  17.277   5.051  0.1233 -0.4053 -0.2897
23161W        W42015   6.580   7.931   0.129 -0.1671  0.0127  0.0130
23162W        W42016   7.304   5.154  14.413  0.2560 -0.1190  0.1219
23163W        W42017   6.282   8.244  15.876  0.0153  0.0905 -0.1010
23164W        W42018   3.077   3.621  15.480 -0.1995 -0.2885 -0.2011
23165W        W42019   4.887   9.665  14.255 -0.0869 -0.2640 -0.0310
23166W        W42020  14.229   0.980  13.373  0.2656 -0.1163  0.0719
23167W        W42021   3.548  16.124  14.661  0.0280  0.2479 -0.1308
23168W        W42022  11.134   9.039  13.251  0.0603 -0.0626  0.4012
23169W        W42023   0.517   3.050  13.813 -0.1636  0.0819 -0.0287
23170W        W42024   9.971  16.730   2.066 -0.1134 -0.0868  0.1858
23171W        W42025  16.693   9.279   4.958 -0.1461 -0.1830  0.2314
23172W        W42026   7.100  14.088   1.529 -0.0723  0.2367 -0.2944
23173W        W42027   9.564  12.050   5.494  0.1740  0.2171  0.0538
23174W        W42028  14.636  13.673  15.184  0.0952 -0.0198 -0.1776
23175W        W42029  16.002  12.741   3.190 -0.1652 -0.1241  0.1126
23176W        W42030  16.192   7.569  15.156 -0.1573 -0.0421 -0.2425
23177W        W42031  12.104   2.314   0.523 -0.1403 -0.0079 -0.0387
23178W        W42032   5.960  11.261   2.584 -0.2508 -0.1278 -0.0853
23179W        W42033  17.459  14.480   5.314  0.1142 -0.0415  0.2526
23180W        W42034   5.082   9.296  15.721  0.1742 -0.1839 -0.3396
23181W        W42035   4.225   1.748   0.556  0.1694  0.2217  0.0570
23182W        W42036  11.011  13.697   2.895  0.0328 -0.0428  0.2012
23183W        W42037   3.231  17.432   2.581 -0.0030  0.0077 -0.1243
23184W        W42038   2.632  11.389  12.358  0.1696 -0.1666  0.0463
23185W        W42039  11.634  17.058   4.787 -0.0311 -0.1017  0.2460
23186W        W42040  13.654   5.789  12.913  0.0524  0.0975 -0.0284
23187W        W42041  16.710   9.335   2.054  0.0709  0.2640 -0.2855
23188W        W42042   1.312  10.594  15.529  0.0918  0.3872 -0.0753
23189W        W42043  12.691   3.193   1.584  0.0184  0.1336  0.0233
23190W        W42044  12.673  10.624   4.547  0.0446 -0.0045  0.2211
23191W        W42045   0.932  17.446  12.522 -0.0322 -0.0637 -0.1536
23192W        W42046   2.181   9.293   3.082 -0.1086  0.0714  0.1637
23193W        W42047  14.568   3.728   2.461  0.3721  0.1077 -0.3826
23194W        W42048  16.995  16.104   4.683 -0.2323  0.4100 -0.1748
23195W        W42049   7.834  12.203  12.303 -0.1277 -0.2700 -0.1684
23196W        W42050   7.259   0.756   3.448 -0.0441  0.4124  0.2209
23197W        W42051  15.195  14.991   4.570 -0.1080 -0.0129 -0.0140
23198W        W42052  15.654  15.197  15.519 -0.3148 -0.0706 -0.1322
23199W        W42053   7.698  16.854   4.763  0.0292 -0.0990 -0.2377
23200W        W42054  15.150   0.688  15.387  0.1391 -0.1755 -0.2131
23201W        W42055   7.423  16.934   3.306 -0.2890 -0.3060  0.2152
23202W        W42056   3.019  13.373   0.113 -0.0855 -0.1217 -0.0520
23203W        W42057   3.108   3.426   0.900 -0.2123  0.1171 -0.2088
23204W        W42058   0.708   5.571  15.995  0.2179  0.2002 -0.1351
23205W        W42059   9.608  13.803   3.083 -0.1563  0.0662  0.0990
23206W        W42060   5.626  15.262  16.284  0.3147  0.4774 -0.0946
23207W        W42061  17.463  12.443  15.253 -0.2314  0.0926  0.4091
23208W        W42062   4.072  12.651  12.804  0.1842  0.4418  0.1153
23209W        W42063  15.340   0.853   1.282 -0.1242  0.0127  0.0824
23210W        W42064   7.410   4.552  16.589  0.0669  0.0620 -0.0695
23211W        W42065   2.695  17.107  13.999 -0.1484 -0.3408 -0.4795
23212W        W42066   5.906   7.931  15.715  0.1549 -0.0843 -0.0258
23213W        W42067   0.943   9.548   1.309  0.1018 -0.0763  0.2226
23214W        W42068  11.173   8.800   5.179 -0.0942  0.0731  0.1033
23215W        W42069  13.972   3.727   3.277 -0.0560 -0.0088 -0.1312
23216W        W42070   6.709  16.529  16.321  0.1017  0.1125 -0.0283
23217W        W42071  11.846   6.797  13.214 -0.0097  0.1207  0.3468
23218W        W42072  14.771  10.631  16.162 -0.0288 -0.0396  0.2187
23219W        W42073   9.922  17.450   2.467 -0.0795  0.2143  0.1139
23220W        W42074  14.339  17.103   4.999  0.4144  0.3199  0.3459
23221W        W42075  12.246   8.907  15.736 -0.0531 -0.0438  0.3609
23222W        W42076   6.736  14.987  13.997 -0.0847 -0.1650 -0.1179
23223W        W42077   6.919   2.934  13.712 -0.1383 -0.0376  0.1777
23224W        W42078   4.619   8.209  12.483  0.3516  0.0799  0.0202
23225W        W42079   1.960  11.522   0.176  0.1038 -0.0673  0.2431
23226W        W42080  13.507   1.657  12.661 -0.2929 -0.1395  0.1722
23227W        W42081  17.308   3.155  12.296 -0.1888 -0.1347  0.3342
23228W        W42082   0.163  12.543   2.624  0.0395  0.2949  0.1522
23229W        W42083  13.977   3.104   1.384 -0.0596  0.0231  0.0760
23230W        W42084  15.202  13.254   2.923 -0.1469  0.0601 -0.3243
23231W        W42085  10.620  15.382   4.354  0.0576 -0.0417 -0.1285
23232W        W42086   5.332  16.652  17.014 -0.0855  0.0756 -0.2607
23233W        W42087   3.508  16.905  15.782  0.1077  0.0243  0.0923
23234W        W42088   3.809   2.683   2.494 -0.0659 -0.0326 -0.1578
23235W        W42089   4.893  12.126  13.360 -0.1665 -0.2621 -0.1159
23236W        W42090   1.482   0.041  16.274 -0.1089  0.1607  0.1986
23237W        W42091  10.542  17.306  12.525 -0.1556 -0.0592  0.2379
23238W        W42092   0.098   7.133   2.516  0.2463 -0.1630  0.3648
23239W        W42093   8.458   5.589  11.544  0.1430  0.0840  0.2109
23240W        W42094   7.722   7.635   0.766 -0.0638  0.0776  0.1728
23241W        W42095  15.244  16.169  13.994 -0.5122 -0.1726 -0.0368
23242W        W42096   1.043   9.000  14.088  0.1985  0.0981  0.0983
23243W        W42097   8.832   8.842  15.723 -0.0148 -0.0842 -0.2907
23244W        W42098  12.345   0.431   4.075 -0.1081 -0.1060 -0.1480
23245W        W42099  16.364   5.508  13.547  0.0568 -0.0712  0.4403
23246W        W42100  12.401  13.802  16.200 -0.1262  0.0228  0.5261
23247W        W42101  11.434  16.526  16.535  0.2207 -0.0033 -0.0483
23248W        W42102   7.272   3.772   3.913 -0.2850  0.1362 -0.0631
23249W        W42103   9.442   5.411   3.902 -0.0898 -0.0474  0.0152
23250W        W42104   1.727   5.401  13.766 -0.0556  0.0420  0.0129
23251W        W42105   9.785   5.735   4.130 -0.1896  0.0055  0.0622
23252W        W42106  16.084  15.702   3.696  0.1421  0.0331  0.0619
23253W        W42107  12.336   9.303   5.352 -0.0455 -0.2021 -0.1556
23254W        W42108   2.951  14.610  15.261 -0.1448  0.1459  0.1407
23255W        W42109  16.196  13.191   1.280 -0.2965 -0.2642  0.1037
23256W        W42110   0.675  10.339  12.146 -0.1517  0.0518 -0.2571
23257W        W42111   7.301  11.207  16.569  0.2082  0.2309 -0.1313
23258W        W42112   8.682   0.298   4.312  0.1496 -0.0193 -0.1380
23259W        W42113  10.685  11.996  14.439 -0.1459  0.0586  0.1412
23260W        W42114   3.451   0.999   4.122  0.3003  0.3237 -0.4103
23261W        W42115   5.145  17.392  16.689  0.1317  0.0751 -0.2441
23262W        W42116  10.645  17.188   4.580  0.3695  0.0102 -0.0787
23263W        W42117   6.474  15.982   5.575 -0.0012  0.1317  0.0714
23264W        W42118   5.099   6.720   1.222 -0.1742 -0.0686  0.2708
23265W        W42119  10.993   7.995  12.867  0.1110 -0.1086 -0.0532
23266W        W42120  17.240  17.563   3.686 -0.1802  0.0414 -0.0688
23267W        W42121   0.125  10.572  15.237 -0.1521  0.3015  0.1129
23268W        W42122   9.282  14.321  15.682  0.3817 -0.0074  0.0742
23269W        W42123   9.171   6.140  14.957 -0.2240  0.5121  0.0474
23270W        W42124  14.475  15.554   4.737 -0.0817  0.1033  0.1807
23271W        W42125  17.456   1.270   2.887  0.1371  0.0138  0.1458
23272W        W42126   2.864   2.464  13.472 -0.0775 -0.2160  0.0565
23273W        W42127   3.433   7.895   3.164  0.3259  0.0847  0.0020
23274W        W42128   0.284  11.598   3.798 -0.2075 -0.0587  0.0063
23275W        W42129  14.636  15.078  15.543 -0.2580 -0.1019  0.0918
23276W        W42130   4.651  16.039   2.793 -0.0328  0.1490 -0.0022
23277W        W42131   2.870  16.470   4.925  0.1346  0.0754 -0.2560
23278W        W42132  16.236   4.012   0.265 -0.2780  0.0839 -0.2022
23279W        W42133   5.519   6.897   2.560  0.1257 -0.1559 -0.3934
23280W        W42134   8.102   7.720  13.105  0.0158  0.3751 -0.0570
23281W        W42135   1.265   5.081  16.549  0.0332 -0.0348  0.2923
23282W        W42136   2.186   9.624   2.688  0.2979  0.2011  0.1687
23283W        W42137  10.549   4.630  12.881  0.0026 -0.0237 -0.0167
23284W        W42138   1.553   2.779  12.921 -0.1076 -0.0959  0.0975
23285W        W42139   6.323  13.470   1.161 -0.0408 -0.0347  0.0606
23286W        W42140   8.535  10.828   1.870 -0.1459 -0.2844 -0.0279
23287W        W42141  14.813  17.278  16.161 -0.2486 -0.4763  0.2813
23288W        W42142   3.290   8.974   2.107  0.2904 -0.3721  0.1856
23289W        W42143  10.809   8.396   2.992 -0.0891 -0.2116 -0.0771
23290W        W42144  14.937  12.076   5.004 -0.1121 -0.1160  0.0912
23291W        W42145   6.631   7.391  12.898 -0.3716  0.1162 -0.0521
23292W        W42146   0.858   8.394  12.214  0.1068  0.0435 -0.1537
23293W        W42147   1.156   0.097  14.269 -0.0149  0.1459  0.2291
23294W        W42148   7.851  10.630   1.216 -0.0764  0.0148  0.3981
23295W        W42149   7.736  17.171  13.256  0.3658 -0.0601 -0.1938
23296W        W42150   2.913   6.788   1.630  0.0314  0.0286  0.1100
23297W        W42151  14.863  15.157  13.413 -0.1443 -0.3700  0.2576
23298W        W42152   5.418   8.269   3.944 -0.3268 -0.0305 -0.1671
23299W        W42153  10.127  10.419   0.514 -0.2473 -0.2416 -0.0182
23300W        W42154  17.126  12.372   5.525  0.2827 -0.0786  0.4499
23301W        W42155  13.274   0.762  16.293 -0.1590  0.1032 -0.0326
23302W        W42156  10.798  10.634  14.175 -0.2543  0.4359 -0.2517
23303W        W42157   2.486  11.747   3.842  0.2455  0.2236  0.0828
23304W        W42158  16.945  13.967   1.992 -0.0596 -0.0951 -0.2086
23305W        W42159  17.536  12.818   0.470  0.2860 -0.2438 -0.0500
23306W        W42160   8.043  13.902   0.463  0.0168  0.1912  0.0164
23307W        W42161  14.861  12.314   3.141 -0.0630  0.1157 -0.0417
23308W        W42162   6.163   2.991   0.320 -0.1541 -0.2925 -0.0689
23309W        W42163   0.881   2.967   3.140 -0.1036  0.0164 -0.5079
23310W        W42164  10.135   6.863   3.250  0.1810  0.1202 -0.1941
23311W        W42165   3.047   6.260   1.619  0.2967  0.1909  0.1101
23312W        W42166   9.249   9.245   2.325  0.2685 -0.0033  0.1409
23313W        W42167  10.841   4.262   0.128  0.1757 -0.0235  0.2214
23314W        W42168  13.762   3.602   5.623  0.0182 -0.1454  0.2203
23315W        W42169   0.319   7.805  15.898  0.1300 -0.2717  0.1322
23316W        W42170   0.633   8.219  12.745  0.1447 -0.0449 -0.0735
23317W        W42171  14.057   4.168   4.578  0.3643 -0.4032 -0.0908
23318W        W42172   1.201   7.838  14.730 -0.0689 -0.2927 -0.2719
23319W        W42173   1.982  14.207  11.310 -0.0035 -0.1444  0.4331
23320W        W42174   2.172   8.448  16.562  0.0881  0.0781  0.1853
23321W        W42175  12.522   6.325   0.450 -0.0090  0.0935  0.1559
23322W        W42176   7.309  10.992   5.011 -0.2363 -0.0858  0.0722
23323W        W42177   2.944  11.122   1.095  0.0540 -0.0762  0.1315
23324W        W42178   3.925   4.739  14.028 -0.0849 -0.1000  0.3085
23325W        W42179  15.199   7.130   3.683  0.0536  0.2948  0.2573
23326W        W42180  10.135   6.182  12.910  0.1689  0.0211  0.0230
23327W        W42181   6.319  11.137  14.181  0.0933 -0.2515  0.3949
23328W        W42182   9.604   2.908  15.104 -0.3848  0.0198 -0.1071
23329W        W42183  17.511   6.098   3.204  0.3181 -0.1201  0.2620
23330W        W42184  14.915   7.230  14.573 -0.1191 -0.1245 -0.0529
23331W        W42185   5.636   1.632  16.280 -0.1473  0.0863 -0.0038
23332W        W42186   4.898  17.099  12.800  0.5145 -0.0715  0.1283
23333W        W42187   8.029  15.125   4.991 -0.1089 -0.1209  0.0535
23334W        W42188   8.516   3.173   0.666  0.2060  0.0810 -0.3042
23335W        W42189   7.765   0.619  13.327 -0.3135 -0.0932  0.1311
23336W        W42190   0.535  15.666  14.653  0.0211 -0.2483 -0.2685
23337W        W42191  12.587  15.789  13.680  0.5183  0.0861 -0.4771
23338W        W42192   6.937   6.717   1.379 -0.0040  0.1760  0.2493
23339W        W42193   4.745   2.638  11.687  0.0150 -0.0268  0.1368
23340W        W42194  12.991  11.896  16.802  0.2260 -0.1010  0.0761
23341W        W42195  10.177  15.253  15.786 -0.4092  0.1490  0.0203
23342W        W42196   0.193   5.840   4.809 -0.3330 -0.0598 -0.0639
23343W        W42197   3.582   1.691  12.137 -0.0651  0.2657  0.2634
23344W        W42198   7.444   4.966  16.349  0.0798 -0.0396 -0.1577
23345W        W42199  14.114   5.401   4.897  0.2584  0.2134 -0.5597
23346W        W42200  11.723   8.615  16.107  0.1204 -0.2880  0.0085
23347W        W42201   3.143   0.543   5.017 -0.0269  0.3440  0.0098
23348W        W42202  10.148  11.567   3.870 -0.1234  0.1174 -0.1953
23349W        W42203  13.461  13.615  16.644 -0.0521 -0.1652  0.1383
23350W        W42204   0.698  12.199   4.304 -0.2037  0.1221 -0.3160
23351W        W42205  13.249   8.559   2.982 -0.0673  0.1894 -0.3328
23352W        W42206  14.215  15.805  13.266  0.3519 -0.0014  0.0440
23353W        W42207   5.442   4.734   3.108  0.0735 -0.1432  0.0065
23354W        W42208  11.830   3.365  12.921  0.0153  0.1640 -0.1143
23355W        W42209   0.845   7.957  15.071 -0.0068 -0.1008 -0.1646
23356W        W42210   9.106   9.884   1.082 -0.1767 -0.1592  0.1933
23357W        W42211   1.164  10.018   1.519  0.0739 -0.0302  0.1386
23358W        W42212  15.472  15.918  16.132 -0.1984 -0.0383 -0.4735
23359W        W42213   2.918  12.571  12.341 -0.0542 -0.0927 -0.2641
23360W        W42214   6.655   5.249   2.397 -0.2607 -0.0995  0.1829
23361W        W42215  11.711  16.522   1.352  0.1431  0.0368 -0.1557
23362W        W42216  14.483   1.734  12.194  0.0628  0.2730  0.1549
23363W        W42217   3.374   3.401  16.367 -0.1432 -0.3605  0.0937
23364W        W42218  12.434  16.937   2.593  0.1884 -0.3814  0.1107
23365W        W42219  12.871   8.079   0.456  0.1179  0.2496  0.0893
23366W        W42220  16.302  10.679   1.557  0.1788 -0.0010 -0.1337
23367W        W42221  17.354   8.759  16.546  0.0676  0.2080  0.2747
23368W        W42222   4.423   0.250  13.980 -0.2814  0.0777 -0.1531
23369W        W42223   3.657   6.941   2.238 -0.2205  0.0656 -0.1000
23370W        W42224   8.101  11.487  15.765  0.1145  0.3486  0.0924
23371W        W42225   3.929  13.721   0.952  0.3616 -0.2770  0.1041
23372W        W42226   0.471   6.754   0.833  0.2561 -0.0911 -0.0076
23373W        W42227   5.124  14.549   2.730  0.2214 -0.2257 -0.1671
23374W        W42228  10.959  12.132  12.409 -0.3372 -0.0326 -0.3445
23375W        W42229   4.624   5.327  12.423 -0.2049 -0.0698 -0.4559
23376W        W42230   5.760   8.739   4.267 -0.0458  0.0019  0.0114
23377W        W42231   3.299   2.342  15.223  0.4188 -0.1167  0.1523
23378W        W42232   9.244  16.517   0.753 -0.1585  0.4345 -0.1619
23379W        W42233   8.947   6.576   5.075  0.1063 -0.0845  0.2445
23380W        W42234  16.727  10.925   2.048 -0.1260  0.0219  0.1805
23381W        W42235   9.291   8.981   1.438  0.1394 -0.1059  0.5254
23382W        W42236   9.718   3.302   4.230 -0.1585 -0.0669  0.0228
23383W        W42237   3.723   8.283  12.744  0.2985 -0.2890 -0.0676
23384W        W42238   1.364  15.649  13.565 -0.1694  0.0749  0.3541
23385W        W42239   1.694  10.730  16.598  0.2187 -0.1852 -0.0323
23386W        W42240  12.213   0.547   2.988 -0.3620 -0.4620 -0.6553
23387W        W42241  11.610  12.132   2.028 -0.2394  0.0691  0.0395
23388W        W42242  17.235  17.587  15.348 -0.1627 -0.0970  0.1175
23389W        W42243  16.465   1.651   2.678  0.1176  0.0823 -0.0397
23390W        W42244   6.507   7.371   3.904  0.3305  0.1781 -0.3234
23391W        W42245  12.491  11.566   3.177 -0.0633 -0.0938 -0.1575
23392W        W42246   8.065   4.541   1.447  0.2813  0.0737  0.0398
23393W        W42247   0.612  14.999   4.010  0.0667 -0.3329 -0.3479
23394W        W42248   8.208  12.515  12.303 -0.1074 -0.0568 -0.0955
23395W        W42249  16.335  17.066  15.202 -0.0235 -0.0063 -0.0323
23396W        W42250   9.958  13.263  14.088 -0.2322 -0.2105 -0.2509
23397W        W42251  11.701  11.011  13.066  0.1142  0.2293  0.1278
23398W        W42252   8.665   2.680   2.249 -0.1739  0.0680  0.2286
23399W        W42253   8.130   6.660   0.734 -0.1955 -0.2923 -0.1727
23400W        W42254  12.708  15.485  15.909 -0.2793  0.1412 -0.1416
23401W        W42255  15.167  14.499   1.463 -0.3229  0.0477  0.4246
23402W        W42256   1.669   3.119   4.363  0.0111 -0.1306  0.1324
23403W        W42257   4.408   6.175   4.495  0.4289 -0.0618 -0.0785
23404W        W42258   0.399  16.882   0.509 -0.1095 -0.0025 -0.0813
23405W        W42259   3.621   5.020   1.749 -0.0628  0.0369  0.2446
23406W        W42260   4.540  13.864   0.962 -0.2021 -0.0835  0.0074
23407W        W42261   0.615   4.271  13.468 -0.1906  0.0340 -0.3164
23408W        W42262   5.612  15.777   5.138  0.1498 -0.0852  0.1808
23409W        W42263   0.478   4.454   5.013  0.0385 -0.0015  0.1945
23410W        W42264   4.945   1.584   2.116 -0.0067  0.0446  0.2903
23411W        W42265   5.491  10.380   3.418  0.1022  0.4436  0.0977
23412W        W42266   8.910   7.153  16.086 -0.3339  0.1641  0.1572
23413W        W42267  12.030   5.094   2.404  0.0007 -0.3015  0.1207
23414W        W42268   3.983  11.870   1.200 -0.1523  0.0326 -0.1936
23415W        W42269  10.109  12.884  15.061  0.4048 -0.3272 -0.0223
23416W        W42270  17.582   5.629   3.412  0.2530  0.2052 -0.1325
23417W        W42271  15.056  17.262  16.589  0.0995  0.0180  0.1992
23418W        W42272  15.146   9.331   3.032 -0.2870  0.3352 -0.0144
23419W        W42273  16.593  11.202  15.107 -0.1549  0.2933  0.0010
23420W        W42274  12.798   3.708  12.049 -0.1189 -0.1689 -0.1261
23421W        W42275  17.441  10.326   0.259 -0.2455 -0.0569  0.0758
23422W        W42276   4.095   3.602   1.583  0.2084 -0.2099 -0.0968
23423W        W42277  10.295   1.129  15.887  0.0860 -0.0026  0.0414
23424W        W42278   9.925  15.396   2.076  0.0533 -0.1473 -0.1597
23425W        W42279   0.607  16.753  13.140  0.2358 -0.1141  0.0196
23426W        W42280   7.748   1.512  16.360 -0.0634 -0.0829 -0.0364
23427W        W42281   6.368  13.097   5.230  0.1313 -0.2054 -0.0170
23428W        W42282  13.469   0.638   1.052  0.0128  0.3436 -0.1039
23429W        W42283   6.805   3.882  16.652 -0.1274  0.1998  0.3796
23430W        W42284  15.658   1.617   2.384  0.0698  0.0412  0.0362
23431W        W42285  13.352   3.892   1.503  0.2727  0.0145  0.0459
23432W        W42286  15.003   8.131  13.660 -0.0238 -0.1088 -0.0821
23433W        W42287   6.883   4.849  12.301 -0.2152  0.5828 -0.0372
23434W        W42288  12.679   2.549   1.174  0.1305  0.3947 -0.2087
23435W        W42289   3.174   7.746  13.634 -0.1655  0.3250  0.1747
23436W        W42290   9.716   3.706  17.220  0.1177  0.1779  0.0127
23437W        W42291   1.308   0.554  12.560  0.0589  0.0752  0.0914
23438W        W42292   9.688  16.577  14.986  0.1317 -0.0948  0.1091
23439W        W42293  16.245  11.919  14.258 -0.2163  0.0527 -0.0364
23440W        W42294  15.417  15.830   0.092 -0.1133 -0.2184  0.1042
23441W        W42295  11.072  11.186   0.606  0.3622 -0.2937 -0.0686
23442W        W42296  15.573  10.057   3.767  0.3739 -0.1811  0.0938
23443W        W42297  16.212  13.692  13.206  0.0341  0.1249 -0.1213
23444W        W42298   0.984  14.586   2.856 -0.2757  0.0393  0.3502
23445W        W42299   4.083  13.215  16.459  0.1848 -0.0462 -0.0257
23446W        W42300   2.395  16.890   4.429 -0.1280  0.1273 -0.0768
23447W        W42301   3.206  11.913   2.818  0.1678  0.1181 -0.0838
23448W        W42302   8.709  14.214   3.734 -0.0921 -0.1062 -0.1753
23449W        W42303   7.722   1.785   4.716 -0.0279 -0.0207  0.3368
23450W        W42304  10.257   9.955  14.198 -0.0718  0.2050  0.1599
23451W        W42305   4.664   2.546  16.934 -0.1122 -0.2010  0.1784
23452W        W42306  14.008   5.170   3.292  0.0459 -0.0569 -0.1043
23453W        W42307  11.579   8.125   1.099 -0.0472 -0.1415  0.0599
23454W        W42308  10.133   7.047  14.755 -0.1124 -0.0686  0.2696
23455W        W42309  15.562  10.551   2.432 -0.0264  0.2974 -0.3033
23456W        W42310  13.484   6.586  16.239  0.2835  0.0905  0.0977
23457W        W42311   2.313   6.443  12.558 -0.1323 -0.1438 -0.1621
23458W        W42312   1.422  16.580   0.559  0.0742 -0.2869  0.0693
23459W        W42313   8.988   7.807   0.569 -0.3015 -0.2141 -0.0775
23460W        W42314   7.476  11.768  15.894 -0.2111  0.0578 -0.1450
23461W        W42315   1.708   9.196   0.793  0.0876 -0.0244  0.2342
23462W        W42316   3.503  11.840  14.752  0.0510 -0.0244 -0.0111
23463W        W42317  10.330  15.004   4.202  0.0284  0.2987 -0.0407
23464W        W42318  14.941   1.320   1.999  0.2306 -0.0145 -0.0860
23465W        W42319  11.003  10.156  16.476  0.0401  0.0361  0.0349
23466W        W42320   7.129  15.556   0.016 -0.0768 -0.1598  0.1477
23467W        W42321  13.935  16.610   3.069  0.2330 -0.1329  0.0036
23468W        W42322   6.973  10.649   0.679 -0.0314 -0.1018 -0.2748
23469W        W42323   0.148  12.087   2.943 -0.0728  0.2543  0.0835
23470W        W42324  16.202  14.613   2.392 -0.2967 -0.0754 -0.1023
23471W        W42325   0.968   3.324   1.396  0.0887  0.2471 -0.1920
23472W        W42326   7.377   8.892   1.082  0.0544 -0.5157 -0.4189
23473W        W42327  16.630  14.262   4.054  0.1354 -0.0542 -0.0368
23474W        W42328   6.948   1.680   4.528 -0.5036 -0.1013  0.0799
23475W        W42329  14.218   7.894  14.189  0.0539 -0.1884 -0.3381
23476W        W42330   0.952  14.262   4.870 -0.2904  0.0530  0.0509
23477W        W42331   8.988   6.619  14.826  0.2257  0.0360  0.2076
23478W        W42332   5.453   1.905   4.043  0.1469  0.0524  0.1345
23479W        W42333   1.103   6.951  12.291  0.1934 -0.0410  0.0314
23480W        W42334   7.385   6.074   1.058 -0.0433  0.1379  0.0971
23481W        W42335   2.681   4.192  16.213  0.1359  0.2444  0.2466
23482W        W42336  15.608  11.292  14.341 -0.1590 -0.0535 -0.1421
23483W        W42337   2.685  15.111  13.806  0.1608  0.1236 -0.4863
23484W        W42338   9.960   9.118   0.269 -0.3516  0.0998 -0.0194
23485W        W42339  12.438   1.100  14.603 -0.1015 -0.2642 -0.2687
23486W        W42340   4.436  10.712   2.565 -0.0082  0.0450  0.1103
23487W        W42341  15.898   1.948  15.882  0.3461 -0.3684  0.0316
23488W        W42342   8.850   8.967  14.404 -0.1866  0.0662  0.0844
23489W        W42343   9.256   6.085   5.010  0.1132 -0.3266 -0.1842
23490W        W42344  14.272  15.372   2.616 -0.1607 -0.0194 -0.0244
23491W        W42345  10.176   8.610   0.106 -0.0136  0.1144 -0.0910
23492W        W42346   8.660   7.436   0.652 -0.1740 -0.0566 -0.0622
23493W        W42347   6.383  13.437   3.405  0.3952 -0.1831 -0.0641
23494W        W42348   3.018  15.227   2.098  0.0072 -0.0262 -0.0062
23495W        W42349   4.596  13.891  15.215 -0.1120  0.1144  0.1495
23496W        W42350  15.025  13.884  13.668 -0.0284 -0.0357 -0.3047
23497W        W42351  16.921   8.256  12.455  0.0997  0.0022 -0.1948
23498W        W42352  11.481   6.516   2.317  0.1412 -0.1202  0.1090
23499W        W42353  12.431  14.751  16.134 -0.0554 -0.1110  0.2523
23500W        W42354  10.637   1.271  15.443  0.0634  0.0624 -0.1387
23501W        W42355   6.498  11.116   0.640 -0.1841  0.1461 -0.1104
23502W        W42356  14.746   5.216  10.646  0.2762 -0.0912  0.1897
23503W        W42357  13.199  15.425  16.136 -0.0502 -0.2088 -0.1143
23504W        W42358   4.828   8.699  15.498  0.0838  0.1433 -0.0561
23505W        W42359  11.794   5.535  12.686 -0.0664 -0.1398 -0.1164
23506W        W42360  17.521   8.507  16.168  0.0636  0.1541 -0.1158
23507W        W42361   8.614   8.366   4.196  0.1128  0.2306 -0.1373
23508W        W42362  10.418   0.846  13.508 -0.3977 -0.4309  0.0769
23509W        W42363   9.590  16.613   1.135  0.1441  0.0126 -0.2038
23510W        W42364   1.052   2.103   1.150 -0.0683  0.1072  0.4858
23511W        W42365   7.595   3.458   2.651 -0.2126  0.0938 -0.0433
23512W        W42366   8.846   0.549   1.039 -0.0310 -0.0821  0.2592
23513W        W42367  15.918  14.717  15.858  0.1015 -0.0117  0.0414
23514W        W42368   6.184   6.953   4.073 -0.4248  0.3437 -0.0628
23515W        W42369  12.749   1.153  13.271 -0.1072  0.0046  0.0418
23516W        W42370   2.909  10.148  14.077  0.1100  0.0898  0.0024
23517W        W42371  14.559   8.045  12.119 -0.0345  0.2299  0.2851
23518W        W42372  14.540  16.326  12.486 -0.0356 -0.1684 -0.0749
23519W        W42373   1.483   2.558   4.693 -0.2729 -0.1058 -0.3450
23520W        W42374   6.207  13.870   2.051  0.1442  0.1836 -0.1350
23521W        W42375   0.367   9.902  16.192 -0.0183  0.2964  0.1047
23522W        W42376  14.676   2.271   1.968  0.0966 -0.1764  0.1591
23523W        W42377  11.203   0.827   4.982  0.0877  0.1261 -0.2218
23524W        W42378   0.626   9.050  15.416 -0.0990 -0.1833 -0.0668
23525W        W42379  16.424   0.221   0.276  0.2027  0.0903 -0.1179
23526W        W42380   5.761  17.594  14.161  0.0180  0.3074  0.1246
23527W        W42381  11.173  12.270   2.308  0.1539  0.0183  0.0921
23528W        W42382   5.215  16.520   0.513 -0.0640 -0.0762 -0.0921
23529W        W42383   1.616   3.684  12.017  0.0336  0.0100  0.0097
23530W        W42384   2.113  13.907  13.944 -0.2206  0.0857 -0.6489
23531W        W42385  14.810  10.374   1.120 -0.0434 -0.1847 -0.1308
23532W        W42386  13.057  15.495   5.928  0.1231  0.2440  0.0977
23533W        W42387  15.748  10.918  14.737  0.0798  0.1506  0.4562
23534W        W42388  16.441  15.493   3.359 -0.0781  0.1843  0.2818
23535W        W42389  16.230   4.828  14.651  0.1571 -0.0377  0.1883
23536W        W42390   6.210   0.772   1.884  0.3313 -0.1693  0.1665
23537W        W42391   5.929  11.212  15.726  0.3450 -0.0196  0.1120
23538W        W42392   2.222   8.264   1.431 -0.1214 -0.0076  0.1759
23539W        W42393   0.373   8.521  11.815  0.0662  0.4056 -0.0745
23540W        W42394  12.714  16.598  14.527 -0.0151  0.0658 -0.0568
23541W        W42395   1.595   5.859   2.991  0.4669  0.3345 -0.6786
23542W        W42396   3.767  12.231  14.960  0.0589 -0.0348 -0.0295
23543W        W42397   6.557   3.241  13.576 -0.3583  0.3340  0.0444
23544W        W42398   9.038   5.253   3.101  0.4284  0.0410 -0.0028
23545W        W42399   9.792  14.936  16.435  0.1188  0.2690  0.2379
23546W        W42400   9.246  12.908  12.612  0.1924 -0.2568 -0.2121
23547W        W42401   0.838   0.384  12.560 -0.0314 -0.0054 -0.2479
23548W        W42402  13.986  14.676   3.042 -0.1463  0.1187  0.1491
23549W        W42403  10.659   9.016  13.166 -0.0387 -0.2202 -0.1835
23550W        W42404   8.648   3.469  14.358  0.0910 -0.2060 -0.1363
23551W        W42405   7.311   4.183  15.294  0.1332  0.2052 -0.4270
23552W        W42406  14.967  11.998   0.214  0.2900 -0.0215 -0.3042
23553W        W42407   3.451  13.686  13.120  0.1685 -0.0969 -0.0818
23554W        W42408   9.185  13.218  13.025  0.0807 -0.0621  0.0645
23555W        W42409   5.669   3.937   3.016 -0.2490 -0.0451 -0.1499
23556W        W42410  17.556  14.295   2.512 -0.0553 -0.0745 -0.1118
23557W        W42411   2.963  14.107  15.879 -0.3525  0.0644 -0.1689
23558W        W42412   9.987  16.365  14.653  0.0247  0.3662 -0.0289
23559W        W42413  13.759   0.499   3.240 -0.0083  0.2513 -0.2085
23560W        W42414  11.695   6.279   3.175 -0.3990  0.1678  0.1047
23561W        W42415  12.133  15.414  15.816 -0.0341  0.0691 -0.1058
23562W        W42416   9.450   4.339   5.371  0.0692 -0.1968 -0.3618
23563W        W42417  17.569  16.094   0.308 -0.3153 -0.0225  0.1010
23564W        W42418  16.764   3.575  15.320 -0.1037 -0.0429  0.0499
23565W        W42419   6.327  15.425   0.436  0.5481 -0.1433  0.2137
23566W        W42420   7.010   5.533  13.945 -0.0198 -0.2397 -0.0632
23567W        W42421  16.844  11.476  16.071 -0.4632  0.0669  0.2490
23568W        W42422  10.074  17.234   2.056 -0.0464 -0.0559  0.2743
23569W        W42423   2.960  15.018   3.297  0.0810  0.0129  0.3655
23570W        W42424   8.316   4.634   5.013 -0.1380  0.1178  0.0313
23571W        W42425   5.928  12.790   3.014 -0.2634 -0.0345  0.1566
23572W        W42426  13.779   5.152  15.553 -0.2441 -0.2530  0.2623
23573W        W42427  11.482  17.100  12.953 -0.1117  0.0524  0.0400
23574W        W42428  11.826   4.536   2.628 -0.1695  0.3551  0.1776
23575W        W42429  10.866   9.311   3.346 -0.0375 -0.0142 -0.1153
23576W        W42430   6.560  17.345  15.586  0.1246 -0.3856 -0.3319
23577W        W42431   7.184   5.860   0.647  0.0905  0.1211  0.2333
23578W        W42432   0.708  11.717   3.415 -0.0050 -0.1326  0.0932
23579W        W42433   3.990  10.744  16.445 -0.5318  0.0721  0.1443
23580W        W42434   3.247   5.131   1.157 -0.0197  0.0490 -0.0291
23581W        W42435   4.314   7.629  12.928 -0.0044  0.0403  0.0136
23582W        W42436  16.531  13.203  15.628  0.3563 -0.0913  0.1821
23583W        W42437   5.779  17.079  12.700 -0.1105 -0.2050 -0.3016
23584W        W42438   9.405   9.631  13.145  0.3997  0.0103 -0.0368
23585W        W42439  12.979   6.158  12.841  0.4593 -0.0770  0.0865
23586W        W42440   1.516  14.718   0.090 -0.3806 -0.1237 -0.1237
23587W        W42441   2.791  10.199  13.541 -0.1387  0.0673  0.2113
23588W        W42442   1.429   9.787   4.237  0.1377  0.0055 -0.2325
23589W        W42443   9.811   3.968  12.692  0.1954 -0.1288  0.0629
23590W        W42444   0.227  17.452   4.531  0.0004  0.1605  0.1919
23591W        W42445  12.122   8.503  12.967  0.0475 -0.1799  0.0891
23592W        W42446  14.408  17.172   3.940  0.1693 -0.1291 -0.0771
23593W        W42447  13.437  11.475   3.946  0.0859 -0.1926 -0.2088
23594W        W42448   6.339   2.053  16.143 -0.1173  0.3153  0.2851
23595W        W42449  12.230   8.835  16.314  0.1114  0.1947  0.0596
23596W        W42450   0.763   8.396  14.871  0.1288  0.2864  0.3045
23597W        W42451  15.743   7.599  16.639  0.1899  0.2007 -0.0526
23598W        W42452  14.683   4.212   4.428 -0.1540  0.1418 -0.0984
23599W        W42453   5.391  10.070   3.860 -0.2141 -0.4072 -0.0658
23600W        W42454   4.232   3.929  14.723 -0.0921  0.3295  0.0599
23601W        W42455  10.904   0.198   2.078  0.2563  0.2890 -0.0526
23602W        W42456  16.962   3.584   2.611  0.5179  0.1572 -0.0182
23603W        W42457   4.156   0.490   4.667  0.1014 -0.1512 -0.0787
23604W        W42458   3.608  14.407  12.378 -0.1682  0.3843 -0.0932
23605W        W42459  15.575   4.737   4.899 -0.1517  0.1709  0.0458
23606W        W42460   2.754  17.107   4.966 -0.1249  0.0789 -0.1101
23607W        W42461  10.569   9.368  15.034 -0.1254  0.2001  0.1591
23608W        W42462   2.473   2.899   4.655  0.0375 -0.0861  0.0193
23609W        W42463   3.760  12.438   4.912 -0.1066  0.2214 -0.0884
23610W        W42464   1.534   1.605   1.615  0.1319 -0.0046  0.0846
23611W        W42465  12.371   3.804   1.005 -0.0470 -0.0241  0.1944
23612W        W42466   5.101   5.428  12.073 -0.1545  0.1620  0.1658
23613W        W42467  12.496   1.849  16.937  0.1838  0.3537 -0.1880
23614W        W42468   5.869   6.038   4.417 -0.1222  0.1744 -0.2261
23615W        W42469   3.132   9.535  12.351 -0.1259  0.1207 -0.1271
23616W        W42470  13.636   2.105   4.958 -0.0503  0.2896  0.3237
23617W        W42471   6.249   0.218  16.168 -0.2753 -0.0966  0.3235
23618W        W42472  14.544  14.833  15.979 -0.1297 -0.0443 -0.1815
23619W        W42473  10.397  11.139   2.480 -0.0558 -0.2778 -0.0604
23620W        W42474  12.406   2.033  15.981  0.0391  0.3007  0.1077
23621W        W42475   7.902  12.386   3.919  0.1090 -0.0851  0.1774
23622W        W42476  13.922   7.376  14.505 -0.0890  0.0227 -0.2823
23623W        W42477   1.424   9.658   1.234 -0.1299 -0.0764 -0.2868
23624W        W42478   7.765  15.288  16.684  0.0160 -0.2255 -0.0058
23625W        W42479   5.475   9.622   0.073  0.1485  0.1698  0.1410
23626W        W42480  11.488   1.537  13.517  0.2113  0.1728 -0.1068
23627W        W42481   0.815   9.806  15.967 -0.0223  0.1647  0.1252
23628W        W42482  13.018  14.721   4.281  0.0974  0.1786  0.1283
23629W        W42483   8.096   7.278  15.907 -0.0526  0.1825  0.2933
23630W        W42484  13.396   3.267   2.142 -0.3729  0.1583  0.0344
23631W        W42485  11.493  16.636  14.570 -0.1506 -0.3922  0.3058
23632W        W42486   1.399   8.936   4.155 -0.1032  0.0193  0.1346
23633W        W42487   2.538   0.850  13.229  0.1478  0.1264  0.0972
23634W        W42488   6.859   6.382   2.422  0.0800  0.0889 -0.1782
23635W        W42489  15.600   3.281  15.631 -0.0405  0.0579  0.4421
23636W        W42490  10.301   3.943   4.090 -0.1244 -0.1046 -0.2573
23637W        W42491  15.800   8.601   3.882 -0.0120  0.2879  0.1119
23638W        W42492   0.938   3.950   3.741 -0.0054 -0.0767  0.0990
23639W        W42493   5.789   0.593  16.631 -0.0625 -0.0851 -0.0980
23640W        W42494   3.658   9.239  13.585 -0.0893 -0.1684 -0.0581
23641W        W42495  10.470   2.260   2.957  0.1270  0.0573 -0.1539
23642W        W42496   7.232  16.492   3.395  0.0246  0.0403 -0.0851
23643W        W42497   9.957  15.910   2.701 -0.0061  0.0991 -0.1186
23644W        W42498   4.882   7.920   0.433  0.1775 -0.1312  0.3769
23645W        W42499   8.063   9.007  16.839  0.0312 -0.1230 -0.0624
23646W        W42500  14.928  17.561  12.505 -0.1148  0.0567 -0.3133
23647W        W42501   1.371   5.228   4.308  0.0300  0.2541  0.0580
23648W        W42502  10.409   5.886  16.510 -0.0250 -0.1000  0.0685
23649W        W42503  13.117  14.649   0.490 -0.0993  0.0073  0.0565
23650W        W42504  16.947  15.437  15.833 -0.1690  0.0114  0.0145
23651W        W42505   5.021  16.477   3.417 -0.0686  0.0238 -0.0718
23652W        W42506   5.357   3.361  16.812  0.2502  0.1401  0.0315
23653W        W42507  13.510   4.936  16.155  0.1652 -0.0048  0.1097
23654W        W42508  10.302  16.388   3.593  0.1648  0.1783 -0.0148
23655W        W42509   7.439   1.225   1.050  0.1236 -0.1762  0.4387
23656W        W42510   4.666   2.950  16.160  0.0925 -0.3338  0.0132
23657W        W42511   7.145   9.270   0.408  0.2448  0.1689  0.2951
23658W        W42512  17.175   3.196  13.437 -0.0793  0.2824 -0.0717
23659W        W42513   1.055  13.216   1.237  0.1394  0.0561 -0.1482
23660W        W42514   1.406  11.115   3.253  0.1612 -0.0094 -0.0108
23661W        W42515  14.867   4.332  13.309  0.2206  0.1171 -0.2311
23662W        W42516   3.546  17.550  13.636  0.0438  0.1233 -0.2698
23663W        W42517   0.293   6.966   3.876 -0.1521 -0.0567 -0.1406
23664W        W42518   9.402  14.837   1.591  0.0649 -0.2396 -0.2390
23665W        W42519   2.398  15.670  16.843  0.0850  0.0992  0.0423
23666W        W42520  11.072  10.552   1.459 -0.1594 -0.0775 -0.1417
23667W        W42521   8.158   2.175   2.366  0.1472  0.2877  0.0754
23668W        W42522   2.483  13.771  13.604 -0.0615 -0.1251  0.0976
23669W        W42523  12.138   5.524   2.656  0.1636  0.0025 -0.1209
23670W        W42524   4.354   5.481  13.824 -0.0778  0.1530 -0.2970
23671W        W42525  16.781  13.145  16.127 -0.0348 -0.1612  0.0809
23672W        W42526  13.926   0.789  15.768 -0.1490  0.0927  0.0035
23673W        W42527  17.424  16.505  12.628  0.2609  0.0412 -0.5325
23674W        W42528  12.833   9.480   2.772 -0.0141 -0.0550 -0.1798
23675W        W42529  10.232  15.221  14.787 -0.0236 -0.1186  0.1648
23676W        W42530   5.515  16.504   3.230  0.3139 -0.3618  0.1907
23677W        W42531  12.346   3.176   3.677 -0.0710 -0.1246  0.1789
23678W        W42532  13.820  15.733  14.322  0.0211 -0.2809  0.0111
23679W        W42533   7.627  17.482   4.623 -0.1696  0.0642  0.0062
23680W        W42534  14.432   9.533  12.439 -0.3646 -0.1705  0.0113
23681W        W42535   7.400  11.574   2.157 -0.0423  0.4519 -0.1635
23682W        W42536  16.038   2.907   2.794  0.0765  0.1762 -0.2062
23683W        W42537   0.941   8.533   2.050 -0.2935  0.5290 -0.0407
23684W        W42538   0.640  17.201   4.820 -0.1656 -0.1191  0.4673
23685W        W42539   7.143   8.476  14.326 -0.1106  0.2791  0.1681
23686W        W42540   5.316  11.142  12.467 -0.0140 -0.0854  0.1915
23687W        W42541   0.809  10.032   0.251 -0.0758  0.0914  0.3269
23688W        W42542   5.271   0.930  15.747  0.0857  0.4423 -0.1270
23689W        W42543  12.629   8.845  13.059  0.1176  0.0326  0.0603
23690W        W42544  14.917   6.122  13.198  0.2692 -0.3251  0.1858
23691W        W42545   7.019  16.338  15.468 -0.0389 -0.1509  0.0815
23692W        W42546   9.836   6.442  15.505 -0.1535 -0.0051  0.2755
23693W        W42547   6.945  11.329   3.078  0.0296  0.0456 -0.1038
23694W        W42548   4.595   9.421   1.473  0.3023 -0.1074  0.1135
23695W        W42549  12.377   0.182   2.066  0.1121 -0.2062 -0.1173
23696W        W42550  14.300   5.371   0.183  0.0169  0.0441 -0.2811
23697W        W42551   3.297  15.106  13.747 -0.0826 -0.0659 -0.1456
23698W        W42552   1.636  10.505   2.770 -0.0242 -0.0503 -0.0729
23699W        W42553  13.623   2.406  13.809  0.3310 -0.0013 -0.2617
23700W        W42554  14.037   7.031   2.066 -0.2568 -0.3646 -0.1121
23701W        W42555   9.954   8.589  16.012 -0.2008  0.0911 -0.1900
23702W        W42556  11.356   2.811   1.050 -0.1995 -0.1644  0.3833
23703W        W42557   1.933   0.258   4.189 -0.1060 -0.2162 -0.2345
23704W        W42558   1.634  13.024  14.188 -0.1595  0.0044 -0.1968
23705W        W42559   1.554   0.292  14.089  0.0384  0.2784  0.0389
23706W        W42560   4.866   8.968  16.442  0.0335 -0.2183 -0.0388
23707W        W42561   7.067   6.491   4.033 -0.0246 -0.3220 -0.0523
23708W        W42562  16.704   4.960  15.936  0.0573  0.0759  0.1247
23709W        W42563   9.545  14.578  16.676  0.2532 -0.0895  0.2669
23710W        W42564  14.275   7.730  13.750 -0.0158  0.0598 -0.1174
23711W        W42565  14.411   5.170  12.860  0.3582 -0.3370  0.1090
23712W        W42566  10.988   0.022   4.000  0.0799  0.0930 -0.0269
23713W        W42567   0.895   9.077   1.165  0.0886  0.2310 -0.0927
23714W        W42568   7.146  13.710  13.433  0.0154 -0.0137  0.3474
23715W        W42569  11.045  10.532  13.263 -0.1064  0.0024 -0.1089
23716W        W42570  15.124   7.032  12.468  0.0289 -0.1805 -0.1123
23717W        W42571  10.835  14.836   0.239 -0.0180  0.1935  0.2925
23718W        W42572  13.873   8.469   0.414 -0.1338  0.1002  0.0547
23719W        W42573   0.243  16.439   4.366 -0.0571 -0.0710 -0.0006
23720W        W42574  15.340  14.626  14.628  0.2773  0.0078 -0.0861
23721W        W42575  10.742   1.661   1.365  0.0523  0.0367  0.1342
23722W        W42576  16.054  15.167   0.906 -0.0468 -0.0831 -0.1059
23723W        W42577   3.406  11.379   1.953  0.0984  0.1639 -0.1519
23724W        W42578   6.072  14.748   4.067 -0.0275  0.0979 -0.0551
23725W        W42579   2.921   6.136  16.318  0.0918 -0.2557  0.1802
23726W        W42580   2.224   5.673   0.057  0.3535  0.0771  0.0135
23727W        W42581  14.352   1.240  12.941  0.0105 -0.2285 -0.1479
23728W        W42582  13.997  14.362   0.731  0.0799  0.1080 -0.0549
23729W        W42583   8.317   7.451   5.210 -0.3241  0.1867  0.3143
23730W        W42584   6.961   2.613  17.039 -0.2562 -0.1871 -0.1834
23731W        W42585   7.107   6.397  14.568 -0.0623  0.2195 -0.0896
23732W        W42586   2.338   2.878   3.505 -0.0447 -0.0394  0.0451
23733W        W42587  14.960   8.462   3.907 -0.1160 -0.2375 -0.3638
23734W        W42588  12.851   1.255   4.052  0.2187  0.0429  0.0324
23735W        W42589  11.137  11.579  12.825 -0.1372 -0.1844 -0.2389
23736W        W42590  15.603  12.048   3.499  0.0887  0.0732  0.1551
23737W        W42591  16.874   5.147  16.826  0.1959 -0.0858  0.2545
23738W        W42592   6.147   1.644   0.373 -0.0059 -0.1078 -0.1614
23739W        W42593  12.064   7.521  13.753 -0.3594  0.2492 -0.2014
23740W        W42594   4.225  14.791  11.282  0.0724  0.0300  0.3408
23741W        W42595   2.251   3.529   2.252 -0.0341  0.2601  0.2844
23742W        W42596   8.710   1.632  13.006 -0.1168 -0.1128 -0.1959
23743W        W42597   8.842   2.258   1.538 -0.0721  0.3077  0.0508
23744W        W42598   8.914   1.504  14.023 -0.1647  0.0456 -0.1655
23745W        W42599  10.452   2.931  12.239  0.0119 -0.0179 -0.1784
23746W        W42600   1.950   2.673   0.628  0.0566  0.2522  0.1513
23747W        W42601   4.505   1.727  12.416 -0.1504 -0.1491  0.2792
23748W        W42602  13.327  12.718  16.555 -0.0197  0.2115  0.1433
23749W        W42603   7.174  16.200   5.456 -0.0520 -0.1570  0.0553
23750W        W42604   5.901  10.269   0.416  0.0040 -0.0491  0.1241
23751W        W42605   3.756  11.438  14.483 -0.1223  0.0211  0.0149
23752W        W42606  16.588   1.244  15.001  0.2114 -0.2905  0.1246
23753W        W42607   2.702  17.320  14.446  0.2574 -0.0257  0.1628
23754W        W42608   6.337  15.126   3.865 -0.2118  0.1832  0.1198
23755W        W42609   7.108   2.665   2.440 -0.3224  0.1420  0.0974
23756W        W42610  10.995  17.289   2.614  0.0405  0.1254 -0.0086
23757W        W42611  13.615  14.456   0.426  0.0162  0.0503  0.1175
23758W        W42612   6.404   1.310   2.529 -0.0618  0.0092 -0.1000
23759W        W42613   1.481   0.263   1.445 -0.1534  0.0016  0.0423
23760W        W42614  12.779  13.416  13.715  0.0979 -0.2142  0.0962
23761W        W42615  14.640   3.874  16.701 -0.2658  0.3195  0.2123
23762W        W42616   3.240   5.671   1.106  0.0271 -0.1666 -0.1128
23763W        W42617  16.432   5.100   1.848 -0.1182 -0.1479 -0.2037
23764W        W42618   8.923   5.411  17.105 -0.2174 -0.1529 -0.2394
23765W        W42619  14.222  13.011  15.663  0.1591  0.2668  0.1320
23766W        W42620   2.199   6.175  17.200  0.0619 -0.0232  0.0348
23767W        W42621   9.050   2.946   2.451  0.0215  0.2670 -0.0746
23768W        W42622   1.943   8.211   2.291 -0.1917 -0.2159 -0.0985
23769W        W42623  12.632   1.963  12.918  0.0470 -0.1950  0.2736
23770W        W42624  16.133  17.414   0.423 -0.1075  0.0382  0.0396
23771W        W42625  15.057   6.137  12.185  0.0243  0.1052 -0.1066
23772W        W42626   9.094  11.943   1.332  0.1984 -0.5614  0.0932
23773W        W42627  12.175   8.663  14.244  0.1678  0.2058 -0.0199
23774W        W42628  10.257  10.072   0.100  0.0287 -0.5029 -0.1040
23775W        W42629   7.255  14.805  13.932  0.1241  0.1882 -0.1310
23776W        W42630  16.731   0.517  11.840 -0.1421  0.1713  0.2718
23777W        W42631  13.895   0.604   1.891  0.1462  0.0296  0.2415
23778W        W42632   3.930   3.838  15.386 -0.1805  0.0069  0.3139
23779W        W42633  13.725  13.011  12.471  0.1814 -0.3936  0.2551
23780W        W42634   6.964   5.385  15.571  0.0069  0.0408 -0.2228
23781W        W42635  17.526   4.288   0.833  0.2058 -0.3325 -0.2830
23782W        W42636  17.174   5.164  15.221  0.0932  0.0538  0.0745
23783W        W42637   8.962  12.549   1.135  0.0274  0.3660  0.0610
23784W        W42638  15.647  17.071   4.825  0.1768  0.0362 -0.1984
23785W        W42639  12.845   5.536  15.870  0.2393  0.2238 -0.0714
23786W        W42640   4.270  16.628   1.496  0.1348  0.2574 -0.3182
23787W        W42641   7.329   9.223  13.778 -0.1251  0.1815 -0.0754
23788W        W42642   4.849  14.137  15.632  0.0407 -0.0896  0.0296
23789W        W42643   8.791   4.996   2.066  0.1777  0.1582 -0.0656
23790W        W42644   8.589   8.910  15.325  0.2743 -0.0891  0.2837
23791W        W42645   2.673   9.528   1.778 -0.0888  0.1761  0.1437
23792W        W42646   9.419   1.590  13.715 -0.3277 -0.3701 -0.1456
23793W        W42647  17.345   1.327   1.539  0.1377 -0.1919  0.1983
23794W        W42648   6.812   0.959   5.217  0.1479  0.1863 -0.0120
23795W        W42649   6.010   9.844  12.328 -0.0591  0.1742  0.0958
23796W        W42650  13.459   2.690   0.023  0.0362  0.0956  0.1226
23797W        W42651   2.826  14.544  13.044 -0.1327  0.2967 -0.1237
23798W        W42652  14.188  14.330  13.058 -0.2524 -0.0463  0.0940
23799W        W42653   7.905  15.111   4.467 -0.3999  0.0449 -0.2351
23800W        W42654  10.448   0.871  12.616 -0.1170 -0.1040  0.2571
23801W        W42655  13.560   8.004  14.722  0.0235 -0.3383 -0.1706
23802W        W42656  14.989   7.278  12.056 -0.5193 -0.0070  0.2247
23803W        W42657  13.784   9.388   2.680  0.1330 -0.1986 -0.0728
23804W        W42658  11.240   8.768  16.249  0.1390 -0.2030  0.0805
23805W        W42659   3.628  16.589   2.732 -0.1181  0.1136 -0.1001
23806W        W42660   6.708   7.966  15.699  0.0330 -0.0227  0.0025
23807W        W42661   3.652  16.656   3.822  0.1191 -0.2952  0.1062
23808W        W42662  14.583  10.715   5.209 -0.0210  0.2266 -0.2237
23809W        W42663   3.760   1.195  12.026 -0.1273 -0.4812 -0.1648
23810W        W42664   8.956   4.049   0.422  0.3776 -0.1063  0.1388
23811W        W42665   3.867  15.797   4.669 -0.2063  0.2493  0.1092
23812W        W42666  10.163  12.511   0.631  0.2104 -0.2117 -0.1641
23813W        W42667  14.904   1.526   4.764 -0.1213  0.3215  0.1184
23814W        W42668   3.479  13.798   0.742  0.1556  0.0524  0.0680
23815W        W42669   1.017   3.427  15.170 -0.2608 -0.0015 -0.4042
23816W        W42670  14.944   7.353  14.055 -0.0045  0.2290  0.1298
23817W        W42671  13.092   0.876  16.950  0.0955 -0.1018 -0.1556
23818W        W42672  13.051  11.818   0.766 -0.1541 -0.0791  0.1140
23819W        W42673   2.350   6.008  15.793  0.0572 -0.0392 -0.0391
23820W        W42674   0.604   3.519  15.939  0.1119  0.1679 -0.0488
23821W        W42675   5.250   6.710   3.039  0.1151 -0.0612  0.0724
23822W        W42676  14.572   1.302  15.908  0.0071  0.2779  0.0616
23823W        W42677   3.723   8.723   2.130 -0.0166 -0.0956  0.1885
23824W        W42678  16.776  14.121   2.560  0.2814  0.3105  0.2834
23825W        W42679  13.028   1.712  13.742  0.0554  0.1400  0.2492
23826W        W42680   6.127   4.063   3.253  0.0001 -0.2170  0.1502
23827W        W42681  15.994   0.579  17.062 -0.0754 -0.1248 -0.0114
23828W        W42682  10.735  17.159  13.389  0.0624  0.2000 -0.0361
23829W        W42683   8.697   2.671   1.761  0.2662 -0.2345 -0.2390
23830W        W42684   3.753   2.370   5.179  0.1584 -0.0678 -0.1352
23831W        W42685  14.665  10.381   2.631 -0.3848 -0.1521 -0.2026
23832W        W42686  10.551  16.547   2.834  0.0016  0.0018 -0.1677
23833W        W42687  15.284   3.148   0.382  0.0030  0.1604  0.3846
23834W        W42688   2.323   5.434   4.064 -0.3438  0.1460  0.3199
23835W        W42689   6.128  12.769  14.407 -0.1641  0.3059  0.0077
23836W        W42690   1.199   6.380  13.555  0.4715 -0.2100 -0.1867
23837W        W42691   9.657   4.499  14.588 -0.0414  0.0251 -0.5383
23838W        W42692   0.091  11.290   2.099 -0.2020 -0.1113  0.2089
23839W        W42693  15.963   5.574  16.350  0.1198 -0.0367  0.1278
23840W        W42694   4.351   0.930   4.390 -0.2334  0.0208 -0.0086
23841W        W42695   6.835   3.141   5.236  0.2701 -0.0168 -0.1082
23842W        W42696   4.240  11.228  14.721 -0.0044  0.0803  0.0625
23843W        W42697   1.181  10.092   4.778  0.2019 -0.4562 -0.2296
23844W        W42698   2.858   1.124  12.325 -0.1520 -0.0563  0.3305
23845W        W42699  15.133   0.009   2.210  0.2954  0.2454  0.0619
23846W        W42700   5.028   6.956  15.205  0.1342  0.0839  0.1938
23847W        W42701   6.989   6.811   2.147  0.3561 -0.1291  0.0681
23848W        W42702  14.989   3.163   2.987  0.0170 -0.0425  0.2376
23849W        W42703  11.900  13.286   0.698 -0.2053  0.3886 -0.0519
23850W        W42704   0.020  15.129   3.138  0.0456 -0.3785 -0.0439
23851W        W42705   6.119   9.490  12.650 -0.1543 -0.1380 -0.0732
23852W        W42706   9.638   7.851   4.997  0.0253 -0.1253  0.2219
23853W        W42707   4.594   8.389   0.897  0.0936 -0.3310 -0.0336
23854W        W42708   4.682  12.472   4.234  0.0557  0.4996 -0.1237
23855W        W42709   6.412   2.759  13.827  0.0512 -0.2839  0.1869
23856W        W42710  12.330  11.695  13.036  0.2136  0.3334 -0.1574
23857W        W42711  12.513   2.325  12.597 -0.0754  0.0893 -0.1630
23858W        W42712  14.100   1.292   2.900 -0.3466  0.0326  0.0811
23859W        W42713   5.172   2.534  15.004 -0.0137  0.1837 -0.0612
23860W        W42714   8.985   7.195   3.037  0.0578  0.0864 -0.0884
23861W        W42715   1.301   9.644   1.772 -0.0631 -0.0000  0.2471
23862W        W42716  15.983   5.949  16.024  0.0910 -0.1469  0.3291
23863W        W42717   0.213  12.998   3.153 -0.2216 -0.4042 -0.1019
23864W        W42718   9.474   6.617  12.929 -0.2454 -0.1029 -0.2060
23865W        W42719  12.056  12.324  16.555 -0.0284  0.1374 -0.1412
23866W        W42720   7.983  17.251  13.760 -0.0348 -0.1478 -0.0735
23867W        W42721   4.936  11.213  14.159  0.2420  0.4445  0.1115
23868W        W42722   8.638   5.245   3.414 -0.2097 -0.0129 -0.1992
23869W        W42723   7.231   8.001  14.063 -0.0363 -0.1320 -0.1893
23870W        W42724  14.689  16.308  13.209  0.0348  0.0266  0.3251
23871W        W42725   3.794   2.661   1.897  0.0818  0.1844 -0.2191
23872W        W42726  17.234   2.730  12.506 -0.1102  0.0082 -0.1930
23873W        W42727   6.282   2.008  14.358  0.2864  0.2462 -0.0123
23874W        W42728  12.109   0.609   1.644 -0.0145 -0.0773  0.0407
23875W        W42729   7.447   2.808  13.767 -0.2658  0.4494  0.1711
23876W        W42730  11.837  10.376  12.587  0.0389 -0.0460 -0.1613
23877W        W42731  16.122  13.986   0.976 -0.2697 -0.0921  0.0818
23878W        W42732   2.732   3.700  13.737 -0.0353  0.1987  0.1562
23879W        W42733   8.997   2.904  12.670  0.2964 -0.1152 -0.0921
23880W        W42734   4.275   0.204  15.231 -0.0920  0.3390 -0.0199
23881W        W42735  14.530  10.863  13.226 -0.2997  0.0108  0.1133
23882W        W42736   1.922  11.199   1.126  0.1632 -0.2647 -0.0426
23883W        W42737  15.915   0.258  16.509 -0.2931 -0.0928  0.4877
23884W        W42738   2.725   3.273  14.042 -0.2527  0.1432  0.0426
23885W        W42739   5.717  13.151   1.621  0.1618 -0.0107 -0.2862
23886W        W42740  13.648   9.204  13.252  0.1936 -0.1560 -0.1582
23887W        W42741   7.047  15.445   1.161  0.0596 -0.2090  0.0917
23888W        W42742   7.005   3.775  15.216 -0.3276  0.1570 -0.0243
23889W        W42743   8.440  10.261   4.417  0.1834 -0.1416 -0.0020
23890W        W42744  10.226  10.907  15.484 -0.0221 -0.1788 -0.1091
23891W        W42745  13.944  12.171  15.349  0.0058  0.4120 -0.2115
23892W        W42746   8.433  17.375  15.420  0.0658 -0.0690  0.2354
23893W        W42747  13.903   4.957   2.331  0.0338  0.1371  0.0590
23894W        W42748  12.712  12.908   4.998  0.0910  0.0988  0.0834
23895W        W42749  15.416   8.253   3.818 -0.1058  0.0413  0.1535
23896W        W42750   5.249   7.347  11.871  0.0152  0.0784 -0.0459
23897W        W42751   2.230   9.418   1.488 -0.3593 -0.1134 -0.2179
23898W        W42752  11.076   6.187   5.157  0.0462  0.1068  0.2388
23899W        W42753  14.485  14.353  16.120  0.1268 -0.1104  0.0669
23900W        W42754  13.962   0.933  17.124 -0.0208 -0.2577 -0.0845
23901W        W42755   9.431  16.734   4.882  0.1873  0.2923 -0.0212
23902W        W42756   6.207  12.396  14.083 -0.0716 -0.4534  0.0036
23903W        W42757  16.300   9.425   0.407  0.2486  0.1081 -0.3946
23904W        W42758   9.583   8.155  12.188 -0.0537  0.0020 -0.0900
23905W        W42759  15.690  15.192   4.913 -0.1439  0.0532  0.0396
23906W        W42760   0.540   2.607   3.861 -0.0080  0.1139 -0.1144
23907W        W42761  17.150  13.270  14.513  0.0149 -0.0488  0.0640
23908W        W42762  13.411   5.862   1.759 -0.1199  0.0279 -0.1243
23909W        W42763  11.871   0.946   2.417 -0.1261 -0.2433  0.2127
23910W        W42764   7.550  12.582  13.154  0.0408  0.0710 -0.3634
23911W        W42765  11.257   9.919   4.634 -0.0947  0.0227 -0.0168
23912W        W42766   0.962  16.642  16.113  0.1704  0.0778 -0.0231
23913W        W42767  15.246   2.789  13.917 -0.0530  0.0804 -0.0799
23914W        W42768   6.822  14.563  13.595  0.0796 -0.0507  0.0745
23915W        W42769   5.002  17.364   1.828 -0.0754  0.0091  0.3546
23916W        W42770  11.580   6.240   3.717  0.2230  0.2840  0.0685
23917W        W42771   1.504  13.159  14.662  0.0195 -0.1295  0.0368
23918W        W42772   8.472   7.874   3.425 -0.1303  0.2576  0.1218
23919W        W42773   5.997   5.473   4.313 -0.0611 -0.0427  0.0084
23920W        W42774  15.104  15.307   4.075 -0.0428 -0.0122  0.0654
23921W        W42775   7.917   9.995   1.578  0.1022 -0.0593  0.2418
23922W        W42776  10.243   3.741   4.533  0.2876 -0.1369 -0.1352
23923W        W42777  15.645   1.684   0.706  0.0381 -0.0483  0.0221
23924W        W42778  11.015   3.061  16.985  0.0349  0.4349 -0.2144
23925W        W42779  16.736  11.055  12.824 -0.1398  0.2419 -0.0181
23926W        W42780  14.930  13.762  15.588  0.1438  0.3450  0.1878
23927W        W42781   4.475  14.761  16.411 -0.2115  0.0425 -0.0187
23928W        W42782   5.860   7.729   2.061  0.0283  0.0018 -0.3166
23929W        W42783   6.821   8.601  15.106 -0.0701  0.0874 -0.0003
23930W        W42784  12.336   9.893  14.930 -0.1829  0.0253 -0.1057
23931W        W42785   7.060   8.012   0.076 -0.1281  0.2014  0.1267
23932W        W42786   3.012   1.392   2.618  0.2270 -0.0036 -0.0783
23933W        W42787  13.565   3.728   2.069  0.3347 -0.1769 -0.2705
23934W        W42788  17.177  11.178   2.096 -0.1252 -0.2065  0.1087
23935W        W42789  13.556  10.827  15.355 -0.0226  0.0834 -0.0819
23936W        W42790   8.339   9.697  12.170 -0.2598  0.0560  0.0214
23937W        W42791   5.620   6.945   5.099  0.2594 -0.4908 -0.0934
23938W        W42792   1.578   1.737   4.880  0.0796  0.2662  0.1683
23939W        W42793   7.341   4.789   4.759 -0.0101 -0.0244  0.1846
23940W        W42794   5.441   4.110  15.015  0.0477  0.1337 -0.1283
23941W        W42795   1.406   9.376   5.074 -0.1989 -0.0252 -0.1463
23942W        W42796   5.240  14.303   3.597 -0.2168 -0.1910  0.2617
23943W        W42797  10.991  14.967   5.172  0.0593 -0.0554  0.0912
23944W        W42798   9.771   9.002   4.477  0.3934  0.5193 -0.3207
23945W        W42799  12.526   3.261  15.181  0.0878 -0.1902 -0.1294
23946W        W42800   7.859  17.292  16.397  0.1118 -0.0315 -0.0640
23947W        W42801  13.671   6.225   2.086  0.1315  0.1884 -0.0421
23948W        W42802   6.321  12.537  15.588  0.1031  0.1372  0.2636
23949W        W42803   4.941  15.163   5.181  0.1971  0.0471  0.1560
23950W        W42804  11.205  15.521  17.220 -0.3458 -0.0708 -0.0500
23951W        W42805   4.040  15.712  13.279 -0.1384 -0.0732 -0.0827
23952W        W42806  12.831   3.544   1.272  0.1874 -0.0293  0.2590
23953W        W42807  16.400   4.499  15.486 -0.2207  0.1152  0.0333
23954W        W42808   1.888  14.452   4.560  0.4124  0.0411  0.1525
23955W        W42809  13.637   9.996  16.928  0.0416 -0.2370 -0.2361
23956W        W42810  15.966  15.179  15.991  0.4767 -0.1394  0.2479
23957W        W42811   3.890  12.179  16.457 -0.2800  0.0627  0.2204
23958W        W42812   8.173   5.304   0.683 -0.0477 -0.1770 -0.3086
23959W        W42813  11.376   5.272  15.219  0.0859  0.0548  0.0093
23960W        W42814   2.781  15.151  12.966 -0.1659 -0.3141 -0.0394
23961W        W42815  10.526  13.575  13.208 -0.1896 -0.1546 -0.1050
23962W        W42816   7.753   7.338   1.257  0.2295 -0.0753  0.0238
23963W        W42817  16.677  13.555   3.359  0.2195  0.2787  0.3260
23964W        W42818   3.939   0.131  14.278 -0.0011  0.2104 -0.2161
23965W        W42819  15.683   3.131   1.611  0.0843 -0.0373  0.2865
23966W        W42820   4.310   4.215  17.160 -0.2691 -0.1914 -0.0162
23967W        W42821   6.188   0.266   3.498  0.2699  0.0260 -0.2196
23968W        W42822  17.191   6.148  15.323 -0.0178 -0.0548  0.1719
23969W        W42823  16.933   8.088   2.474 -0.0082  0.1771 -0.1831
23970W        W42824   5.288   5.450  15.485  0.0328  0.0735  0.3508
23971W        W42825   1.087   3.897  15.332 -0.2894  0.0681  0.2151
23972W        W42826  15.667  13.905   2.680  0.1686 -0.0431  0.1698
23973W        W42827  16.562   8.530  11.509 -0.0139  0.0301 -0.2015
23974W        W42828  14.502   5.849   2.753 -0.0578  0.0917 -0.1665
23975W        W42829  10.037   7.750   1.472 -0.1877 -0.2558  0.0681
23976W        W42830   9.320  12.790  14.418 -0.2889 -0.1082 -0.0018
23977W        W42831  16.536   8.898  15.142 -0.1303 -0.0427 -0.0658
23978W        W42832   2.295   5.386   1.391  0.0026  0.0003  0.4466
23979W        W42833   6.105   5.142  13.622 -0.0323 -0.1953  0.0876
23980W        W42834  14.271  14.295   1.542 -0.1669 -0.1751 -0.0499
23981W        W42835   7.563  11.156  13.140  0.1631  0.3440 -0.0464
23982W        W42836   0.020  16.058  15.422 -0.1615 -0.1953 -0.0234
23983W        W42837  14.538   4.257  15.764 -0.1466 -0.1296 -0.0637
23984W        W42838   5.121   5.793   2.547 -0.2490  0.3929 -0.1191
23985W        W42839   9.094  10.834   4.768  0.1611 -0.2615  0.2274
23986W        W42840   7.259  10.393  16.271  0.0123  0.2296 -0.1948
23987W        W42841  13.510  16.507  16.592 -0.0566 -0.1405  0.3138
23988W        W42842  10.755   8.906  16.867  0.0670 -0.1099 -0.0543
23989W        W42843   1.560  12.749   3.394 -0.2193 -0.0631  0.3241
23990W        W42844  10.501   9.637   1.050 -0.1515  0.1235  0.0215
23991W        W42845   0.534   4.642   4.502 -0.1198  0.0816  0.0066
23992W        W42846   1.039   5.943   3.698  0.0686  0.0986  0.1031
23993W        W42847   9.678   9.007   1.784 -0.0374  0.1096  0.2177
23994W        W42848   3.934   3.514   0.281 -0.2221 -0.3022  0.1885
23995W        W42849  12.111  14.192   2.129  0.1302  0.0732 -0.1501
23996W        W42850  10.207  10.745   1.835 -0.1616  0.0955  0.0826
23997W        W42851   1.129  15.978   3.943 -0.1457 -0.0833  0.0632
23998W        W42852   7.951   5.335   2.699  0.0712  0.2428  0.1998
23999W        W42853   1.255  11.480  15.456  0.3020 -0.0284  0.0638
24000W        W42854  11.424  16.210  13.281 -0.1780 -0.0594  0.2693
24001W        W42855   8.582  15.753  15.697 -0.1507  0.1364 -0.2528
24002W        W42856  13.343  13.118  15.484  0.1826 -0.1484  0.2262
24003W        W42857   9.069  17.347  16.027  0.1053  0.1966  0.1846
24004W        W42858  16.232  16.550  15.940  0.1764 -0.2664 -0.0404
24005W        W42859  12.506   0.159  15.744 -0.1243  0.1125  0.0202
24006W        W42860  14.633   3.198  12.897 -0.1083 -0.3973  0.2432
24007W        W42861   9.213  12.806  17.021 -0.1096 -0.0846 -0.0303
24008W        W42862   9.530  17.291  16.408  0.1129  0.0219 -0.2002
24009W        W42863   4.992   7.690   4.573  0.2640  0.1956 -0.0393
24010W        W42864  16.927  14.179   0.676  0.2683 -0.0979  0.4651
24011W        W42865   4.483  13.380  15.202  0.2804  0.3036  0.0822
24012W        W42866  16.019  15.107  14.086 -0.0666  0.0202 -0.4430
24013W        W42867  15.379  12.036  14.342  0.2845  0.1330 -0.1494
24014W        W42868   6.402  13.902   0.758 -0.0537  0.3282 -0.1037
24015W        W42869  14.980   3.551   0.509  0.0666  0.1150  0.1297
24016W        W42870  10.676  16.089   1.610 -0.0751 -0.0985  0.0592
24017W        W42871   4.892  12.529  13.763  0.0802 -0.2577 -0.1022
24018W        W42872   9.991  11.152   2.146  0.0601  0.0129 -0.1277
24019W        W42873  10.005  14.642  16.904 -0.1085 -0.1453 -0.0683
24020W        W42874  16.930  16.071  14.080 -0.2247  0.2706 -0.0299
24021W        W42875   2.420   0.861  16.398  0.1201  0.0439 -0.3135
24022W        W42876   2.123  11.365   2.177 -0.2434  0.2263  0.1052
24023W        W42877   5.638  13.027  13.993 -0.0092 -0.0877  0.3129
24024W        W42878  12.315   0.236  14.738  0.0691  0.1440 -0.1331
24025W        W42879   7.506   8.933  12.905  0.0803  0.0161  0.0093
24026W        W42880   6.370   5.568  12.126  0.0380 -0.1741 -0.0284
24027W        W42881   3.793  12.983   4.782  0.1403 -0.2733 -0.0370
24028W        W42882   4.734   5.288  12.943  0.0154  0.0990 -0.1386
24029W        W42883   0.511   7.767   4.416  0.1028 -0.1172  0.0028
24030W        W42884  17.489  10.292   2.954  0.1708  0.1320 -0.0383
24031W        W42885   8.537  11.465   0.480 -0.0624  0.2546  0.0525
24032W        W42886   3.555   9.047   2.841  0.0409  0.0276 -0.1027
24033W        W42887   4.568  12.942  16.469  0.0380  0.1887  0.3659
24034W        W42888   1.345   6.523   5.542 -0.2628 -0.3096 -0.2780
24035W        W42889   6.429   0.240  12.226  0.1928  0.0951 -0.2819
24036W        W42890  15.833  11.087   4.152 -0.0850  0.2693 -0.0437
24037W        W42891   0.180   6.676   2.180 -0.0502 -0.0873  0.2010
24038W        W42892  12.473   8.358  16.211 -0.0213 -0.1905  0.0431
24039W        W42893  10.476  15.619  12.242  0.3083 -0.0321  0.1100
24040W        W42894   1.442  13.427  16.065  0.0205 -0.1131 -0.1722
24041W        W42895  17.324  13.357   2.168  0.0216  0.2716  0.0380
24042W        W42896   5.884   2.902  12.992 -0.5525 -0.0120 -0.2142
24043W        W42897   0.777   6.182  11.770  0.2510 -0.3376  0.3662
24044W        W42898  16.895  12.073   4.109  0.0932  0.1828 -0.0637
24045W        W42899   9.012  15.754  13.409 -0.2545 -0.0994 -0.3083
24046W        W42900  14.433  10.658   3.805 -0.0515  0.0001 -0.2599
24047W        W42901   3.043  12.021   1.372  0.0537 -0.2241  0.0572
24048W        W42902   3.426  13.758   2.496 -0.0579  0.1395 -0.3593
24049W        W42903   9.679   2.419   4.994  0.0786  0.1893 -0.0987
24050W        W42904  15.324   6.966   1.712 -0.0215  0.3498  0.0948
24051W        W42905   3.705   1.996   4.139 -0.0446  0.0326 -0.0009
24052W        W42906   0.940   4.279  14.914 -0.3094 -0.2722  0.1093
24053W        W42907   3.776   1.429   3.942 -0.1127  0.2329  0.3877
24054W        W42908  16.457   9.710   5.171  0.0046  0.0070  0.1404
24055W        W42909   5.362   0.364  16.717 -0.2361 -0.0633 -0.1502
24056W        W42910  12.470  12.880  15.113 -0.0300 -0.0286  0.1166
24057W        W42911  10.507  14.163   3.575  0.0321 -0.2755  0.2739
24058W        W42912  10.668  15.457  14.541  0.1177  0.0181 -0.2429
24059W        W42913  13.610  12.017  14.650  0.2473  0.1215  0.1177
24060W        W42914  13.652   6.678  12.355 -0.1050 -0.2016 -0.0760
24061W        W42915   9.606   7.040  12.748 -0.0306 -0.0079 -0.1655
24062W        W42916   5.172   5.899  14.071 -0.1932  0.1828 -0.0205
24063W        W42917   2.107  10.514  14.935  0.1414 -0.1729 -0.0206
24064W        W42918  17.160   1.600   2.271 -0.3939  0.0125 -0.0343
24065W        W42919  16.215   8.927   0.149  0.0453  0.2365 -0.3465
24066W        W42920  16.856   5.326   0.550 -0.1149 -0.2498 -0.4107
24067W        W42921  16.396  17.355  13.372 -0.1874  0.2285 -0.1591
24068W        W42922   6.077   6.616   0.275 -0.1934  0.2231 -0.1143
24069W        W42923  13.520  14.424  13.865  0.0240  0.0795 -0.0434
24070W        W42924  12.543  17.363  13.473 -0.0546  0.0632 -0.0952
24071W        W42925  14.308   1.746  14.857 -0.0548 -0.0755  0.1326
24072W        W42926   9.868   0.424  14.230  0.2184  0.3299  0.2484
24073W        W42927   7.720   5.410  12.814 -0.0711  0.0715 -0.0480
24074W        W42928   8.956   8.981   0.942  0.2041  0.0294  0.1895
24075W        W42929  15.073   9.920   1.887  0.0014 -0.1456 -0.0823
24076W        W42930   9.782   6.746  14.591  0.0800  0.1486  0.1877
24077W        W42931   6.191   6.416  14.929  0.4693  0.0290  0.1122
24078W        W42932  12.327   1.449   0.438 -0.2831 -0.0221 -0.0631
24079W        W42933  14.410  15.368  12.998  0.2027  0.0588 -0.4784
24080W        W42934  14.880   6.973  15.426 -0.0427  0.2975  0.3486
24081W        W42935   5.265   2.699  12.531  0.0780 -0.0700 -0.0665
24082W        W42936   7.761  13.602  13.579 -0.3416 -0.2010 -0.3098
24083W        W42937   3.628  14.650  15.976  0.4187  0.1087 -0.2053
24084W        W42938  11.944  11.167   3.039 -0.0454  0.1001  0.0822
24085W        W42939   5.540   5.921   1.341  0.2678 -0.0819  0.2498
24086W        W42940  10.286   4.867   2.495  0.0375  0.0421  0.2035
24087W        W42941  10.731  12.544   1.097  0.1248  0.1225  0.0688
24088W        W42942   3.487   0.121  14.105  0.2197 -0.0369 -0.2884
24089W        W42943  16.413  16.538  12.385  0.1813 -0.1191  0.2280
24090W        W42944   8.757   4.091   0.931  0.0939  0.2434  0.0689
24091W        W42945  12.102   6.504   1.770 -0.0511  0.0151  0.0311
24092W        W42946  15.283   7.570  16.447  0.0464  0.0283  0.1316
24093W        W42947   8.142   3.462   2.807 -0.1874  0.0047  0.3714
24094W        W42948   3.212   6.672  11.644 -0.1625 -0.0261 -0.0350
24095W        W42949  12.699   9.658   0.561 -0.0451 -0.1258 -0.2077
24096W        W42950  12.388  16.296   2.166  0.2079  0.0421  0.1757
24097W        W42951   6.144   7.620  12.815 -0.0010  0.0776  0.1929
24098W        W42952   2.509  13.020   3.965 -0.2256 -0.3419  0.1131
24099W        W42953  10.849   1.220  16.524 -0.0655 -0.0444 -0.1205
24100W        W42954   8.349   4.414   3.821 -0.1454  0.0472 -0.3304
24101W        W42955   8.773  11.684   0.876 -0.0007  0.0885 -0.0142
24102W        W42956  16.564   9.977  17.133 -0.3604 -0.1430 -0.0687
24103W        W42957  16.934  15.633   4.392 -0.1230  0.2170  0.2189
24104W        W42958  17.443   0.733  12.340 -0.0102 -0.1142  0.2115
24105W        W42959  16.612  13.744   3.890  0.4129 -0.1649 -0.1571
24106W        W42960  15.349  11.714  12.158  0.2877  0.2778  0.1931
24107W        W42961   2.775   4.909  13.720  0.1209  0.0825  0.3518
24108W        W42962   7.919   2.834   3.555 -0.0102 -0.1014 -0.2656
24109W        W42963   6.661   9.931   4.049  0.2140  0.0263 -0.0955
24110W        W42964   2.285   1.327  16.627  0.1763 -0.1792  0.0537
24111W        W42965  10.293   3.090  11.544 -0.1662  0.1150  0.2832
24112W        W42966   9.387   1.708  15.873 -0.0736 -0.0496  0.2356
24113W        W42967  10.281   5.429  16.910 -0.1905  0.2434  0.1478
24114W        W42968   3.156   4.103  13.772 -0.1163 -0.1678 -0.1569
24115W        W42969   1.172   9.433  12.585  0.0153 -0.1722  0.2087
24116W        W42970  11.080  12.553  15.139 -0.1427  0.0410  0.0164
24117W        W42971  10.635  13.489   2.624  0.1097  0.1151 -0.0429
24118W        W42972   0.806   9.690   2.662  0.0154 -0.0994  0.0056
24119W        W42973  13.339  11.336   0.188  0.1496 -0.1498  0.3581
24120W        W42974  16.447   1.429  12.985 -0.0338 -0.0411  0.1606
24121W        W42975   0.476  12.495  14.554 -0.0351  0.0558 -0.3579
24122W        W42976   9.906   9.020  12.677 -0.0690 -0.2076 -0.0515
24123W        W42977  14.292   0.899  12.559 -0.2499  0.1295  0.0099
24124W        W42978  16.851  10.853  14.371 -0.1801 -0.2800  0.1791
24125W        W42979  10.869  15.265  15.034 -0.2158 -0.1454 -0.1236
24126W        W42980   0.142   2.691  13.905 -0.0573  0.3040 -0.5093
24127W        W42981   1.030   5.016   2.751 -0.0892  0.0417 -0.0026
24128W        W42982   2.678   4.912   2.976  0.1325  0.1789 -0.1577
24129W        W42983  12.500   1.691   3.870 -0.0763  0.1683 -0.2348
24130W        W42984  11.636   1.530   4.746 -0.0389 -0.0206 -0.1938
24131W        W42985   4.104   6.951  14.763  0.2471 -0.1897 -0.0241
24132W        W42986   1.434   6.964  12.732  0.2013 -0.0868 -0.0158
24133W        W42987   6.591  16.096   3.952 -0.0100 -0.1397  0.1930
24134W        W42988   7.183   8.814   0.658 -0.2474 -0.3235 -0.1464
24135W        W42989  17.223  10.453  13.268 -0.3808  0.0470  0.0050
24136W        W42990   0.980   8.219   2.500  0.1429 -0.0858  0.1699
24137W        W42991   9.627  13.279  13.764  0.1395  0.2413 -0.0257
24138W        W42992   3.667   7.927  13.727  0.0772  0.1511  0.0673
24139W        W42993  11.143   8.979  17.163 -0.1089 -0.2907  0.0491
24140W        W42994   8.362  17.587  13.469 -0.1837  0.2915 -0.1140
24141W        W42995   7.838   5.404  14.528 -0.0040  0.3365  0.0658
24142W        W42996   7.067   3.721   1.689  0.4723 -0.2210 -0.2647
24143W        W42997   6.815   2.458   3.846  0.2384  0.3780 -0.1166
24144W        W42998   9.653  13.103  15.678 -0.0363 -0.0957  0.0064
24145W        W42999  16.181   1.451   0.886 -0.2147 -0.3409 -0.0082
24146W        W43000   6.349   3.794   2.286 -0.0151 -0.0125 -0.1515
24147W        W43001   2.497   8.246  15.294  0.2933 -0.0922 -0.1735
24148W        W43002   9.286  13.207   1.354  0.1314 -0.1753 -0.1552
24149W        W43003   1.028   3.240  12.317 -0.6090  0.1397  0.0819
24150W        W43004   3.642   4.236   3.693  0.0535 -0.2344 -0.1117
24151W        W43005   7.570  10.718   2.726 -0.0755 -0.0974  0.4610
24152W        W43006   1.143   0.113  15.832  0.1378 -0.0610 -0.1970
24153W        W43007   8.596  13.447  12.256 -0.3671  0.2477 -0.1802
24154W        W43008   1.330   3.123   4.749 -0.0828  0.2209 -0.2572
24155W        W43009   6.183   8.214   1.456 -0.3747 -0.0954  0.0565
24156W        W43010  11.469   4.176  12.507  0.2066  0.2500  0.2303
24157W        W43011  13.652   4.657  12.137 -0.1457  0.1611 -0.0530
24158W        W43012  11.715   1.831   3.391 -0.2794 -0.2826  0.0078
24159W        W43013  15.580   1.068  13.518 -0.0607 -0.0700  0.0756
24160W        W43014   7.094   4.131   1.917  0.1052  0.0275  0.1046
24161W        W43015  15.221   7.275  11.544  0.1026  0.0337 -0.1394
24162W        W43016   2.358  12.815  16.050 -0.2732 -0.2924  0.0027
24163W        W43017   4.425   8.491   4.718  0.0087 -0.0184  0.0008
24164W        W43018  11.401  12.167   0.419  0.0375  0.1963  0.0599
24165W        W43019   9.669   9.600   5.544  0.3059 -0.2857 -0.2489
24166W        W43020  13.306   6.048   4.908  0.0199 -0.1695 -0.0052
24167W        W43021   7.401   2.328  17.098 -0.0697  0.0007 -0.2779
24168W        W43022   5.457   6.956   4.409 -0.1909  0.1528  0.0081
24169W        W43023  17.060   7.163  14.938  0.3762  0.0583  0.1359
24170W        W43024  16.719   3.699   0.238  0.2445  0.0358 -0.2903
24171W        W43025   2.601   6.647   3.505 -0.1618  0.0772  0.1958
24172W        W43026  12.582  10.203   4.829 -0.1477 -0.3147 -0.1887
24173W        W43027  17.056  12.939   2.148  0.4520 -0.0087  0.0910
24174W        W43028  16.269   0.416   1.110  0.1856 -0.0131 -0.1428
24175W        W43029   1.290  10.456  13.998  0.1699 -0.1058  0.1185
24176W        W43030  10.444   3.926  12.487  0.0041 -0.1119 -0.2275
24177W        W43031   3.742  15.233  12.942 -0.0421 -0.3229  0.2744
24178W        W43032   2.656   3.239   2.567 -0.4029 -0.1346 -0.0900
24179W        W43033  11.308   5.132   1.356  0.0413 -0.1441  0.1065
24180W        W43034   3.966  14.670  14.632  0.1425  0.1038  0.1983
24181W        W43035   3.976   6.283  16.878 -0.0169  0.2361 -0.2271
24182W        W43036   4.254   5.059  14.224  0.0572 -0.0497  0.2177
24183W        W43037   9.623   7.700   4.420  0.0128 -0.1184 -0.2325
24184W        W43038  16.972   8.209  14.334 -0.1846 -0.2575  0.0145
24185W        W43039   5.185  11.792  15.683  0.1629  0.0195  0.0741
24186W        W43040   9.267   3.958  17.221  0.1801  0.1269 -0.2437
24187W        W43041   3.132   1.386   5.240 -0.1476 -0.1687  0.1243
24188W        W43042   6.920   2.035  16.128 -0.0002  0.1425 -0.0937
24189W        W43043  10.190   9.083  14.055  0.0297  0.0322  0.0355
24190W        W43044   0.287   9.277  15.034 -0.0551 -0.0429 -0.1494
24191W        W43045   1.883   3.000  14.688 -0.2921  0.0996 -0.0683
24192W        W43046  10.941   7.290   2.487  0.0737  0.0045 -0.1312
24193W        W43047  10.211   7.535   1.932  0.0350 -0.1295 -0.0644
24194W        W43048   7.429   0.267   3.308  0.1099 -0.0249 -0.0996
24195W        W43049  12.113  11.078  13.847 -0.1251 -0.3244  0.3068
24196W        W43050   6.574   3.748   2.708 -0.0390 -0.0742  0.0623
24197W        W43051   4.508  17.095   2.997 -0.1553 -0.1873 -0.2291
24198W        W43052  13.603   7.302   0.824  0.2751  0.0882  0.2928
24199W        W43053  16.955   4.874  14.285 -0.0496  0.0410  0.0007
24200W        W43054   4.496  11.586   3.103 -0.0239  0.1879 -0.3266
24201W        W43055   8.205  11.561  13.457  0.1320 -0.2969 -0.1206
24202W        W43056   3.742   1.184   2.849 -0.2377 -0.1438 -0.2108
24203W        W43057   3.538  16.303   3.352  0.0895  0.2372 -0.0770
24204W        W43058  17.428   9.348   4.003 -0.2066 -0.0240  0.0526
24205W        W43059  15.840  10.002  14.494  0.2292  0.1836  0.2098
24206W        W43060   7.302   5.950  12.490 -0.1178 -0.2541 -0.0641
24207W        W43061  13.662  15.471  14.807 -0.1783  0.0315  0.2396
24208W        W43062   9.950  12.124   0.792 -0.1341  0.3900  0.0164
24209W        W43063   5.234  16.442  13.239  0.0323 -0.0030  0.1334
24210W        W43064  16.802   9.062  13.012 -0.0217  0.0203 -0.2517
24211W        W43065   1.993   8.826  12.601  0.1286 -0.0744 -0.3413
24212W        W43066   9.805   5.637   1.010 -0.1079 -0.2565 -0.0805
24213W        W43067   0.459  14.762  12.224  0.0193 -0.1098 -0.2770
24214W        W43068   4.577  10.525  14.207  0.1702  0.1991 -0.0503
24215W        W43069   0.662   5.057  13.798  0.0816  0.0238  0.1499
24216W        W43070   9.887   5.450   0.032  0.0446 -0.0335 -0.0836
24217W        W43071  12.134   2.411  16.071  0.2804  0.4349 -0.0260
24218W        W43072  12.110   8.421  15.845  0.1172 -0.0032  0.1550
24219W        W43073   9.981  17.299  13.608 -0.2126  0.1190  0.1137
24220W        W43074  13.733   9.486  16.897 -0.2755  0.2403  0.3282
24221W        W43075  10.256  13.868   0.593  0.1392  0.2560 -0.1372
24222W        W43076   9.548  14.050   3.508  0.0980 -0.2005 -0.0744
24223W        W43077   7.800   7.936   3.832  0.1553  0.0332  0.1621
24224W        W43078   4.221   0.923   2.958  0.3239  0.2431 -0.1100
24225W        W43079   7.822  16.602  14.567 -0.1439  0.0826 -0.2772
24226W        W43080  11.625  10.312   2.107 -0.0598 -0.1640 -0.2913
24227W        W43081  13.876  15.136   2.931  0.2698  0.0116  0.1629
24228W        W43082  17.030  15.441  12.406 -0.0453  0.0149 -0.2074
24229W        W43083  13.557   6.736  12.854  0.0113  0.0152  0.0496
24230W        W43084  14.425   8.182  17.128  0.1112  0.0117 -0.0998
24231W        W43085   6.482  11.614  14.133 -0.2631 -0.1591 -0.0677
24232W        W43086  14.030   4.376   5.630  0.3138  0.0437  0.1769
24233W        W43087   4.592   4.363  12.281  0.0966  0.4155  0.1865
24234W        W43088   2.831   2.423  16.940 -0.0632 -0.1098 -0.2206
24235W        W43089  14.785  14.159  15.297 -0.0109  0.0190  0.4099
24236W        W43090  15.960   6.556   2.749 -0.2245  0.2814  0.0069
24237W        W43091   1.459   6.295   1.705 -0.0387  0.1320  0.0432
24238W        W43092   2.710  14.917  14.992  0.0840  0.1830  0.0905
24239W        W43093   7.087  17.456   3.496  0.0893  0.1437 -0.2363
24240W        W43094  17.405   7.129   5.291  0.1091 -0.0141 -0.1263
24241W        W43095   1.318  13.400  12.927 -0.0831 -0.0455  0.1784
24242W        W43096  10.009   9.493  14.899  0.0133  0.1425 -0.0155
24243W        W43097   5.328   0.377   4.932 -0.0056  0.1172 -0.1320
24244W        W43098  13.491  16.643  13.937 -0.0354  0.0558 -0.0727
24245W        W43099   1.796   1.152   1.429  0.0578  0.0629  0.0060
24246W        W43100  16.233   0.451   4.241  0.0117  0.1272 -0.1434
24247W        W43101  11.444  15.192  14.224  0.0364  0.1886  0.2033
24248W        W43102  10.542   5.431   3.048  0.0988 -0.2608  0.2324
24249W        W43103  14.558   8.308  16.613 -0.3573  0.2003 -0.0757
24250W        W43104  15.996  11.869  12.003 -0.1289 -0.1163  0.0247
24251W        W43105   7.609  12.967   4.563 -0.0893  0.2605 -0.3487
24252W        W43106   6.651  13.781   2.241 -0.0057  0.0457 -0.1706
24253W        W43107   7.872  13.553  12.797  0.2681  0.4362 -0.0367
24254W        W43108  13.795   8.588   1.350  0.0901 -0.1702  0.2589
24255W        W43109  17.468   2.256  17.066  0.2053  0.0655 -0.0162
24256W        W43110  13.582   3.867   3.586 -0.5096 -0.2569 -0.1963
24257W        W43111  15.723   4.289   0.170  0.1593  0.2331  0.0825
24258W        W43112   0.862  15.150  16.008  0.1773  0.0358 -0.0607
24259W        W43113  14.175  13.473   4.783 -0.1477  0.2994  0.1048
24260W        W43114  16.279  11.374  15.961  0.0284  0.0659 -0.0685
24261W        W43115   9.076   6.170  13.038 -0.0117 -0.2734 -0.2630
24262W        W43116   2.447   3.578  13.319  0.2309 -0.1012  0.0043
24263W        W43117   1.413   4.528  14.738  0.0588 -0.0994 -0.3774
24264W        W43118   8.236   0.967  13.356 -0.3903  0.1451  0.1049
24265W        W43119  16.779   0.307  16.765  0.0665 -0.1439 -0.1403
24266W        W43120   6.311  12.123   4.253  0.3013  0.2174 -0.1266
24267W        W43121  12.501   5.867   2.540 -0.1012  0.0536 -0.0048
24268W        W43122   9.762  16.274   4.771  0.2155  0.1399 -0.2063
24269W        W43123  15.284   3.340   3.359  0.1448  0.2010 -0.1327
24270W        W43124   8.377   6.897  13.366 -0.0646 -0.3317  0.0256
24271W        W43125   4.269  15.078  16.085 -0.1776 -0.2408  0.3673
24272W        W43126   4.096   8.276  14.532 -0.1649 -0.1862  0.1202
24273W        W43127  11.911   3.620   0.935 -0.1219  0.0533  0.2214
24274W        W43128  16.681   4.393   3.796 -0.0676 -0.0784 -0.0245
24275W        W43129  13.759  12.966   5.181  0.0560 -0.2729  0.0252
24276W        W43130  10.039   0.163   0.869 -0.2608 -0.2708  0.1158
24277W        W43131   5.945   0.291  12.313  0.1255 -0.1205 -0.1279
24278W        W43132   9.299  17.418  12.223 -0.0634  0.1120 -0.4711
24279W        W43133   4.925  15.178  14.063 -0.0391 -0.0974  0.2041
24280W        W43134   2.566  15.395  15.800  0.0314  0.1143  0.0026
24281W        W43135   8.419   3.915   4.541  0.0072 -0.1543  0.2473
24282W        W43136  10.679   0.691  16.651  0.0259  0.0243  0.0919
24283W        W43137   4.720  12.437  15.084 -0.0546 -0.3718 -0.0918
24284W        W43138  16.282   8.247  11.815  0.2659 -0.0874  0.0465
24285W        W43139  15.316   5.784   2.077 -0.2102 -0.1542  0.0842
24286W        W43140  17.460  16.171  16.687  0.0551 -0.1026 -0.4006
24287W        W43141   1.162  15.104   1.795  0.3022  0.2188 -0.0592
24288W        W43142   7.056  12.082   1.255  0.0431  0.0614 -0.1015
24289W        W43143   3.732   9.348   5.818 -0.0993  0.0433  0.1411
24290W        W43144   3.743  13.789  17.151 -0.0664  0.1647 -0.1185
24291W        W43145  15.749   0.069  12.482  0.0818 -0.1841  0.0503
24292W        W43146   1.512  15.341  13.207  0.2164 -0.3084  0.0679
24293W        W43147   0.020  11.626  17.145  0.0765 -0.4444  0.3712
24294W        W43148  13.322  11.397  13.457  0.0207 -0.0719  0.0854
24295W        W43149  10.536   4.128   3.181 -0.2048  0.1013  0.0947
24296W        W43150  16.491   7.335   0.797  0.4077 -0.2224  0.1923
24297W        W43151  12.440  12.477   4.955 -0.1575 -0.0012  0.0141
24298W        W43152   8.188   7.342   1.518  0.2614  0.2893 -0.1206
24299W        W43153   5.154  13.939  13.537 -0.0867  0.2163 -0.2577
24300W        W43154  10.538   0.058   3.691  0.0868 -0.1262  0.0606
24301W        W43155   8.165  12.931   4.783  0.0109  0.0012 -0.1662
24302W        W43156   3.067  11.273   4.552  0.0460 -0.0541 -0.1089
24303W        W43157   9.955  16.562   4.327 -0.2321 -0.0322 -0.4267
24304W        W43158   6.599  12.635  12.755  0.2458 -0.1292 -0.0754
24305W        W43159  13.170   7.333  15.720  0.0793  0.1213  0.2596
24306W        W43160   3.218   0.040   0.699 -0.0333  0.0836 -0.1348
24307W        W43161   9.278   2.277   0.383  0.4902  0.1215 -0.1753
24308W        W43162   1.424   0.906   4.515  0.4440 -0.0268 -0.0718
24309W        W43163  13.221   2.203  15.474  0.1870  0.1420 -0.0037
24310W        W43164  14.612   5.164   3.213  0.2996  0.4816  0.1993
24311W        W43165  13.154  16.508  14.923 -0.0497  0.1990  0.0448
24312W        W43166  16.614   6.053   1.059 -0.0853  0.0002 -0.0258
24313W        W43167  10.012  13.495   0.823  0.1275 -0.0661 -0.0709
24314W        W43168   4.848   6.871  12.640 -0.2849 -0.2717 -0.1435
24315W        W43169   1.329  12.025   0.094  0.1582  0.3187 -0.2658
24316W        W43170   5.353   3.424   1.097 -0.4481  0.2970 -0.1761
24317W        W43171  14.213   2.823   4.870  0.0612 -0.1286  0.0547
24318W        W43172   5.331   5.960  15.283 -0.0673 -0.3485 -0.1335
24319W        W43173   6.832   4.619   5.230 -0.1252  0.2597 -0.4122
24320W        W43174  12.316  17.583   0.656  0.0215 -0.3474  0.0160
24321W        W43175   5.586  14.564  17.017 -0.2392 -0.1403 -0.0491
24322W        W43176   0.127   4.235   2.079 -0.0892  0.0248  0.0381
24323W        W43177  15.371   0.355  16.248  0.2495 -0.1532  0.2137
24324W        W43178  14.156  10.341  11.898 -0.3147 -0.1587  0.2321
24325W        W43179   4.602   4.133   2.153  0.3069  0.2411  0.1973
24326W        W43180  15.246   3.862  14.863  0.0824  0.0097 -0.2730
24327W        W43181   8.277   0.499   3.658  0.0744 -0.0946  0.1501
24328W        W43182   1.108   5.817   2.847 -0.2277 -0.1643  0.0448
24329W        W43183   0.004  11.726  14.785 -0.2139  0.1626  0.0255
24330W        W43184  12.737  14.769  14.783 -0.0411  0.0908  0.3962
24331W        W43185  13.532  10.050   3.549  0.3184  0.4681 -0.3057
24332W        W43186   8.548   2.947  13.420 -0.0937  0.3485  0.1005
24333W        W43187   0.337   7.924   3.642  0.1365  0.3198 -0.2699
24334W        W43188   3.528   5.420   0.750 -0.1555  0.0361  0.2348
24335W        W43189   2.345  16.149  12.356  0.1659 -0.3236  0.0286
24336W        W43190  13.647   2.190   3.895 -0.0543  0.0356  0.2147
24337W        W43191   9.723  14.144   2.456  0.0557 -0.0147  0.1596
24338W        W43192   0.665   5.404   1.157 -0.1516  0.2334  0.0771
24339W        W43193   2.803   5.229  15.997  0.0287 -0.1815  0.1153
24340W        W43194   9.136  12.646  15.158 -0.0316  0.0910  0.0122
24341W        W43195  15.698   6.084   0.785  0.0352  0.1881  0.0232
24342W        W43196   7.792  13.103  12.996 -0.3315  0.2389 -0.0021
24343W        W43197  10.948   6.792   0.019  0.0564 -0.0160  0.3289
24344W        W43198   5.195   7.086   1.731  0.1960  0.0492 -0.0321
24345W        W43199   8.444  15.993  17.092  0.2607 -0.1277 -0.1844
24346W        W43200   2.037  16.885  13.325  0.0673 -0.1777 -0.4717
24347W        W43201   2.964  14.141  13.921 -0.0336  0.0066  0.0464
24348W        W43202   4.301  10.624  11.868 -0.3061 -0.2549 -0.1944
24349W        W43203   2.102   6.766  14.424 -0.1334  0.0096 -0.2094
24350W        W43204   2.166   0.567  16.735 -0.2700  0.0524 -0.0273
24351W        W43205  14.601   9.019   0.661 -0.0027  0.0012 -0.2546
24352W        W43206   1.147   0.515   3.204  0.1950 -0.2644 -0.0766
24353W        W43207   9.617  10.750   4.718 -0.0908  0.1560  0.1252
24354W        W43208   0.074   8.944  15.384  0.2096  0.0728 -0.3379
24355W        W43209   2.649   9.553   2.894 -0.1136  0.2055  0.1589
24356W        W43210  10.291   3.505  14.804 -0.2392 -0.0478  0.0817
24357W        W43211  12.916   4.983  14.323 -0.1850 -0.0595 -0.0224
24358W        W43212  13.352  16.783  15.271  0.1411 -0.0734  0.0308
24359W        W43213  16.319   5.654   4.955 -0.0101 -0.1552 -0.1822
24360W        W43214   8.091   8.937  15.155 -0.0763  0.1378 -0.0796
24361W        W43215  10.319   5.344  13.485  0.2922  0.0007  0.0601
24362W        W43216  11.175   0.017   3.490 -0.0681  0.1883 -0.0359
24363W        W43217  14.595  12.325   0.219 -0.3062 -0.0497 -0.1145
24364W        W43218   0.230   6.887   5.245 -0.0099  0.3737 -0.2025
24365W        W43219   9.928  16.764   5.067 -0.0904  0.1066  0.1246
24366W        W43220  15.121  10.626   2.722  0.0270  0.0066  0.1406
24367W        W43221  11.092   4.103  13.702  0.0994  0.1323  0.2906
24368W        W43222  14.363   4.661  14.125  0.1548 -0.0845 -0.0004
24369W        W43223  16.284   8.849   5.838  0.0162  0.3188 -0.2441
24370W        W43224   1.706  10.654   5.327  0.1885  0.0618 -0.3137
24371W        W43225   7.361  14.671  11.890  0.1694 -0.1369 -0.1454
24372W        W43226   6.253   7.604   0.304 -0.1027  0.1482  0.2305
24373W        W43227   5.773  12.524  13.899  0.1213 -0.1917  0.1771
24374W        W43228   6.994  16.311   2.878 -0.0010  0.0577 -0.0162
24375W        W43229   6.035   1.966  14.939  0.2045 -0.1111 -0.2441
24376W        W43230   6.378   5.933   4.326 -0.0387  0.2925 -0.0294
24377W        W43231  14.412  10.368   4.260 -0.0702 -0.0634  0.0329
24378W        W43232  17.137   9.752   4.228  0.0499 -0.0546 -0.0319
24379W        W43233  13.607   5.069   4.639  0.1884  0.2986  0.1965
24380W        W43234   5.532  12.528   2.765  0.0359  0.0450 -0.0700
24381W        W43235  12.703   2.418   3.788 -0.0194 -0.2048  0.0053
24382W        W43236   8.817  11.737   4.021 -0.0465 -0.0622 -0.2765
24383W        W43237  10.396  15.562  16.638 -0.0293  0.2872  0.0678
24384W        W43238   4.706  11.514  11.976  0.3309 -0.0391 -0.0833
24385W        W43239   8.312  11.791   0.827  0.1186  0.1028 -0.0173
24386W        W43240  16.374  16.399  14.080 -0.1965 -0.0056 -0.1427
24387W        W43241  10.024  13.467  15.648 -0.2120 -0.1280  0.0380
24388W        W43242   6.489   8.324  13.097 -0.1177  0.0593 -0.1290
24389W        W43243  15.240  14.264  16.606 -0.1213  0.3938 -0.2512
24390W        W43244  12.705   1.995   3.545  0.1538 -0.0602 -0.0303
24391W        W43245   1.290  14.164  12.269 -0.2091 -0.1688 -0.2007
24392W        W43246  16.474   2.500  11.849 -0.0572 -0.0208  0.3256
24393W        W43247  10.908   2.234   2.682  0.2783 -0.1885 -0.0473
24394W        W43248   5.601   0.480  13.827 -0.1711 -0.1818  0.3273
24395W        W43249   5.226  14.050  16.713 -0.1866 -0.1863 -0.0998
24396W        W43250  17.557  12.058   2.466  0.0984 -0.0324 -0.0443
24397W        W43251  11.709   3.809  12.714 -0.1867  0.1439  0.2156
24398W        W43252   6.887   6.267   0.585  0.1920 -0.0357 -0.0121
24399W        W43253   4.080  10.125   4.614 -0.2360 -0.0320  0.1239
24400W        W43254   7.749   3.502   5.223  0.0152  0.1052 -0.1165
24401W        W43255  14.051  16.136  16.131 -0.2734  0.1263  0.0855
24402W        W43256  12.879  14.819   1.725  0.0384 -0.0027 -0.1738
24403W        W43257  13.569   5.357   2.341 -0.2187  0.3422  0.0061
24404W        W43258  11.696   1.414   1.614  0.0576  0.1449 -0.0533
24405W        W43259   5.556   9.613  14.019 -0.1615  0.0855  0.0261
24406W        W43260  15.302  13.410   2.484  0.2274  0.1859  0.3288
24407W        W43261  11.845  11.620  14.447  0.0161 -0.0108  0.0361
24408W        W43262   9.376  11.157  14.318  0.1549 -0.1112  0.0057
24409W        W43263  11.883  12.233   5.733  0.0242  0.2507 -0.2128
24410W        W43264   9.836   0.507  14.800  0.0646  0.2036 -0.0943
24411W        W43265  14.242   6.923   1.629 -0.2310 -0.0024  0.1332
24412W        W43266   6.239  10.216  13.881 -0.0168 -0.0230 -0.1440
24413W        W43267   1.697   5.572   2.048  0.4661 -0.1088 -0.2755
24414W        W43268   4.925   3.336  16.574  0.2318 -0.2298 -0.1819
24415W        W43269  16.987  12.775  15.732 -0.0597 -0.1645 -0.1903
24416W        W43270   6.330  16.133  15.449 -0.0000  0.1509  0.0792
24417W        W43271   4.888   3.193  14.534 -0.2361 -0.1913 -0.1268
24418W        W43272   7.481  17.350   1.986 -0.0059 -0.3372  0.0162
24419W        W43273  15.373   6.647   3.586 -0.0767 -0.1385 -0.0671
24420W        W43274   8.832  16.239  14.950  0.0623  0.2393 -0.1729
24421W        W43275   1.458  13.293  12.445 -0.2142 -0.1836  0.0704
24422W        W43276   2.788   7.281   1.584 -0.1778  0.0622  0.0695
24423W        W43277   7.813   9.574   1.164  0.2095 -0.3575 -0.1694
24424W        W43278   6.788   5.317  12.073 -0.1256  0.2664 -0.1546
24425W        W43279  13.308   6.902  14.307  0.0001  0.0617 -0.0537
24426W        W43280   4.590   9.148  15.269  0.1793  0.0575 -0.2378
24427W        W43281   6.471   1.790  17.073 -0.1695 -0.0189  0.0565
24428W        W43282  11.147   9.475   3.776  0.2232  0.0291  0.1787
24429W        W43283  11.059  10.090   1.482  0.3736  0.0565  0.1715
24430W        W43284  17.066   5.567  13.825  0.0217  0.1906 -0.2851
24431W        W43285   5.272  12.167  14.313  0.2990 -0.0923 -0.0550
24432W        W43286   2.189   1.940   2.348  0.2687 -0.0376  0.1670
24433W        W43287   7.181  13.069   1.448 -0.1484  0.4298 -0.0254
24434W        W43288  13.162  11.892   3.843  0.1286 -0.0711 -0.0077
24435W        W43289   0.425   8.164   1.290 -0.2595 -0.2044  0.0980
24436W        W43290  15.333   9.937  14.260  0.1979  0.2153  0.0521
24437W        W43291   4.524  16.996  14.298  0.0690 -0.1682  0.0005
24438W        W43292   1.998  10.587   2.451  0.2765  0.1353 -0.3539
24439W        W43293   3.833  17.482   1.659  0.1670 -0.2782 -0.0815
24440W        W43294  12.575   8.507   0.543 -0.1151  0.1279 -0.0549
24441W        W43295  12.146  14.580   4.574 -0.2154 -0.1773  0.1655
24442W        W43296   9.552  15.109   5.251 -0.1750  0.2850 -0.0251
24443W        W43297   7.884  16.683   1.699 -0.0217 -0.1311  0.0009
24444W        W43298  10.633  16.689   4.037  0.1127  0.0367  0.2908
24445W        W43299   9.526   6.434   1.452 -0.0390  0.2672  0.1334
24446W        W43300   6.779   4.545  14.715 -0.0123 -0.1833  0.0781
24447W        W43301  13.204  17.476   0.483 -0.2875  0.0315 -0.2740
24448W        W43302  11.992  13.512   2.540 -0.0742  0.0858  0.2057
24449W        W43303   1.816  16.299   1.478  0.0594  0.2547 -0.0235
24450W        W43304   1.576   4.442   3.802 -0.0904 -0.1159  0.0063
24451W        W43305  14.196  11.225   3.095  0.2346 -0.1558 -0.0637
24452W        W43306   2.772   9.013  13.379 -0.0966 -0.0110  0.0736
24453W        W43307   3.031   0.026   1.943  0.0108  0.0046  0.1466
24454W        W43308   2.263   2.488   3.137 -0.1352  0.3174 -0.1184
24455W        W43309   5.082   8.011   2.036  0.2682 -0.0641 -0.0951
24456W        W43310   8.005   4.983  13.523 -0.0265 -0.0842  0.0000
24457W        W43311  12.955  16.929   2.735 -0.2491  0.0105  0.1375
24458W        W43312   2.391   3.834  12.520  0.0133 -0.0121  0.1733
24459W        W43313  14.666   9.955  12.166 -0.0421 -0.1937 -0.3927
24460W        W43314  13.064   9.610  14.719  0.0865  0.0380 -0.3154
24461W        W43315  13.849   6.967   3.365  0.2824  0.0091  0.1453
24462W        W43316   2.719   9.514  15.023  0.2812  0.2907  0.0532
24463W        W43317  12.357  10.308   2.747  0.2162 -0.0284 -0.1434
24464W        W43318  12.132  15.535   0.349  0.1055  0.2781  0.2089
24465W        W43319  13.091  11.035   4.256  0.0808 -0.0788  0.1831
24466W        W43320  11.591   4.175   3.998 -0.0343 -0.1023  0.1382
24467W        W43321   7.404  10.626  14.571 -0.2363 -0.0643  0.3307
24468W        W43322   7.336   3.677   2.086  0.1669 -0.1374 -0.2592
24469W        W43323   4.217   5.618   1.220  0.0459 -0.1082  0.2573
24470W        W43324   4.762   4.234  15.494  0.0407 -0.0186  0.0541
24471W        W43325   6.249   6.115  15.374 -0.2083 -0.3534  0.0191
24472W        W43326  16.036   1.518  15.700 -0.0370 -0.1138 -0.1659
24473W        W43327  17.355   1.387  14.410 -0.1044 -0.1925 -0.0698
24474W        W43328   4.597  12.826   2.780  0.1938 -0.0857  0.1887
24475W        W43329   4.667   8.630   2.366  0.3833  0.0052 -0.1695
24476W        W43330  14.415  17.134  14.232  0.2450 -0.0904 -0.0865
24477W        W43331   2.373   2.876  14.453 -0.0069  0.1582  0.2508
24478W        W43332   7.898  13.367   0.406  0.1042  0.0834 -0.3629
24479W        W43333   7.047  16.428   4.783 -0.0893 -0.0960 -0.0310
24480W        W43334  15.637  11.434   5.258  0.1883 -0.0084 -0.0450
24481W        W43335   3.396  17.156  14.947  0.1612 -0.0812 -0.1606
24482W        W43336   2.190   1.833  13.961 -0.0771  0.1133  0.1267
24483W        W43337  14.921   2.111  14.644 -0.5899  0.2957  0.3667
24484W        W43338   9.871  15.294  14.038  0.0992 -0.0584  0.0776
24485W        W43339   4.568   7.231  14.486 -0.0587 -0.1697  0.0337
24486W        W43340   0.493  15.021   3.489  0.0923  0.0478  0.0120
24487W        W43341   9.615   1.612  16.417 -0.2600  0.1589 -0.2444
24488W        W43342   0.465   5.427  16.394 -0.0600 -0.0600 -0.1882
24489W        W43343  15.129  11.345   5.482  0.0838  0.2221  0.2006
24490W        W43344  15.173  10.871  13.538  0.1663  0.0281  0.1634
24491W        W43345   6.572   4.834  16.401  0.2368  0.4169  0.1573
24492W        W43346   4.619   7.886   0.882 -0.0314  0.4840 -0.0973
24493W        W43347   3.410  16.215  13.870  0.0223 -0.1326 -0.2448
24494W        W43348   6.002  14.860   0.301 -0.1227 -0.1031 -0.1448
24495W        W43349  16.947  14.572  13.914 -0.1759 -0.1394 -0.0277
24496W        W43350   9.259   1.964  16.489 -0.2704  0.0107  0.3221
24497W        W43351   6.299   6.258   4.729 -0.0340 -0.0813  0.0064
24498W        W43352  17.567  15.494   1.757  0.3517 -0.0257 -0.1810
24499W        W43353  14.758  14.076  16.430 -0.1929 -0.1484 -0.0200
24500W        W43354   7.369   9.151  16.529  0.0526 -0.2591 -0.1621
24501W        W43355   9.793  15.930  14.294 -0.1387  0.1720  0.0910
24502W        W43356   8.711   4.240   4.200 -0.0654  0.3165 -0.1122
24503W        W43357   3.444   9.898   1.215 -0.0316  0.1314 -0.0650
24504W        W43358  15.349   7.291   0.723  0.1518  0.1041 -0.1456
24505W        W43359  13.808   2.972  14.815 -0.1308 -0.1211 -0.1185
24506W        W43360   8.749   1.944   1.081 -0.0355  0.0507  0.0453
24507W        W43361   3.833  15.329   5.153  0.0326 -0.1858 -0.0178
24508W        W43362   9.249  11.471   3.918  0.0245  0.2438  0.1714
24509W        W43363   6.849  15.403   0.527 -0.1810 -0.1690  0.1053
24510W        W43364  17.036   9.182  16.523  0.1000 -0.2238  0.1529
24511W        W43365   6.267   8.156  14.383  0.1859 -0.0891  0.2094
24512W        W43366   2.979  12.363   4.653  0.0072  0.0581 -0.0463
24513W        W43367  15.173   1.860   3.021 -0.2237 -0.1977 -0.4620
24514W        W43368   4.674   3.003   3.702 -0.3084  0.0944  0.2189
24515W        W43369   7.006   5.052   3.588 -0.2858 -0.2613  0.3557
24516W        W43370  16.835  10.755   3.323  0.1375  0.1010  0.0362
24517W        W43371   3.531   5.289   5.516  0.0098  0.1609 -0.1546
24518W        W43372   7.259   2.341   4.122  0.2645 -0.0111 -0.2953
24519W        W43373   3.184  10.997  16.420 -0.2934 -0.2498  0.0686
24520W        W43374   0.245   9.794  14.030  0.1051  0.1745 -0.0430
24521W        W43375   9.217  15.284   2.236 -0.1089  0.2321  0.0827
24522W        W43376   8.128   9.033   0.569 -0.2225 -0.2448  0.3389
24523W        W43377   2.313   0.175   4.496 -0.4549  0.3027  0.2994
24524W        W43378   5.089  14.524  16.862 -0.0176  0.1899  0.0127
24525W        W43379   9.111   4.919  15.592  0.1265  0.2716  0.1569
24526W        W43380  13.363   0.751   1.553  0.1157 -0.1028  0.3544
24527W        W43381   0.273   1.429  14.147  0.2320 -0.1688  0.0167
24528W        W43382   5.109   9.317  13.937  0.1257  0.0480  0.0423
24529W        W43383   8.497   3.852  15.550  0.1417 -0.3388  0.0098
24530W        W43384   6.552  14.757  14.504  0.1816  0.1913  0.0999
24531W        W43385  11.938   0.595   0.630 -0.0391  0.0045  0.0119
24532W        W43386   4.640   9.694   0.018 -0.1290  0.2218 -0.0330
24533W        W43387   1.410  11.351  15.033 -0.0114 -0.0659  0.3175
24534W        W43388   8.685   8.250   4.672 -0.0316  0.2794 -0.0477
24535W        W43389  17.155   9.341   0.015  0.1693  0.3268 -0.2179
24536W        W43390   1.370  11.764  12.830  0.1106 -0.1008  0.0255
24537W        W43391  14.206   6.802   3.777 -0.0518  0.3706 -0.0557
24538W        W43392  13.626   0.953   2.171 -0.1680  0.1451  0.0576
24539W        W43393   0.850   2.648  16.538 -0.0920  0.1290  0.3433
24540W        W43394   2.911   1.643   4.801 -0.1903  0.1240 -0.1436
24541W        W43395   7.429   9.036   1.902  0.2453  0.0849  0.1652
24542W        W43396  15.593   6.381  15.707 -0.0476  0.2929 -0.1599
24543W        W43397  11.160  12.062  15.213  0.0581 -0.1953  0.3984
24544W        W43398   2.471   3.942   3.206  0.3135 -0.1942  0.1592
24545W        W43399   8.088  12.133  13.620 -0.0101  0.0958  0.0905
24546W        W43400   7.074   8.440  13.814 -0.0719 -0.0465 -0.0178
24547W        W43401  13.661   0.611   4.083 -0.0464 -0.2078 -0.1434
24548W        W43402   3.328   4.653   1.062  0.1861  0.1861 -0.1121
24549W        W43403  14.643   6.726  14.573  0.2171 -0.2038 -0.1314
24550W        W43404   1.736   9.398   1.890 -0.0640  0.0055  0.2054
24551W        W43405   3.474  12.347  14.510 -0.0368 -0.0946 -0.0352
24552W        W43406  16.450   2.294  12.549 -0.1460  0.4376  0.1505
24553W        W43407   3.619   8.445  13.617 -0.1044  0.1887  0.3484
24554W        W43408  17.082   1.405  13.689 -0.0186  0.1601  0.4481
24555W        W43409  11.752  12.108   3.523 -0.0536  0.2180 -0.1994
24556W        W43410  11.132  11.951  13.261 -0.1132  0.1233 -0.0030
24557W        W43411  12.041   5.787  16.994 -0.1677 -0.0480 -0.0985
24558W        W43412  15.726   8.758   1.341  0.3266  0.1640 -0.0999
24559W        W43413  11.715  12.766   5.217 -0.4468 -0.0305 -0.0886
24560W        W43414  10.657   7.646  13.603  0.2644  0.0729 -0.1467
24561W        W43415   6.701   1.128  15.747  0.0703  0.0585 -0.1541
24562W        W43416  12.960   6.442  16.264 -0.0422  0.2128  0.1450
24563W        W43417  16.043  12.284  11.744 -0.0947  0.0424 -0.4660
24564W        W43418   2.906  16.697  16.877 -0.1863  0.2500 -0.1093
24565W        W43419   2.950  16.565   3.971  0.2644 -0.3790  0.0739
24566W        W43420   2.854   2.266   1.545 -0.0005  0.0641 -0.2877
24567W        W43421  13.461   2.599   0.562 -0.2826  0.0190  0.0296
24568W        W43422   7.322  12.440  14.222  0.1134  0.0160  0.1375
24569W        W43423  16.580  17.412   1.205  0.1009 -0.0406 -0.0142
24570W        W43424   8.008   6.356   5.169 -0.1137  0.0389 -0.0972
24571W        W43425   6.964   4.380  14.243 -0.2267  0.3340  0.0926
24572W        W43426   7.427  12.018   2.597  0.5463  0.0191  0.3203
24573W        W43427   1.752   6.101   4.786 -0.0778  0.2129 -0.1345
24574W        W43428   4.801  16.289  12.471 -0.1664  0.0526 -0.3648
24575W        W43429   5.410  14.410  13.527  0.0563 -0.0080 -0.4323
24576W        W43430   3.445  11.925  12.861 -0.0977 -0.1072 -0.3112
24577W        W43431  11.689  12.497   2.756 -0.3542  0.2034  0.1729
24578W        W43432   2.138   7.158  15.047 -0.0403 -0.0897  0.0267
24579W        W43433   1.295   8.350  15.581  0.0063 -0.0908  0.0214
24580W        W43434   3.437  13.905  15.993  0.2533  0.1661 -0.2345
24581W        W43435  13.232  13.060   0.006  0.2481  0.3307 -0.0026
24582W        W43436   5.767  14.942  13.519  0.0332  0.1441  0.0065
24583W        W43437   8.368  13.493   0.289  0.0166 -0.1450 -0.2529
24584W        W43438   5.735  11.958   3.511  0.0430  0.0224 -0.2444
24585W        W43439  12.448  11.339   0.859  0.1285  0.0654 -0.0081
24586W        W43440  17.401   7.837  10.740 -0.0889  0.1891  0.1267
24587W        W43441   5.838  15.659  14.647  0.0629 -0.2075  0.2346
24588W        W43442   5.657   4.148  13.080  0.0861  0.1520  0.3731
24589W        W43443   2.237   1.666   0.896 -0.0531  0.0430 -0.0349
24590W        W43444   6.737   0.567  15.521  0.1143  0.1694  0.1893
24591W        W43445  10.117   8.085  14.987  0.2796  0.0593 -0.1600
24592W        W43446   5.326   9.285  12.238  0.0452 -0.2043  0.0866
24593W        W43447  15.513  13.784  15.816  0.1821  0.2826 -0.1728
24594W        W43448   6.650   9.000   3.684 -0.0134  0.2669 -0.2368
24595W        W43449  14.929  11.849  14.207 -0.3136  0.0257 -0.1061
24596W        W43450  14.191  12.917   1.819 -0.2170  0.0411  0.3280
24597W        W43451  15.649  16.977   1.594 -0.2641 -0.4173  0.2005
24598W        W43452   0.034  11.638   2.748 -0.1358  0.3196 -0.0426
24599W        W43453   4.528   1.436  15.197  0.2880  0.0201  0.3965
24600W        W43454  13.529  15.202  15.790  0.0429  0.0767  0.2277
24601W        W43455  13.868  13.751   1.995  0.0945 -0.2670 -0.0698
24602W        W43456  16.259  12.637   2.784 -0.0802 -0.2761 -0.0059
24603W        W43457  13.769  16.193   4.496  0.0558 -0.1645 -0.0386
24604W        W43458  15.173  15.619   3.248  0.1941  0.1440  0.0229
24605W        W43459   6.017  13.335   0.146  0.0517  0.1398 -0.0602
24606W        W43460   4.243  12.535  15.277  0.3634 -0.0223  0.1151
24607W        W43461  12.768   4.319   1.746 -0.0997 -0.1165 -0.1185
24608W        W43462  17.263   9.500   0.455  0.0601  0.1307 -0.3127
24609W        W43463  13.642   9.737   3.086 -0.1810  0.1384  0.1284
24610W        W43464   1.353   6.319  17.079  0.0577 -0.0986 -0.0913
24611W        W43465   2.191  15.231  16.604 -0.1198  0.0009 -0.0076
24612W        W43466  12.052  12.645   0.682 -0.2209 -0.1001 -0.1732
24613W        W43467   6.060  14.489  17.207 -0.0761 -0.3594 -0.2155
24614W        W43468  13.224  11.799  15.909 -0.1751 -0.0460 -0.2859
24615W        W43469  14.000  13.354  16.598 -0.1626 -0.1575  0.4325
24616W        W43470   7.632   4.013  12.413 -0.1207  0.0725  0.1088
24617W        W43471  11.231   4.345  16.545 -0.0278 -0.0878 -0.2100
24618W        W43472  10.061   2.924  12.517  0.2510  0.0724 -0.0681
24619W        W43473   5.692   5.068   3.454  0.0726 -0.0115 -0.3183
24620W        W43474  16.964   3.756  13.579 -0.0224  0.3991 -0.0698
24621W        W43475  15.595   6.874   0.048 -0.0641 -0.1187  0.0336
24622W        W43476   2.425   6.292  15.347 -0.4285  0.0574 -0.0992
24623W        W43477  11.748   3.094  15.925  0.2582  0.2111  0.0564
24624W        W43478  10.978  17.145   5.472  0.0655  0.0718  0.0918
24625W        W43479   5.284   8.476   2.876 -0.1530  0.1175 -0.0794
24626W        W43480  10.510   6.287  12.391 -0.4135 -0.1578  0.2647
24627W        W43481   3.516   8.615   3.515 -0.2824  0.1198  0.1417
24628W        W43482   0.167  16.765  15.646 -0.0446 -0.0557  0.0073
24629W        W43483   1.878  13.579   0.941 -0.0763 -0.1326  0.1446
24630W        W43484  10.314   8.177   2.988 -0.0498  0.3187 -0.2353
24631W        W43485   1.402   4.947  10.910  0.1913 -0.0935 -0.0281
24632W        W43486  17.120  15.555   2.724  0.1080 -0.1780  0.0186
24633W        W43487   2.895  17.310   0.890  0.1041 -0.0100  0.0335
24634W        W43488   3.430   1.072   2.002  0.0344  0.1832  0.1902
24635W        W43489   9.117   5.079  13.790 -0.2044  0.1525  0.0447
24636W        W43490   9.126  16.211   3.965 -0.1180 -0.0509  0.0264
24637W        W43491   3.098  14.133   5.062 -0.1915 -0.3737  0.0359
24638W        W43492  15.818   2.081   4.724  0.1731 -0.2063 -0.0826
24639W        W43493  13.245  14.623   5.940  0.2228 -0.0500  0.3274
24640W        W43494   3.723  14.767   0.854  0.0154 -0.2898 -0.2868
24641W        W43495   5.507   1.595  12.237 -0.2674 -0.2252 -0.1210
24642W        W43496   9.751   7.695  13.351 -0.1812 -0.1333  0.1861
24643W        W43497   4.284   3.809  13.876 -0.0143 -0.1837 -0.0866
24644W        W43498   8.353   3.079   4.328 -0.0536  0.0800 -0.2493
24645W        W43499  16.806  15.461   0.224  0.2580  0.0645  0.2295
24646W        W43500  11.588   7.917   4.600 -0.2316 -0.2045  0.1166
24647W        W43501   1.867  16.285  16.388 -0.0782  0.1070 -0.1335
24648W        W43502   3.623  12.809   2.992 -0.6803  0.1194  0.3229
24649W        W43503   3.775  13.536  12.181  0.0851  0.3122  0.0923
24650W        W43504   0.184  10.858   1.787 -0.1796  0.0211 -0.0632
24651W        W43505   8.084   3.460   0.607 -0.0400  0.1960 -0.0715
24652W        W43506   3.764  10.462   4.461 -0.1072 -0.1503  0.0709
24653W        W43507  11.757   4.872   3.200 -0.2252 -0.0849 -0.1782
24654W        W43508  15.372  14.463  12.326 -0.0760 -0.0740  0.0401
24655W        W43509  16.873   8.226   4.712 -0.0881 -0.1187 -0.2991
24656W        W43510  16.494   3.592  15.716 -0.0283 -0.0690 -0.1278
24657W        W43511   2.668   1.867  15.412 -0.2076 -0.1124 -0.4050
24658W        W43512  13.614   8.011   5.550 -0.0016  0.2015 -0.3345
24659W        W43513   2.364   7.916   2.389  0.3156 -0.0188  0.2704
24660W        W43514  12.740  14.061  16.446  0.0861 -0.0688  0.2381
24661W        W43515  13.208   3.371  15.454  0.2282  0.0846  0.0177
24662W        W43516   4.175   9.867  12.269 -0.0879  0.2077  0.2093
24663W        W43517   7.460  14.335   0.976 -0.1519  0.0404 -0.3408
24664W        W43518   9.039   0.172   3.229  0.3792  0.0394 -0.2607
24665W        W43519   0.586  17.075  12.401 -0.0842 -0.1302 -0.1829
24666W        W43520  11.446   4.164   4.807 -0.1006 -0.0124  0.2342
24667W        W43521  14.711  13.540   3.183  0.0468  0.0065 -0.0932
24668W        W43522   8.987  13.013   4.505  0.0455 -0.1722  0.0158
24669W        W43523   2.942   5.854  13.627  0.1113 -0.1109  0.0442
24670W        W43524   7.554  14.725  14.317  0.1784 -0.0004  0.0851
24671W        W43525  12.062  10.798   3.886 -0.3648 -0.1870 -0.3179
24672W        W43526  16.716   8.499  15.330 -0.1832 -0.3371 -0.0269
24673W        W43527   9.539   5.425  16.431 -0.0417  0.0188  0.2932
24674W        W43528   4.059   8.115   0.047 -0.2006 -0.0460 -0.2534
24675W        W43529  13.714  11.620   5.180 -0.1617  0.1454 -0.1944
24676W        W43530  17.409   6.835   6.086 -0.0935 -0.3159 -0.1035
24677W        W43531  11.374  14.996   1.433  0.3120  0.3985 -0.1493
24678W        W43532   8.223   2.407   3.610  0.0717  0.0802  0.0900
24679W        W43533   2.034  15.567   4.994  0.1805  0.1233 -0.4397
24680W        W43534  16.273   7.887  14.784 -0.0467  0.1244 -0.2607
24681W        W43535   0.364   7.139  16.471 -0.1380 -0.0473 -0.2554
24682W        W43536  12.138   6.993   6.181  0.1413 -0.0596 -0.0556
24683W        W43537  12.648   1.176   4.507 -0.0049 -0.1966 -0.2818
24684W        W43538  15.917  16.291  15.323 -0.0171 -0.0839  0.0931
24685W        W43539  13.067  17.343   2.497  0.0207  0.2022  0.0803
24686W        W43540   5.452  12.256   4.916 -0.0991 -0.0925 -0.1599
24687W        W43541  12.043   1.835   0.746 -0.0802 -0.2511  0.2877
24688W        W43542  16.283   1.370   4.008 -0.0204 -0.1511 -0.1304
24689W        W43543   8.675   8.731  13.258 -0.1284 -0.0014 -0.1891
24690W        W43544   3.761   4.102   2.052 -0.3992 -0.2414  0.1158
24691W        W43545   9.568  11.952  14.076  0.0912  0.0322  0.0148
24692W        W43546   5.278  17.042  13.125 -0.2552 -0.0434  0.1742
24693W        W43547  10.458   8.260   4.480  0.0720 -0.2053 -0.1236
24694W        W43548   4.526   1.225   0.563 -0.3007  0.3675 -0.2817
24695W        W43549  12.145   0.406  11.348 -0.1913  0.3904 -0.1612
24696W        W43550   6.836   0.777  16.516  0.2392  0.0206  0.0058
24697W        W43551  16.260   7.505  14.051 -0.0121  0.3508 -0.0246
24698W        W43552  16.369  11.277   0.199 -0.0185 -0.0831  0.1078
24699W        W43553   9.750   2.651   0.020  0.0313  0.1754 -0.0885
24700W        W43554   0.467  16.578   0.972  0.0295  0.1376  0.3566
24701W        W43555  14.357   9.256   5.229  0.3838 -0.0203 -0.0722
24702W        W43556   8.172   0.735   3.239  0.0397  0.0137  0.0332
24703W        W43557   7.306   2.131   4.633 -0.1862  0.3890  0.1281
24704W        W43558  13.960  13.160   3.806  0.2684  0.0962 -0.0945
24705W        W43559  11.057   1.222  12.748  0.0339 -0.1436 -0.1361
24706W        W43560  11.446   8.307   3.927  0.1636 -0.1319  0.1448
24707W        W43561   7.093   5.667   3.665 -0.1762  0.0420 -0.0975
24708W        W43562   3.744  12.433   3.322  0.0851 -0.2217  0.1184
24709W        W43563  13.869  10.223   4.057  0.0630  0.0367  0.2471
24710W        W43564  15.880   8.015  13.336  0.1513  0.0180  0.2682
24711W        W43565   0.289   6.946  11.813 -0.1110  0.1109 -0.1734
24712W        W43566  13.134  15.697   0.513  0.3772  0.0136  0.1408
24713W        W43567  16.530  11.717   0.346  0.1326 -0.3243  0.0002
24714W        W43568   1.373   4.706   2.486 -0.0851  0.1519  0.2367
24715W        W43569  15.136   8.138   2.766 -0.0366  0.2170 -0.0646
24716W        W43570  10.019   5.798   4.613  0.2158 -0.0144 -0.1568
24717W        W43571  13.186   9.085   4.198  0.1981 -0.4536 -0.1440
24718W        W43572  17.365  14.818   4.438 -0.0760  0.0324 -0.0388
24719W        W43573   5.836  12.974   3.524 -0.0051  0.1218 -0.1427
24720W        W43574   9.573   8.305   3.097 -0.0431 -0.0450 -0.1179
24721W        W43575  12.141   6.843   3.166 -0.1229  0.0876  0.2318
24722W        W43576  14.729   4.680  13.759 -0.1353 -0.0505 -0.1967
24723W        W43577   1.815  15.132   2.811  0.0354 -0.1100 -0.0762
24724W        W43578  15.812   6.055  12.500  0.0209  0.1194 -0.1633
24725W        W43579  13.547  12.645  12.709 -0.0516  0.0139  0.5746
24726W        W43580  15.975  12.601  12.679 -0.0232  0.1387  0.2862
24727W        W43581  12.546  14.606   2.905  0.1246  0.1260 -0.0638
24728W        W43582   1.743   9.611  12.636 -0.0602  0.0743 -0.2612
24729W        W43583  10.754   5.573  12.829  0.0635  0.3031  0.0955
24730W        W43584   8.590  16.153   3.736  0.1690 -0.0476  0.0923
24731W        W43585   8.225  12.373  15.758 -0.4015 -0.0896 -0.2964
24732W        W43586   0.334  15.849  12.206  0.1126  0.1556  0.0617
24733W        W43587   9.810  15.446  12.837  0.1794  0.0122 -0.1704
24734W        W43588  14.151   3.124  17.059 -0.0087  0.0979 -0.1981
24735W        W43589  12.189   7.438  14.545  0.0385 -0.2439 -0.0518
24736W        W43590  16.260   5.126  16.533  0.1485  0.0227  0.1845
24737W        W43591   0.854   4.636  12.369 -0.1348  0.2143  0.1671
24738W        W43592  13.350  14.166   5.084 -0.3019 -0.0934  0.1282
24739W        W43593   6.093  17.234   1.909  0.1530  0.0212  0.1425
24740W        W43594   0.204   7.897   0.827 -0.3425 -0.1780 -0.1954
24741W        W43595   8.874  15.584   0.603 -0.1797  0.2326  0.1632
24742W        W43596   9.170  14.249  16.476  0.1277 -0.2128  0.0640
24743W        W43597   1.535   0.879  12.953 -0.1186 -0.0199  0.0710
24744W        W43598   8.045  16.498  15.905 -0.1285 -0.1977 -0.1107
24745W        W43599  13.132   8.234   5.801 -0.1218  0.0548 -0.1916
24746W        W43600   4.212   5.023   1.334 -0.2498 -0.0462  0.1392
24747W        W43601   5.127  13.162  15.363  0.0418  0.0887 -0.1707
24748W        W43602   3.535  17.167   3.738 -0.2083  0.0032  0.2039
24749W        W43603  15.575  16.984   3.094 -0.4471 -0.1193  0.1322
24750W        W43604  17.306  11.376   3.056  0.0802 -0.1195 -0.0717
24751W        W43605   0.565  13.141   1.332 -0.2420  0.0687 -0.1468
24752W        W43606   1.065  15.770   1.245 -0.2355  0.1880  0.3840
24753W        W43607   8.156   4.463   0.567  0.4252  0.0639 -0.2588
24754W        W43608  14.399   8.519  13.354  0.2451  0.2795 -0.0611
24755W        W43609  12.229   8.935   3.859  0.2263 -0.0456  0.0435
24756W        W43610   9.099   8.585   3.400 -0.0158 -0.1410 -0.1054
24757W        W43611   8.598   3.529   2.655 -0.2397  0.2182 -0.0589
24758W        W43612  15.681   8.429   3.428 -0.4327  0.0841  0.3087
24759W        W43613   6.851  13.123   4.166  0.0936  0.1085 -0.3575
24760W        W43614  11.736   6.499  16.995  0.1518 -0.0217  0.0704
24761W        W43615  10.313  16.900   4.379 -0.0647 -0.2154 -0.0044
24762W        W43616   0.730   5.681  15.410 -0.3778  0.0218  0.2520
24763W        W43617   8.885   9.977  15.938 -0.0914  0.0410  0.2816
24764W        W43618  11.263   4.765  13.129  0.1287 -0.1081 -0.0750
24765W        W43619   6.124   7.703  14.150  0.1497 -0.0062 -0.2030
24766W        W43620  15.058   5.086  13.831  0.1377 -0.0778  0.0636
24767W        W43621   1.555   8.375   4.966  0.1475  0.2492  0.2175
24768W        W43622  16.500   0.308   2.184 -0.1566 -0.2786  0.2554
24769W        W43623  14.550   5.550   5.066 -0.0612  0.0412  0.2636
24770W        W43624  17.338   0.851  16.270  0.3796  0.1961 -0.2782
24771W        W43625   9.221   7.718   3.909  0.0844 -0.4463 -0.1651
24772W        W43626   4.864   2.638   3.399  0.1826 -0.0176  0.0169
24773W        W43627  12.189   5.524   0.380 -0.0888  0.1475  0.2645
24774W        W43628   6.107   1.137  13.808 -0.1493 -0.1737  0.1180
24775W        W43629   5.399  14.823  14.264 -0.0669 -0.3054 -0.0752
24776W        W43630  12.094   6.506   0.595  0.0221  0.0312  0.3431
24777W        W43631  13.953  11.602  12.667  0.1539  0.1908 -0.2127
24778W        W43632   7.961   3.884   0.415 -0.2134  0.0797  0.1054
24779W        W43633   8.801   7.571  16.961 -0.3300 -0.0767  0.0353
24780W        W43634  12.792  11.002   1.092  0.1559  0.0748  0.1565
24781W        W43635  17.409  10.599  16.115 -0.0877 -0.1922 -0.1680
24782W        W43636   0.204  10.805   3.407  0.3606 -0.0821 -0.1405
24783W        W43637   2.303  10.289   4.110 -0.2235  0.1810  0.5006
24784W        W43638   4.672  10.930  15.839 -0.0202 -0.2919  0.1643
24785W        W43639  16.658   0.505   4.450  0.0960  0.0614  0.0661
24786W        W43640   8.488   4.870   1.258 -0.2035  0.2827 -0.1200
24787W        W43641   1.223   5.610  16.291 -0.1484  0.3187  0.0529
24788W        W43642   9.629   7.382   4.009  0.1727  0.0082  0.0185
24789W        W43643  14.215   3.983  14.809  0.0704  0.0285  0.0905
24790W        W43644   2.889   3.442  14.584  0.0298 -0.1239  0.0908
24791W        W43645   4.395   2.012   2.658 -0.0023  0.0306  0.1990
24792W        W43646   6.039   0.061  14.551  0.0376 -0.2835  0.1604
24793W        W43647   6.716  12.272   0.917 -0.2343 -0.2603 -0.1758
24794W        W43648   3.495   6.391  16.681 -0.0830 -0.1099 -0.0214
24795W        W43649  11.649  15.885  14.942  0.2418  0.1373  0.2452
24796W        W43650   7.386   1.888   2.835  0.3491  0.1557 -0.0433
24797W        W43651   1.884  12.570  13.004  0.1054  0.1469 -0.2420
24798W        W43652   1.353   1.096   3.136 -0.0976  0.0421 -0.1761
24799W        W43653   5.300  15.331   0.586 -0.0753 -0.6667 -0.0206
24800W        W43654   3.779  15.870  14.201 -0.0124  0.1131  0.1734
24801W        W43655   7.440  16.052   5.112  0.1307  0.1525  0.0356
24802W        W43656   4.825   4.896   4.133  0.3075 -0.3004  0.0464
24803W        W43657  13.433   5.758  13.358 -0.2580 -0.0569 -0.1155
24804W        W43658  16.771   7.227   3.630  0.0398  0.0081  0.2122
24805W        W43659  11.987   2.363   3.496 -0.0130  0.1792 -0.1338
24806W        W43660  12.794  15.145  13.940  0.1588  0.0188 -0.0098
24807W        W43661  13.694   7.187   2.449  0.0821  0.0685 -0.1334
24808W        W43662  11.578   5.888  15.785  0.0484  0.0621 -0.2474
24809W        W43663  16.015   1.604  12.767  0.1182 -0.3376  0.1449
24810W        W43664  16.667   3.322   0.651  0.0054  0.1566  0.1586
24811W        W43665  12.647  17.341   3.408 -0.0558 -0.3570 -0.2166
24812W        W43666  16.033   4.209   4.246  0.2182 -0.4097  0.0608
24813W        W43667   9.237  13.204  15.369  0.0734 -0.0221  0.1263
24814W        W43668  16.807   3.033  12.448 -0.0396  0.0340 -0.0075
24815W        W43669  14.518   4.698  13.323  0.0678 -0.0988  0.3404
24816W        W43670  11.657   5.166   2.088  0.0924 -0.0908  0.1118
24817W        W43671  13.781   4.060   1.289 -0.1682  0.0399 -0.1766
24818W        W43672   7.957  16.931  15.021 -0.1768  0.0484  0.0205
24819W        W43673   7.704   2.055   4.265 -0.2065 -0.2679  0.0797
24820W        W43674   7.411  15.740   0.984 -0.2273  0.1330 -0.2066
24821W        W43675  10.064   3.941  13.297 -0.1735 -0.0299 -0.2603
24822W        W43676   8.638   4.206  15.948 -0.0476 -0.2518 -0.3679
24823W        W43677  10.726  11.472  13.077  0.0949 -0.0745 -0.1958
24824W        W43678  12.232   5.958  12.433 -0.2031 -0.0582 -0.1695
24825W        W43679   5.664  13.690  14.503  0.1519  0.0944 -0.1933
24826W        W43680  13.979  13.330   1.660 -0.2201 -0.1226  0.2116
24827W        W43681   4.027  13.564  13.840 -0.0958  0.1712 -0.2178
24828W        W43682   0.458   9.872  12.447 -0.3427  0.2655 -0.1807
24829W        W43683   9.314  10.407  12.684 -0.2068 -0.0987 -0.1037
24830W        W43684   9.846  10.579  12.003  0.0489 -0.1174 -0.1480
24831W        W43685   0.744  11.129  15.955  0.0185  0.0650  0.3419
24832W        W43686   0.099   0.789   4.547 -0.1443  0.3505  0.0867
24833W        W43687   4.879   6.021   0.177 -0.1800  0.1846  0.0589
24834W        W43688   5.721  15.156   4.761  0.2092  0.0225 -0.1458
24835W        W43689  13.842  15.876  15.122  0.0433 -0.3347 -0.1903
24836W        W43690   3.732  10.369   1.239  0.2110 -0.0217 -0.2282
24837W        W43691   0.612  11.376  15.535 -0.1395 -0.0405 -0.2231
24838W        W43692   2.919   3.544   4.191 -0.1731 -0.2606  0.0206
24839W        W43693  10.975   2.048  12.950 -0.0348 -0.3224  0.0987
24840W        W43694   7.359   8.357   3.856 -0.3144 -0.2931 -0.3464
24841W        W43695   8.809  10.501  14.748 -0.2187 -0.4218 -0.1401
24842W        W43696   8.890  13.083   3.199 -0.0204 -0.1038  0.3520
24843W        W43697   4.433   4.497  16.748  0.0599  0.2120  0.0778
24844W        W43698  10.792  15.349   0.255 -0.0712  0.0661 -0.0363
24845W        W43699   8.693  15.122  12.818 -0.1061 -0.1494 -0.2687
24846W        W43700   5.216   1.582   3.760  0.2806  0.2816  0.2483
24847W        W43701  15.378   6.451  13.376  0.0068 -0.3124 -0.0034
24848W        W43702  16.700  15.965   1.370  0.1181  0.2131 -0.2186
24849W        W43703   7.142  10.763  17.066 -0.4466  0.1616  0.3257
24850W        W43704   7.819   1.563   3.834 -0.2938 -0.1401  0.0536
24851W        W43705   4.341  12.212  12.696  0.0681 -0.1866 -0.1019
24852W        W43706   0.363  10.338  12.701 -0.2419  0.0331 -0.0995
24853W        W43707  10.117  17.002   2.639  0.1667 -0.0692  0.1754
24854W        W43708  16.973   7.148   2.195 -0.2084 -0.0002  0.0591
24855W        W43709   9.815  14.016  13.317  0.0146  0.1538  0.1078
24856W        W43710   8.700  15.080   0.909 -0.2319  0.1301  0.0533
24857W        W43711   6.631   6.059   2.080  0.0968  0.0852 -0.0694
24858W        W43712   3.598  12.977   0.279  0.1010 -0.0694 -0.1325
24859W        W43713  13.418   8.747   2.290  0.1883 -0.1984  0.0550
24860W        W43714  11.130  16.517   4.126 -0.0413  0.1611 -0.2705
24861W        W43715   0.278  14.151  16.300  0.2000  0.0555  0.0848
24862W        W43716   7.389   0.480   1.866  0.0430  0.1325  0.1571
24863W        W43717  14.711   3.090  17.104 -0.1275  0.1525 -0.3670
24864W        W43718  17.266  17.149   2.134 -0.2913 -0.1091  0.0474
24865W        W43719  15.250   6.439   3.132  0.0103 -0.2092  0.0962
24866W        W43720   1.501   8.743   1.843 -0.2509 -0.1934  0.1771
24867W        W43721   9.836  12.286   0.325 -0.1703  0.2020 -0.5067
24868W        W43722   2.771  16.445  15.846  0.2370 -0.0559  0.1092
24869W        W43723  13.020   9.345  15.985  0.1883 -0.0652 -0.4402
24870W        W43724  10.888   9.142   4.041 -0.1582  0.2273 -0.2131
24871W        W43725  15.824   7.179   1.534 -0.1648 -0.2632  0.0955
24872W        W43726  10.559   8.055  12.379 -0.0847 -0.0980 -0.0534
24873W        W43727  17.031   9.587   3.717 -0.1272 -0.1489 -0.1497
24874W        W43728   1.425   5.864  14.572  0.1615 -0.0300  0.0901
24875W        W43729   6.653   2.792   0.232 -0.2217  0.1264 -0.5538
24876W        W43730  10.345  12.474   4.100  0.2797 -0.0040 -0.1973
24877W        W43731   2.520  10.621   0.843 -0.2908  0.1925  0.0756
24878W        W43732  12.980   7.310  13.601 -0.0808 -0.1103  0.2321
24879W        W43733   0.108   1.194  10.934 -0.0896 -0.2264  0.0723
24880W        W43734   3.809   9.994  15.155  0.0338 -0.0531 -0.1420
24881W        W43735  12.026   2.661   2.301  0.2788 -0.1122  0.2157
24882W        W43736  16.445   3.760  14.332 -0.0116  0.3060 -0.0100
24883W        W43737   8.850  13.348   0.535 -0.0863  0.1482  0.0641
24884W        W43738   2.319   6.427   3.115  0.1107  0.1723 -0.0704
24885W        W43739   6.696  12.171  13.171  0.1237 -0.1305  0.3121
24886W        W43740   2.745   5.797  16.629 -0.0902  0.0183  0.2585
24887W        W43741  12.557   9.712   3.134  0.1388  0.1596  0.0245
24888W        W43742   4.019   9.158   5.386 -0.0025 -0.0052  0.2313
24889W        W43743   8.008   0.135   4.873  0.2010 -0.3683  0.1836
24890W        W43744   9.879   2.390   0.877 -0.0923 -0.1381  0.1548
24891W        W43745  17.052  17.161  12.553 -0.2383  0.1052  0.0392
24892W        W43746  10.208   2.401   1.819 -0.1077  0.2437  0.0623
24893W        W43747  12.912   2.787   0.695 -0.0448  0.1586  0.2996
24894W        W43748   9.263  13.785  12.771 -0.1054  0.0305 -0.0693
24895W        W43749   9.346  17.189  15.639 -0.0124 -0.1859 -0.2387
24896W        W43750   2.598  15.152  16.979  0.4001 -0.1250 -0.3889
24897W        W43751  11.996   0.676  14.641  0.1646  0.0298 -0.0397
24898W        W43752  14.757  15.380  14.074 -0.1895  0.0406  0.2127
24899W        W43753   5.645  15.748   5.641  0.0186  0.1164  0.1408
24900W        W43754  14.683  11.564  15.954  0.0445 -0.1268  0.0540
24901W        W43755  17.348   9.126  12.157 -0.0961  0.3072  0.1753
24902W        W43756   6.058  15.502  15.115 -0.0042 -0.0924 -0.0155
24903W        W43757  10.954  16.220  15.054 -0.0019 -0.2167  0.3862
24904W        W43758  12.754  12.026   2.141 -0.2980 -0.0831  0.0440
24905W        W43759   7.100   0.500  13.763  0.1660  0.1661  0.1518
24906W        W43760  15.391   2.647  16.885 -0.0054  0.1115  0.0757
24907W        W43761  15.090   8.318   2.299  0.0606 -0.1627 -0.0958
24908W        W43762  10.588  16.631  15.398 -0.3041 -0.0209 -0.3022
24909W        W43763  10.964  17.576   4.620  0.1981 -0.3454 -0.3032
24910W        W43764  13.231  16.448   4.546  0.2937 -0.3689 -0.1923
24911W        W43765  13.719  11.638  13.201 -0.2043  0.3194  0.1887
24912W        W43766  11.801   8.848  17.120  0.2539  0.1829  0.1975
24913W        W43767  17.047   0.803   3.930 -0.1149  0.1483 -0.0002
24914W        W43768  17.340  10.859   3.237  0.2003 -0.0427 -0.0568
24915W        W43769  15.070   1.263   1.452  0.1882 -0.1769 -0.0553
24916W        W43770   3.813   8.760  14.433  0.1209 -0.0244  0.0471
24917W        W43771  14.141   9.717   2.915 -0.3170  0.1434  0.2199
24918W        W43772   9.848  17.476  14.066  0.0636 -0.1227 -0.2123
24919W        W43773  11.419  10.953  14.660  0.2023  0.0140  0.0489
24920W        W43774   9.328  11.390  15.607  0.0783 -0.2318  0.0363
24921W        W43775   5.140   9.180   4.821 -0.1250  0.0964 -0.1416
24922W        W43776   1.327  13.719   5.156  0.1590  0.0327  0.0145
24923W        W43777   0.408   8.221  16.365 -0.0040  0.1573 -0.1350
24924W        W43778   2.929  16.605   2.159 -0.3278  0.2669 -0.0112
24925W        W43779   5.681   0.629   3.788  0.0901 -0.1576 -0.0830
24926W        W43780   3.901  10.514  16.878 -0.2474 -0.2408 -0.0064
24927W        W43781   7.584  17.027   0.360  0.0305 -0.0914 -0.2230
24928W        W43782  16.159  15.222   4.382 -0.0101  0.3550 -0.0374
24929W        W43783  13.821   0.450   2.731  0.1346 -0.0814  0.0126
24930W        W43784   1.540  15.884  17.231  0.0869  0.1065  0.2333
24931W        W43785  10.495  12.324  12.488 -0.2137 -0.0183  0.0670
24932W        W43786   0.453  12.524  13.013 -0.2989 -0.0806  0.0629
24933W        W43787   5.284   2.305  11.513  0.1483 -0.4334  0.0834
24934W        W43788   2.141   4.989   1.700 -0.0850 -0.0158  0.0841
24935W        W43789  16.283  16.291   1.438  0.2658  0.0810 -0.2193
24936W        W43790   8.587   4.884   5.387  0.0354  0.1286  0.0952
24937W        W43791  16.116  14.345   4.092  0.2028 -0.1906  0.1912
24938W        W43792  15.865   2.149   0.648 -0.1336  0.2128 -0.2373
24939W        W43793   1.926  15.842  14.577 -0.2855  0.0042  0.0437
24940W        W43794   4.511  16.592   2.884 -0.1497  0.1190 -0.0271
24941W        W43795   4.784   9.175  13.510  0.5640  0.0703 -0.2173
24942W        W43796  10.541   6.373  16.441 -0.3347 -0.1921 -0.0341
24943W        W43797   1.623  13.612  14.782  0.1190 -0.1045  0.0011
24944W        W43798   4.743   3.576  13.843  0.1907 -0.1803  0.1275
24945W        W43799   9.017  14.780  12.716 -0.2122  0.1234  0.0710
24946W        W43800  16.333   8.844  16.829  0.2077 -0.2168 -0.1420
24947W        W43801   8.122  13.753  15.212  0.1681 -0.1225 -0.0452
24948W        W43802   7.943  14.806  13.935 -0.1928 -0.0162  0.0378
24949W        W43803  14.558  17.354   0.886  0.2756  0.0866 -0.0436
24950W        W43804   0.444   6.002  14.155 -0.3252 -0.1238 -0.0980
24951W        W43805  15.620  15.930   0.589 -0.1170  0.0350 -0.1135
24952W        W43806  13.324  17.087  14.114  0.1303  0.1165 -0.4387
24953W        W43807  12.718  16.130  15.762  0.3546 -0.2303 -0.0950
24954W        W43808  13.064   4.823  12.939 -0.0346  0.1526  0.0310
24955W        W43809   6.972   1.391  13.557 -0.0014 -0.0046  0.0361
24956W        W43810   1.046  13.392   3.350  0.1459 -0.3627  0.4408
24957W        W43811  11.297  13.291  17.215  0.0888 -0.3853  0.2779
24958W        W43812  16.045   1.453   3.189  0.0158 -0.2079 -0.0607
24959W        W43813  11.359   6.029   1.921 -0.1802 -0.0953  0.0946
24960W        W43814   5.892   7.410   2.765  0.4040  0.1747 -0.1504
24961W        W43815  16.687  13.088   3.556  0.0776 -0.4518 -0.0820
24962W        W43816  12.306   6.123   4.448  0.0689 -0.1817 -0.2089
24963W        W43817   1.142  16.099   4.427  0.1621 -0.2397 -0.1052
24964W        W43818   0.184   0.475  12.517  0.0572 -0.0083  0.4617
24965W        W43819   7.130   8.614   3.350  0.0044  0.1922  0.0164
24966W        W43820  13.531  11.716  13.708  0.0611 -0.1463 -0.3710
24967W        W43821   3.736  15.981   1.555  0.0907 -0.0331 -0.0970
24968W        W43822   7.482   5.567   2.753  0.1396  0.1159  0.1867
24969W        W43823  16.300   0.815   1.415 -0.2704  0.0651 -0.0032
24970W        W43824   2.343  15.078   2.821 -0.1846  0.5088 -0.2078
24971W        W43825  11.970   0.985   3.920  0.0599  0.6187  0.0955
24972W        W43826  12.871  13.360  12.409 -0.0996 -0.0624 -0.0647
24973W        W43827   1.409  12.588  12.914  0.2908  0.4788  0.1051
24974W        W43828   4.703  10.470   4.998  0.2232  0.0619  0.1284
24975W        W43829  13.371   5.140  17.159 -0.3423  0.0941  0.2160
24976W        W43830   4.952  17.429   2.309 -0.2202 -0.1466  0.3242
24977W        W43831   4.635  17.552   2.899  0.1763 -0.4000 -0.4766
24978W        W43832  10.064  12.658  13.346 -0.0885 -0.0143  0.0572
24979W        W43833   0.408   5.327   3.444 -0.2739 -0.2392 -0.0729
24980W        W43834  14.550   4.203   3.976 -0.1810 -0.1549  0.1579
24981W        W43835   9.017   2.544   0.010 -0.0651 -0.1953  0.4501
24982W        W43836   3.864   6.548   5.024 -0.1198  0.1322  0.1878
24983W        W43837   7.566  15.704   1.441  0.1002  0.1073  0.4000
24984W        W43838  14.273   8.751  16.746 -0.2127  0.0060  0.0145
24985W        W43839   2.373   7.618   4.792 -0.0327  0.2118 -0.1759
24986W        W43840   2.174   4.225   0.228 -0.0509  0.0370 -0.0571
24987W        W43841   0.180   8.943   4.313  0.0587  0.3034  0.1756
24988W        W43842  16.261  13.349   4.384 -0.3445 -0.2407  0.0242
24989W        W43843   3.137   8.610  13.221  0.1843  0.2223  0.3051
24990W        W43844   0.078   7.103   5.754  0.2420  0.2417  0.1649
24991W        W43845  14.574  13.716   5.117  0.0598  0.3608  0.0224
24992W        W43846   0.820  10.898  16.954 -0.0904  0.1361 -0.0428
24993W        W43847  11.413   8.995   0.806  0.1079  0.1399  0.2132
24994W        W43848   0.534   9.037   2.117 -0.1607  0.1153 -0.2669
24995W        W43849  16.514   6.121   5.218 -0.1604 -0.3914 -0.1616
24996W        W43850   6.359  17.266  13.025 -0.0535 -0.1704 -0.2268
24997W        W43851   7.335   5.476   3.247  0.0728  0.0279  0.0135
24998W        W43852   3.098   4.641   2.814 -0.1983  0.3417 -0.2481
24999W        W43853   9.020  12.062  14.777  0.0426  0.0711  0.1844
25000W        W43854  14.924  11.094   2.709 -0.3059 -0.3558  0.3454
25001W        W43855   5.299  13.180  12.337  0.2504  0.0043 -0.1121
25002W        W43856  12.224  11.529  16.338  0.1674  0.1809 -0.1927
25003W        W43857  13.578   9.865   0.461 -0.0795 -0.1056  0.2948
25004W        W43858   8.043   0.830  12.898  0.1562  0.0820  0.2810
25005W        W43859   6.794  14.947   1.764  0.4204  0.5107  0.0955
25006W        W43860   2.614  10.002  15.327 -0.0535  0.0511  0.0849
25007W        W43861   0.384   4.643  12.551 -0.1252 -0.0657  0.0404
25008W        W43862   6.457   5.442   5.229 -0.3234 -0.2271 -0.1423
25009W        W43863   7.735   7.747  13.582 -0.1324 -0.2456 -0.1891
25010W        W43864   5.028  13.263  12.824 -0.1278 -0.0586 -0.1763
25011W        W43865   9.646   4.149   3.843 -0.0638  0.0235 -0.2655
25012W        W43866  13.156  14.168  15.476 -0.1367  0.3682  0.2583
25013W        W43867   2.074  17.390  16.247  0.1571  0.2187 -0.1769
25014W        W43868   4.162  11.491   5.092 -0.1036  0.0576 -0.0065
25015W        W43869  10.425  10.733  14.556 -0.2078 -0.3515  0.1865
25016W        W43870   6.969   8.872   2.067  0.0359  0.2581 -0.2151
25017W        W43871   0.231  17.043   1.446  0.3202 -0.0229  0.1731
25018W        W43872  15.561  16.114   2.472 -0.3131 -0.2684  0.1884
25019W        W43873  17.346   6.508  15.764  0.2007  0.2443  0.0879
25020W        W43874   5.288   0.283  12.938  0.1233  0.0009  0.1263
25021W        W43875  16.828  10.509  13.585  0.0255  0.0309 -0.0068
25022W        W43876   7.001  11.008   4.461 -0.1821  0.0209  0.2176
25023W        W43877  10.047   8.044   0.155 -0.1685 -0.1283  0.2133
25024W        W43878  17.033  15.914   3.506  0.4753 -0.1055  0.0529
25025W        W43879   4.997  10.008  14.789 -0.1196  0.0436 -0.0220
25026W        W43880   1.929  13.915  14.442 -0.1155 -0.2507 -0.0005
25027W        W43881   5.661   8.203  12.815  0.0227  0.0988  0.2077
25028W        W43882  13.846  16.002  15.657 -0.0278  0.0554 -0.0047
25029W        W43883   3.278  16.339   1.933 -0.1696 -0.0279  0.2368
25030W        W43884   3.749   7.932   4.167 -0.1023 -0.0194 -0.1154
25031W        W43885   1.315   5.322   1.332  0.0693 -0.1505  0.0771
25032W        W43886   9.574  10.911  13.889 -0.1838  0.1419  0.0160
25033W        W43887   6.077   3.663  15.245 -0.0853  0.2932 -0.2430
25034W        W43888   2.329  10.852  12.216  0.2632  0.0492 -0.0551
25035W        W43889   2.866  15.784   4.643  0.1709  0.1607  0.1246
25036W        W43890   5.626   5.466   1.644 -0.0269  0.1612 -0.3857
25037W        W43891  10.007   9.401  17.001  0.6023 -0.3396  0.0530
25038W        W43892   8.378   9.294  12.955  0.1069 -0.0171  0.3087
25039W        W43893   9.314  15.665   0.845 -0.0447 -0.4202 -0.1582
25040W        W43894   0.562   4.798  14.853 -0.0498 -0.1249  0.1197
25041W        W43895   0.570   1.811   3.912 -0.1210  0.1038 -0.1026
25042W        W43896   2.999  17.086   3.705 -0.1379 -0.0094 -0.0123
25043W        W43897  14.917  15.782   4.888  0.0447  0.1685  0.0462
25044W        W43898   7.412   4.471   3.327  0.0691 -0.1445 -0.1372
25045W        W43899   8.312  15.394  15.908  0.3930  0.2176 -0.1130
25046W        W43900  16.003  14.768   3.201 -0.0426 -0.1164  0.2952
25047W        W43901   9.515   8.289  16.259  0.0600 -0.1160  0.0579
25048W        W43902   1.612   7.538   2.795  0.2031  0.0070 -0.0333
25049W        W43903   2.498  14.657  13.504 -0.3466  0.1940  0.3374
25050W        W43904  12.918   5.991   1.760 -0.0078  0.1572 -0.1520
25051W        W43905   8.751  13.256   2.316 -0.1000  0.1749  0.3891
25052W        W43906  12.615   5.004   1.656  0.1303 -0.1229 -0.0261
25053W        W43907   1.231   4.713   3.585  0.2939 -0.0844 -0.1292
25054W        W43908   5.644   8.428   5.269 -0.0631 -0.0086 -0.3204
25055W        W43909  13.263  14.019   3.119 -0.0799 -0.3947 -0.0472
25056W        W43910   5.074   2.731   1.997  0.1876  0.1790  0.1087
25057W        W43911  11.219   2.255   1.768 -0.3302  0.1812 -0.0898
25058W        W43912  11.969  14.137  13.194  0.2501 -0.0326  0.1741
25059W        W43913  15.887  11.967  12.780 -0.2807 -0.0974 -0.1314
25060W        W43914   2.584   6.119   4.227  0.0328  0.1211 -0.0339
25061W        W43915   9.050  10.228  14.310  0.1006 -0.2340  0.0994
25062W        W43916  10.234   1.520   2.901  0.0080  0.1971 -0.1328
25063W        W43917  12.923   6.650  12.586 -0.1513  0.0933  0.0399
25064W        W43918   8.123   6.825  17.247  0.1023 -0.0054  0.0823
25065W        W43919   9.490   4.680   3.746 -0.4206  0.3568  0.3752
25066W        W43920  16.233  11.539  14.903 -0.1725 -0.0088 -0.4783
25067W        W43921  16.355   1.799  12.464 -0.1906  0.0804  0.2560
25068W        W43922  11.328  16.387   2.156 -0.0724  0.1415  0.3076
25069W        W43923   8.292  17.428   1.521 -0.0349  0.0351 -0.0681
25070W        W43924   1.874  11.451  14.910 -0.2262  0.0393  0.0488
25071W        W43925  15.867   9.818  15.823 -0.0013  0.1384 -0.0026
25072W        W43926  12.711   5.417  12.178 -0.1958  0.0979 -0.2619
25073W        W43927   6.944   7.373  12.344  0.1073  0.0058 -0.0924
25074W        W43928   5.964  10.284   2.289 -0.0758 -0.2499 -0.2220
25075W        W43929  14.489   8.599  15.710 -0.1929 -0.0458  0.4377
25076W        W43930  15.121   0.114   4.755  0.2559  0.0012 -0.1223
25077W        W43931   8.636   7.926  16.571 -0.3532  0.2029 -0.0326
25078W        W43932  11.890  15.217  13.247 -0.0695  0.0512 -0.4602
25079W        W43933  15.272  13.328  14.980 -0.2284  0.2191 -0.1085
25080W        W43934  17.514   9.702   5.138  0.3317 -0.3134  0.0293
25081W        W43935   2.875  10.977  13.467 -0.0095 -0.1148  0.2336
25082W        W43936  10.685   7.530  14.388  0.0074 -0.2745 -0.0272
25083W        W43937  11.339  15.137   3.648 -0.0486 -0.2116  0.0683
25084W        W43938  12.036  11.272   0.092 -0.0810  0.0227 -0.0056
25085W        W43939   2.382   9.321  16.864 -0.2506  0.0826 -0.2829
25086W        W43940   8.640   2.925  14.212 -0.1055  0.1712  0.0209
25087W        W43941   2.262   1.366   2.271  0.0913 -0.2962 -0.1336
25088W        W43942  15.027  10.076   4.335 -0.1066  0.3080  0.1021
25089W        W43943  16.285  15.149   1.670  0.4806 -0.1436  0.1664
25090W        W43944  13.099  15.248   3.261 -0.0677 -0.3235  0.1828
25091W        W43945  13.782  10.478  13.830 -0.0673  0.2593 -0.0285
25092W        W43946   5.593  14.465   0.288 -0.0110 -0.0806 -0.0584
25093W        W43947   5.834   9.449  14.996 -0.2819 -0.0719 -0.4014
25094W        W43948   6.368   9.341  16.172 -0.0806  0.0256 -0.1099
25095W        W43949  12.184   7.636  15.863  0.0704  0.1353  0.0203
25096W        W43950   7.125  12.781  13.798  0.1713  0.1530 -0.4159
25097W        W43951   8.821   9.796  12.566  0.1367  0.0384 -0.0231
25098W        W43952   1.069  14.200  16.669 -0.1748 -0.2124 -0.1669
25099W        W43953  13.757   0.176  14.599  0.0214  0.2073  0.0683
25100W        W43954   2.780   4.934  16.785  0.1547  0.1913 -0.2723
25101W        W43955  16.274   3.194  13.908 -0.1142  0.1149  0.1559
25102W        W43956   7.632  13.710   2.107 -0.2592 -0.1943  0.2573
25103W        W43957   0.930   2.683  12.503 -0.4028  0.0267 -0.1524
25104W        W43958  17.341  10.406  15.675 -0.1497 -0.2742  0.0102
25105W        W43959   6.754  16.303   5.172  0.1546  0.0818  0.0460
25106W        W43960   5.849   3.479   2.975  0.2509  0.2084 -0.2278
25107W        W43961   9.045  16.166  17.013 -0.2496  0.2216  0.1101
25108W        W43962   1.747  14.332  13.964 -0.3864  0.1881  0.3382
25109W        W43963  15.484   0.268   1.516  0.1530 -0.0636  0.3991
25110W        W43964   4.037   7.326  15.228  0.0350  0.0419 -0.2413
25111W        W43965  10.194  11.499  14.973  0.0043 -0.0072  0.0933
25112W        W43966   8.336  12.585   0.370 -0.2399  0.0230  0.1150
25113W        W43967   9.331  17.435   5.399  0.5851 -0.3801  0.1019
25114W        W43968  12.455  12.655  14.197 -0.0997 -0.2242  0.3484
25115W        W43969   9.355   1.098   5.102 -0.0574  0.0475  0.0990
25116W        W43970   3.267  17.502   3.531 -0.2756 -0.2032 -0.0115
25117W        W43971   4.437   3.874   3.248 -0.4022  0.2804  0.3964
25118W        W43972   3.304   2.719  13.526  0.2117 -0.0519  0.0829
25119W        W43973   1.223  14.296   6.117 -0.1334 -0.2228  0.2215
25120W        W43974  14.882   6.534  12.493 -0.0614 -0.4333  0.0479
25121W        W43975   9.927  11.800   3.475  0.1460  0.1744 -0.2888
25122W        W43976  11.826   9.031   4.460 -0.0253 -0.0457  0.1234
25123W        W43977  15.020   6.599  16.444  0.0842  0.3087 -0.0122
25124W        W43978  11.799   6.913   1.653 -0.0329 -0.0940 -0.1315
25125W        W43979  10.973  15.360   4.839  0.2310  0.3786  0.0469
25126W        W43980   0.446   1.702  12.484 -0.1139  0.0579 -0.3868
25127W        W43981  16.314  17.390   3.582  0.2717 -0.1129  0.1299
25128W        W43982  17.167  16.648   0.970  0.0758 -0.0496  0.0087
25129W        W43983   5.133  15.511  13.474  0.0680 -0.0189 -0.0786
25130W        W43984   8.287   7.090  14.774 -0.0314 -0.2102  0.0526
25131W        W43985  12.125   6.415  15.582  0.1744 -0.2808 -0.3952
25132W        W43986  14.964   8.201  14.512  0.1431 -0.0967  0.2596
25133W        W43987   1.004   7.744   0.113 -0.1977  0.1255  0.0577
25134W        W43988   7.528   9.531   3.755  0.1597  0.2173 -0.0743
25135W        W43989  15.629   6.676  14.869  0.0049  0.0199 -0.1375
25136W        W43990  15.828   2.475  13.333 -0.1784 -0.0539  0.0712
25137W        W43991   1.128  10.571  12.024 -0.2488 -0.0176  0.0804
25138W        W43992   1.064   3.770  12.176 -0.1981  0.0399  0.2117
25139W        W43993  14.878  13.384   0.126 -0.0269  0.0565  0.0162
25140W        W43994  17.287  12.647  13.814 -0.2099  0.3209  0.1789
25141W        W43995  11.334   7.783   5.416  0.0744 -0.0459 -0.0113
25142W        W43996  13.764  11.670   0.126  0.3021  0.2701 -0.4226
25143W        W43997  11.532   0.688  16.164 -0.0411 -0.3588 -0.2120
25144W        W43998  15.986  15.601   2.301 -0.0509  0.1005  0.1446
25145W        W43999  15.360   0.282   3.618 -0.0038  0.4102  0.1110
25146W        W44000   8.914  10.201  15.230 -0.0883  0.0114  0.0092
25147W        W44001   6.764  16.297   1.527 -0.0794 -0.0791  0.1052
25148W        W44002  10.960  17.281  12.858  0.2193 -0.2298 -0.4761
25149W        W44003   7.241  15.861   2.663  0.3072 -0.0575  0.0252
25150W        W44004  13.523   6.157   2.970 -0.2305 -0.2082 -0.0084
25151W        W44005  12.981  11.335   2.523 -0.1396  0.0457 -0.1880
25152W        W44006  10.842   7.917   3.428 -0.0266  0.2366  0.1075
25153W        W44007  13.939   2.247   4.294 -0.1279 -0.1101 -0.1605
25154W        W44008   6.620   8.988  16.434 -0.1091 -0.2472 -0.0448
25155W        W44009   9.626   9.496   4.606 -0.0641 -0.2309  0.3491
25156W        W44010   4.470   7.321  14.966 -0.1228 -0.2512 -0.0145
25157W        W44011   1.994   6.210   2.748 -0.1148  0.2179  0.0226
25158W        W44012  11.387   9.412   0.451 -0.1466  0.0601 -0.2209
25159W        W44013   3.646   8.309   1.319  0.0561  0.0100 -0.0765
25160W        W44014  16.012  11.752   3.426  0.1642  0.4374 -0.0464
25161W        W44015  11.704  10.234   4.509 -0.0427 -0.0203 -0.0324
25162W        W44016   1.672   9.284  13.394 -0.0356  0.1331  0.2187
25163W        W44017   3.084  16.347   1.229  0.3481 -0.0143  0.0798
25164W        W44018   4.072   5.753  13.162  0.1322 -0.1011 -0.1192
25165W        W44019   8.255  11.710   2.800 -0.3901 -0.1892 -0.2145
25166W        W44020  13.269   7.717  13.447  0.2236 -0.1268 -0.1999
25167W        W44021  13.052   2.607   4.101 -0.1871 -0.0025  0.2411
25168W        W44022   0.547   9.962  13.080  0.4402  0.0042  0.4301
25169W        W44023  15.580   4.180  15.060 -0.0176  0.2706  0.0575
25170W        W44024  10.056  16.185  12.110 -0.2803  0.0536  0.0916
25171W        W44025   5.482  14.104  14.753  0.0242 -0.0814  0.0525
25172W        W44026   5.413   6.052   2.251 -0.0101 -0.0689 -0.0283
25173W        W44027  10.173  10.328  12.356 -0.0514  0.1703  0.2777
25174W        W44028  11.267   1.229   4.575 -0.0884  0.2415  0.0021
25175W        W44029   7.473  13.161  15.521 -0.1296 -0.1080 -0.1417
25176W        W44030   3.613   2.920   3.844  0.1099 -0.2686 -0.2680
25177W        W44031   1.256   4.886  16.074 -0.2003 -0.0692 -0.0019
25178W        W44032   6.000   1.797  15.370 -0.0308 -0.0538 -0.1238
25179W        W44033  12.608  11.311  12.965  0.3646 -0.0200  0.1262
25180W        W44034   4.459  15.740   1.920  0.3322  0.1009 -0.1115
25181W        W44035  17.587  14.244   1.028 -0.0918 -0.2984 -0.0092
25182W        W44036   9.534   0.561  15.779 -0.0756 -0.1117  0.0035
25183W        W44037   1.407   5.765   0.565 -0.2237  0.3257  0.1123
25184W        W44038   8.850  12.193  15.728 -0.0788 -0.2044  0.1967
25185W        W44039   3.585   5.912   0.851  0.0847 -0.3164 -0.0546
25186W        W44040  13.950   7.008   1.219  0.0452 -0.1043  0.0219
25187W        W44041   6.209   7.269  15.928 -0.0997 -0.1695  0.1896
25188W        W44042   0.976  10.037   4.337 -0.0589 -0.0764  0.1477
25189W        W44043  13.756   7.902   0.702  0.1682  0.0865  0.1915
25190W        W44044   9.442   2.510   1.137 -0.0428  0.2760  0.0117
25191W        W44045  15.603  13.027   3.243 -0.1844  0.2951  0.1801
25192W        W44046   0.294  10.027  16.708  0.1138  0.0146 -0.0435
25193W        W44047   7.039  13.505   1.381  0.2532  0.1262 -0.2160
25194W        W44048   4.424   3.113  15.240  0.1475  0.0823 -0.3359
25195W        W44049  16.010   8.337   4.811 -0.0870  0.1527 -0.2023
25196W        W44050   6.768   1.054  16.975  0.0859  0.0411  0.1323
25197W        W44051  10.472   2.640  16.463 -0.0173  0.2085  0.0842
25198W        W44052  15.228   3.615   0.084 -0.4630  0.0266  0.0007
25199W        W44053  11.345   0.406   5.164 -0.2728  0.0246 -0.0119
25200W        W44054  13.432   4.397   1.234 -0.0241  0.1079  0.0504
25201W        W44055   7.041  17.455   5.229 -0.1349  0.0207  0.2657
25202W        W44056   5.989  12.373  15.180  0.4358  0.3340 -0.0803
25203W        W44057  14.312   3.653  13.067 -0.0241  0.0281 -0.0508
25204W        W44058  16.751  17.342   4.517 -0.1022 -0.3253 -0.0455
25205W        W44059   0.371   2.422   0.655  0.2638  0.1312 -0.1448
25206W        W44060   3.620   9.552  15.082  0.1161 -0.0334  0.2844
25207W        W44061  15.149  15.689   5.388 -0.0017 -0.0271  0.0335
25208W        W44062  16.070   6.905   1.884 -0.0552  0.0258 -0.1445
25209W        W44063  15.469   9.523   3.368  0.2902  0.2514 -0.1394
25210W        W44064   9.322   8.280  13.668  0.0055 -0.2873 -0.0266
25211W        W44065   7.781   7.519  16.798 -0.1338  0.0884 -0.2074
25212W        W44066  11.802  12.057   3.003  0.0866  0.3462  0.0473
25213W        W44067  14.909  10.305   3.084  0.1299 -0.1532  0.2275
25214W        W44068   3.735  12.056   0.050  0.1045  0.0796 -0.3163
25215W        W44069  10.776   5.687  14.608 -0.2363  0.2673  0.1980
25216W        W44070   7.735   5.679   3.663  0.1756  0.0709  0.1404
25217W        W44071   0.709   0.155  14.024  0.0700 -0.0938  0.2428
25218W        W44072  14.792  10.800  14.780  0.1321 -0.1295 -0.2732
25219W        W44073   6.287  12.811  13.827  0.3231 -0.0614 -0.0837
25220W        W44074  15.234  11.297  16.081  0.1423  0.0024  0.2391
25221W        W44075   9.759  13.700  16.391  0.3897  0.2282  0.1080
25222W        W44076  11.464  13.593  16.207  0.3638  0.2066  0.0835
25223W        W44077  12.133  12.485   2.998  0.0774  0.0129 -0.2290
25224W        W44078   8.706   7.980   3.855 -0.1731 -0.1087  0.0200
25225W        W44079   2.863   8.196  14.982  0.0164  0.2986 -0.1513
25226W        W44080   2.365  16.555   0.905 -0.3020  0.0863  0.0010
25227W        W44081   4.961  10.560  16.551 -0.0616  0.1199  0.3309
25228W        W44082  13.391   1.875  14.118  0.0448  0.0768 -0.2499
25229W        W44083   8.018   4.158  12.766  0.1146  0.0779  0.1497
25230W        W44084   9.619   3.183  15.641  0.1533  0.1116  0.1318
25231W        W44085   1.780   1.787  16.264  0.2402 -0.1038  0.1556
25232W        W44086   5.177   2.391  16.945  0.1805  0.0281 -0.0682
25233W        W44087  16.732   3.131  15.728 -0.2537 -0.4141 -0.1165
25234W        W44088   9.066   9.897  13.425 -0.1837  0.1966 -0.3261
25235W        W44089   1.818  17.575  14.368 -0.0199  0.3430 -0.1172
25236W        W44090  17.131  12.608   1.777  0.1325  0.2427  0.0694
25237W        W44091   6.018   2.166  12.752  0.4298 -0.1077  0.1210
25238W        W44092  16.852   7.951   3.799  0.2115  0.1703  0.0876
25239W        W44093  13.492  13.366   3.698 -0.2215 -0.0553 -0.0073
25240W        W44094  16.622  15.651   1.025 -0.0413  0.3210 -0.1800
25241W        W44095   7.423  15.467  13.630 -0.0815  0.1328 -0.0678
25242W        W44096  11.440  12.430  14.028 -0.1326  0.3480 -0.1414
25243W        W44097  15.359  12.176  17.229 -0.3164  0.0609 -0.2684
25244W        W44098   2.961  10.120  16.149  0.1887  0.1765 -0.1048
25245W        W44099   8.267   9.864  13.117 -0.0881 -0.0819 -0.1527
25246W        W44100   7.175   0.993   2.880  0.1395  0.2424 -0.1151
25247W        W44101  10.117   1.584   4.784 -0.0695 -0.2551  0.2530
25248W        W44102   8.070   6.925  13.745 -0.1558  0.0664  0.0976
25249W        W44103   6.303   4.146   0.962  0.0765  0.5490  0.1470
25250W        W44104  17.393   3.146  12.929  0.1254  0.2339 -0.0139
25251W        W44105   7.128   6.035   4.983  0.1075  0.1569 -0.1400
25252W        W44106  16.597   8.672  17.208 -0.1639  0.0317 -0.0109
25253W        W44107  11.236   4.071  16.145 -0.5836 -0.0051  0.2045
25254W        W44108   2.221   2.078   4.344 -0.2345 -0.0100  0.0198
25255W        W44109   5.801   4.625   1.629 -0.2484 -0.0296  0.0105
25256W        W44110  16.669   4.207  13.554 -0.2224 -0.1063 -0.2274
25257W        W44111   9.448   0.679  16.459 -0.3296  0.1003  0.2902
25258W        W44112   7.429   5.942  15.019  0.1004  0.0354  0.2307
25259W        W44113   2.700  10.738   6.517  0.3702  0.1860  0.0549
25260W        W44114   8.721  16.920   2.198  0.3099 -0.1606  0.1012
25261W        W44115   5.257   4.569  15.390 -0.0135  0.1939 -0.1861
25262W        W44116  11.869   7.307  13.299 -0.1911 -0.1034  0.0960
25263W        W44117  11.163  14.622  13.766 -0.1365 -0.2936  0.3040
25264W        W44118   4.218   3.772  16.372 -0.3530 -0.3237 -0.0015
25265W        W44119  12.597   6.306  14.582  0.3689 -0.2186  0.0812
25266W        W44120  10.460  17.317  12.981 -0.0074  0.1437  0.1548
25267W        W44121   4.229   7.450   4.778 -0.0756 -0.1250 -0.0695
25268W        W44122   0.481   9.486  12.777 -0.0763  0.0252 -0.0529
25269W        W44123  12.201   7.422  15.028  0.1625  0.2460 -0.1753
25270W        W44124   1.165  12.182  12.610 -0.2134 -0.2845  0.1628
25271W        W44125   1.609  16.710   3.655  0.1538 -0.0231  0.3100
25272W        W44126   0.683   0.497   1.910 -0.1918 -0.1968 -0.0846
25273W        W44127  14.805  16.194   1.812 -0.1464 -0.2076  0.1003
25274W        W44128  12.799  16.661   4.094 -0.1578 -0.1926  0.0026
25275W        W44129   4.711  16.302   4.258 -0.1002  0.2379  0.1026
25276W        W44130  17.513   6.631  12.883 -0.3037  0.1100 -0.0020
25277W        W44131  11.796   4.736   5.137 -0.0951 -0.1144  0.0731
25278W        W44132   1.302  14.705   2.165  0.0668  0.2567  0.0214
25279W        W44133   6.089   4.291   3.694  0.1450 -0.1454 -0.0044
25280W        W44134  12.587   4.570  14.364 -0.0913  0.1657 -0.4313
25281W        W44135   0.423   5.331   1.937 -0.1217  0.0476  0.2091
25282W        W44136   8.185   5.246  15.110  0.1727 -0.2946  0.0438
25283W        W44137  15.632  15.742  12.955 -0.1769  0.3036  0.3154
25284W        W44138   0.981   4.761  11.064  0.2299  0.4176 -0.1142
25285W        W44139   4.855  12.078   2.292  0.2278 -0.2012  0.3909
25286W        W44140  10.493   0.582  13.075 -0.1390 -0.0460  0.2635
25287W        W44141   4.948   5.513  15.083  0.1450 -0.1738  0.2320
25288W        W44142   1.038  11.188  13.899 -0.2127 -0.0657  0.5322
25289W        W44143   7.446   4.577  15.568 -0.1728 -0.1566 -0.1474
25290W        W44144   9.123   0.819  16.050  0.5065  0.1324  0.0259
25291W        W44145   6.442  11.729   3.935  0.1595 -0.1697 -0.0884
25292W        W44146  11.402  17.333  12.443 -0.0949  0.1470 -0.0415
25293W        W44147   5.875  14.430  12.901 -0.0590 -0.1248  0.5079
25294W        W44148   6.933  10.368   0.119 -0.1527  0.3337  0.1756
25295W        W44149  16.068  12.263   3.561  0.0340  0.1363 -0.0041
25296W        W44150   6.216  10.587  16.581 -0.0281 -0.1263 -0.1863
25297W        W44151   4.975   3.501  12.404  0.1348 -0.0905  0.1696
25298W        W44152   0.561   7.254  13.697 -0.1439  0.1128  0.2144
25299W        W44153   8.075  11.220  17.217  0.0443 -0.3133  0.1917
25300W        W44154   7.471  10.730  16.711  0.0392  0.0840 -0.0985
25301W        W44155   0.658  16.115   4.548 -0.1511  0.0839 -0.0891
25302W        W44156   9.392   0.888   1.053 -0.1978  0.5051  0.0467
25303W        W44157  14.750   1.595  14.648 -0.0677  0.0666  0.2574
25304W        W44158  15.531  13.644   5.229  0.0223 -0.0083  0.0059
25305W        W44159   7.976  15.750   3.785  0.0085 -0.0395 -0.1615
25306W        W44160   5.260   3.521   4.454  0.0442  0.2841  0.3655
25307W        W44161  14.894  12.756   0.884 -0.1822  0.0165 -0.1308
25308W        W44162  15.869  13.480  13.443  0.1558  0.0606  0.0269
25309W        W44163  12.339   6.069  14.145  0.0618  0.2271 -0.3329
25310W        W44164   4.342   3.662   0.008 -0.2944  0.1719 -0.1670
25311W        W44165  13.466  17.200   1.389 -0.2986 -0.2675 -0.2898
25312W        W44166  11.288  13.709   2.017 -0.0740  0.3000  0.0747
25313W        W44167   6.565   6.445   3.748 -0.1390  0.0260  0.1556
25314W        W44168   7.626   3.423   4.046  0.0864  0.2361  0.3983
25315W        W44169  15.762   6.337  16.208  0.5807  0.0168  0.0120
25316W        W44170  11.314   6.762   1.410 -0.1213  0.0814  0.0948
25317W        W44171  13.932  10.469   3.581  0.2456 -0.1260 -0.3289
25318W        W44172   9.815  11.506  12.491 -0.1594 -0.1645 -0.0179
25319W        W44173   2.243  10.727   1.278  0.0843  0.1931 -0.0455
25320W        W44174  14.865   2.542  14.789 -0.4325 -0.1356 -0.1470
25321W        W44175  15.952  12.478  11.277 -0.0398 -0.0061  0.0926
25322W        W44176   0.700  16.818  13.657 -0.0855 -0.3651  0.2947
25323W        W44177  11.520  12.501   3.351  0.3791  0.1037 -0.3385
25324W        W44178  10.031  12.505  12.221  0.2102 -0.0551  0.0071
25325W        W44179   1.341   3.810   0.390  0.1207 -0.3740 -0.0496
25326W        W44180   7.709   3.993   5.112  0.1104  0.1498  0.1240
25327W        W44181  11.190   2.254   0.259 -0.0388 -0.1387 -0.0739
25328W        W44182   2.619   5.450  13.589 -0.2816  0.0168  0.1027
25329W        W44183   5.752   6.460  14.663 -0.2041 -0.0395 -0.2038
25330W        W44184   0.327   8.710  12.930 -0.1632  0.4194 -0.1729
25331W        W44185  15.172  15.561  13.045  0.2059 -0.0973 -0.0168
25332W        W44186  15.643  11.466   1.981 -0.0896  0.3795 -0.1854
25333W        W44187   6.883  14.652   2.657  0.2321  0.0196 -0.2440
25334W        W44188   8.027  13.502  11.947 -0.2621  0.1695 -0.1032
25335W        W44189  17.171   4.424  14.155 -0.2969  0.0740 -0.3255
25336W        W44190  11.983   8.412  12.513  0.0352 -0.1496  0.3726
25337W        W44191   0.207  14.235   3.035  0.1968  0.2194 -0.1565
25338W        W44192   6.462   8.494   1.824 -0.1146 -0.0355 -0.2088
25339W        W44193  13.800  12.621   4.163 -0.2918  0.0754 -0.1213
25340W        W44194  13.716   6.700  13.809  0.2655 -0.0165  0.0054
25341W        W44195   6.688  13.859  16.445  0.0312  0.0035 -0.4549
25342W        W44196   3.935  11.466   0.018  0.0021  0.1284 -0.1747
25343W        W44197  11.120  14.037   1.304  0.2269  0.1515 -0.1267
25344W        W44198   7.738   9.305  13.469 -0.2297  0.0586  0.1755
25345W        W44199   2.252   6.935   6.300  0.0102  0.0168  0.0514
25346W        W44200  17.384   0.223   0.927  0.1630 -0.0261  0.3413
25347W        W44201   2.287  17.129   3.008  0.2198 -0.2687  0.2326
25348W        W44202  13.671  13.431   0.701  0.1037  0.0104  0.2148
25349W        W44203   8.250  14.747   4.681  0.0043 -0.0037  0.3796
25350W        W44204   4.602   9.980  12.442  0.0483 -0.0091  0.3923
25351W        W44205   5.393   2.978  13.680 -0.1796  0.1402 -0.0709
25352W        W44206  13.017   1.682   2.172 -0.1033  0.3745  0.4575
25353W        W44207  14.832  10.837  14.203 -0.0453  0.0226 -0.2682
25354W        W44208   1.121   6.913   3.784  0.0190  0.4115 -0.2756
25355W        W44209  14.550  12.677  15.941 -0.1044 -0.1521 -0.2186
25356W        W44210   0.025   9.096  14.103  0.1174  0.3794 -0.1440
25357W        W44211   4.614   4.890  14.508 -0.1922  0.0037 -0.3606
25358W        W44212   1.547   6.446  12.853  0.0122  0.0139 -0.1949
25359W        W44213  14.488  16.445   1.388 -0.1230 -0.0452  0.1020
25360W        W44214   3.897   8.778  13.903 -0.1198  0.2350 -0.1078
25361W        W44215   1.111   5.825  15.836 -0.2802 -0.2086 -0.3228
25362W        W44216  16.410   7.506   3.492 -0.0605  0.2306 -0.0952
25363W        W44217  16.525  10.202  16.715  0.1316  0.1041  0.1494
25364W        W44218  13.206   5.424  12.251 -0.3458 -0.1225 -0.2746
25365W        W44219   0.608   0.995  15.886  0.0393  0.0777  0.0302
25366W        W44220  12.883   5.491   2.929  0.0778  0.0760 -0.0783
25367W        W44221   1.416  17.507  13.349 -0.2615  0.1859 -0.0342
25368W        W44222  14.939  14.524  16.334  0.0586  0.0392 -0.2571
25369W        W44223   6.890   8.345  12.523  0.1752 -0.0538  0.2289
25370W        W44224  16.657   8.136  15.726  0.2865  0.0184 -0.0681
25371W        W44225  15.617   2.833   0.139 -0.1117 -0.2031  0.0454
25372W        W44226  12.866   1.714   5.202  0.2894  0.2483 -0.2071
25373W        W44227  15.388   9.637   1.138  0.4071  0.0165  0.1613
25374W        W44228  13.685   9.923  15.293 -0.1362  0.2156  0.4240
25375W        W44229   3.831   6.674   4.039  0.1616  0.1514 -0.0395
25376W        W44230   2.094   0.518   2.149  0.0118 -0.0859  0.1154
25377W        W44231   6.541  14.958   0.148  0.3497 -0.1848  0.0919
25378W        W44232   9.281   9.741   2.141 -0.0469 -0.0033  0.3098
25379W        W44233   6.266  11.083  12.957  0.1541 -0.0043 -0.0001
25380W        W44234   4.312   4.017  12.022 -0.1411  0.1369  0.0307
25381W        W44235   2.857  12.771  15.001  0.0767  0.2254  0.0587
25382W        W44236   9.854   1.762  14.462  0.3636 -0.1866  0.0838
25383W        W44237   2.145  14.075   0.753 -0.1588 -0.0350  0.0384
25384W        W44238  14.771   2.915   0.336  0.2298 -0.1748 -0.4289
25385W        W44239  12.251   1.941  13.300 -0.2054 -0.1233  0.0365
25386W        W44240  10.067   1.101   2.708  0.0961  0.0850 -0.0721
25387W        W44241  16.709   0.395  13.699 -0.0602 -0.0327 -0.3700
25388W        W44242  14.564  10.605  13.829  0.1023  0.2750  0.0224
25389W        W44243   0.356  17.131  12.819  0.2833 -0.2482  0.0810
25390W        W44244   8.538   8.959  17.009  0.0923  0.0386 -0.1182
25391W        W44245   4.530  16.401  14.176  0.0395 -0.1840 -0.2990
25392W        W44246   9.149   9.356  14.258  0.3661  0.0864 -0.2869
25393W        W44247   4.075   0.597  15.001  0.2070 -0.3450  0.0991
25394W        W44248   3.040   4.969  15.616  0.2668  0.2009  0.2430
25395W        W44249  15.627   7.811  15.467 -0.0594  0.1371  0.1850
25396W        W44250   7.906  10.877  14.468  0.0134  0.0722  0.0645
25397W        W44251   9.722  17.167   2.964 -0.3186  0.0669  0.3651
25398W        W44252   2.335   1.506   2.764 -0.1094 -0.2670  0.0547
25399W        W44253   4.090   4.510  12.114 -0.0360 -0.3326  0.2441
25400W        W44254  15.961   6.413   2.032 -0.2496  0.0035  0.3824
25401W        W44255   2.821   7.800  12.194 -0.0177  0.2281 -0.2926
25402W        W44256  11.708  15.450   4.608  0.0183  0.0630  0.1306
25403W        W44257   8.097   0.481  15.051 -0.1737 -0.0064  0.1091
25404W        W44258  14.934   3.205  13.813 -0.0272 -0.3237  0.1392
25405W        W44259   2.272   8.698   2.450 -0.0255 -0.0349  0.0437
25406W        W44260  11.769  12.839  12.641 -0.0747  0.1779  0.0778
25407W        W44261  11.287   3.823  14.386  0.2515  0.1472  0.2809
25408W        W44262   2.953   9.022  12.940 -0.1039 -0.2065 -0.0863
25409W        W44263  11.953  12.725  15.075 -0.0692  0.0186 -0.2063
25410W        W44264  10.540  12.168   4.884  0.2900 -0.0106 -0.0949
25411W        W44265  14.744  10.227   0.605 -0.1943 -0.0837  0.2148
25412W        W44266  10.946   9.792  16.785  0.1457 -0.0448  0.2635
25413W        W44267  13.197  12.280  14.331  0.1743 -0.4402 -0.0027
25414W        W44268   3.180  11.231   3.982 -0.3309  0.2222 -0.0378
25415W        W44269  17.041   0.399  14.970  0.0342 -0.2435 -0.1654
25416W        W44270  12.654  10.938  15.194 -0.2272  0.2922 -0.2262
25417W        W44271  11.226  15.456  12.492  0.2457  0.0450 -0.2062
25418W        W44272  10.902  11.177  15.705 -0.1264  0.4481 -0.0622
25419W        W44273  17.406  17.319  14.431  0.0619  0.1508 -0.0540
25420W        W44274  15.056  14.291   0.111  0.1426 -0.1100 -0.3525
25421W        W44275   3.984   7.391   1.341  0.0068  0.0477  0.2494
25422W        W44276   7.854   7.035   0.879  0.4078  0.0250 -0.2774
25423W        W44277  14.057  15.561   4.277 -0.0380 -0.1325 -0.1135
25424W        W44278   9.600  10.388   0.659  0.0572 -0.2100  0.1246
25425W        W44279  12.321  10.823  16.108  0.0122  0.0666  0.0053
25426W        W44280  15.138   7.753  13.269  0.1127  0.0440 -0.1358
25427W        W44281  17.300   2.440  14.851  0.0859  0.1774 -0.0871
25428W        W44282   4.518  13.708   1.688  0.0375 -0.1175  0.1483
25429W        W44283   9.426   8.015  13.141 -0.0943 -0.0192  0.2784
25430W        W44284   4.044  10.008   5.179  0.0507  0.1217 -0.0493
25431W        W44285  10.391  15.271  15.328 -0.1185  0.0113 -0.3035
25432W        W44286  10.577   9.095   0.305  0.2728  0.2168 -0.2887
25433W        W44287  15.020   5.617  12.304 -0.2379 -0.0457  0.1565
25434W        W44288   7.213  11.942  16.294 -0.1100 -0.1152 -0.2059
25435W        W44289  14.418  11.710  12.533 -0.1033  0.1898  0.0753
25436W        W44290  14.836  13.404   2.656  0.3503 -0.1957  0.0262
25437W        W44291   1.962  12.539  15.282 -0.0442  0.0387  0.0744
25438W        W44292  10.481   2.659   0.476 -0.1159  0.0162  0.0513
25439W        W44293   8.264  14.907  15.675  0.1653  0.1342 -0.1760
25440W        W44294  14.941   7.729   2.551  0.0817 -0.0524  0.2748
25441W        W44295   5.404  13.340   2.009  0.1509  0.0401  0.0469
25442W        W44296   2.658   7.585   2.007 -0.0117 -0.0989 -0.0712
25443W        W44297  16.712  12.460  14.566  0.0319 -0.0212  0.0595
25444W        W44298   7.583   7.094   2.925 -0.1250 -0.3605 -0.3047
25445W        W44299  10.574  14.940   3.456  0.3770 -0.3987 -0.0409
25446W        W44300  12.610   0.592  12.467  0.1383  0.3603  0.0280
25447W        W44301   0.762   8.107  15.800  0.0392  0.0267  0.0269
25448W        W44302   2.773  17.539  12.944  0.1555 -0.1796 -0.2062
25449W        W44303  16.411   7.522   5.260 -0.0824 -0.1535 -0.1600
25450W        W44304  16.016  15.380  12.707  0.0025  0.2766  0.2593
25451W        W44305   9.544   4.873  16.493 -0.1113 -0.2071 -0.1657
25452W        W44306  12.488   0.836   3.758  0.2152 -0.0597 -0.1746
25453W        W44307   2.022   6.055  16.279  0.3045  0.0699  0.1152
25454W        W44308   8.348   8.054  14.818 -0.0351 -0.3753 -0.2959
25455W        W44309   5.377  15.925  14.692 -0.1168 -0.0211  0.1608
25456W        W44310   6.997  14.951   1.285 -0.3726  0.1738 -0.2763
25457W        W44311   6.126  11.824  13.772  0.0633  0.0723 -0.0337
25458W        W44312   2.023  15.095  14.581 -0.0388 -0.0772  0.0858
25459W        W44313   1.575  16.143  12.723  0.1180 -0.0727 -0.0483
25460W        W44314  16.898   5.430   2.617 -0.1432 -0.1639  0.1453
25461W        W44315  14.095   1.311  16.117 -0.0219  0.1748 -0.1240
25462W        W44316  15.439  11.232  12.408 -0.2899  0.1701  0.2729
25463W        W44317  15.228   7.954   1.948 -0.0544  0.0696 -0.3040
25464W        W44318  16.329   5.032  13.221 -0.4394 -0.1628 -0.1000
25465W        W44319   1.542  16.320  12.149  0.2494 -0.0440 -0.0844
25466W        W44320   5.501  10.250  15.532 -0.1549 -0.2424  0.0941
25467W        W44321  14.492   5.097   1.853 -0.1864  0.0656 -0.1859
25468W        W44322  16.133  16.574   4.595 -0.3118  0.1450  0.0926
25469W        W44323  16.817   7.821  16.111 -0.1117  0.0496  0.1230
25470W        W44324   1.980   9.571   1.064  0.3549 -0.3808 -0.3255
25471W        W44325  13.016  14.196  13.974  0.0050  0.0544 -0.1794
25472W        W44326   8.339   7.885   0.638 -0.1745 -0.2530  0.0649
25473W        W44327   2.396   0.873   2.117  0.0444  0.0716 -0.1542
25474W        W44328   5.275   1.362   1.777 -0.1578 -0.1991  0.0138
25475W        W44329   8.344  11.009  14.244  0.0148 -0.0181  0.1083
25476W        W44330   5.904  10.241   3.827  0.1075  0.1594 -0.0028
25477W        W44331   6.143  14.202   2.969 -0.1325  0.2812 -0.1465
25478W        W44332   8.639   7.324  15.086  0.4321  0.2067  0.0221
25479W        W44333   9.493  16.065   2.478 -0.0350  0.3559  0.0339
25480W        W44334   2.924   4.657   0.186  0.4370 -0.0947  0.0529
25481W        W44335   9.651  10.360   3.833  0.0148  0.0929 -0.3665
25482W        W44336  10.194   9.167   1.353 -0.0364  0.1333  0.1641
25483W        W44337  17.331   8.535   5.810  0.0503 -0.0451 -0.3278
25484W        W44338   2.905   3.248  16.506 -0.0378  0.0045  0.0504
25485W        W44339  11.811  13.884  11.892 -0.0836  0.1569  0.1258
25486W        W44340  15.503   9.937  16.118  0.1428 -0.0884  0.2757
25487W        W44341   4.653   5.007   0.639  0.1572 -0.0866  0.1695
25488W        W44342  14.812  14.118   4.903  0.1720  0.2761 -0.0061
25489W        W44343   3.809  11.074   5.242  0.3066 -0.2459 -0.1349
25490W        W44344  10.327   3.705   3.563 -0.2608  0.1896 -0.1540
25491W        W44345  13.297   0.274  16.902 -0.0795  0.0748  0.0435
25492W        W44346   3.517   7.356  12.783  0.1811 -0.0003  0.2950
25493W        W44347   3.177   0.019  16.214  0.0927  0.1100 -0.1910
25494W        W44348  17.242   0.064   2.017  0.0001  0.0367  0.1488
25495W        W44349  12.065   4.124  12.542  0.0590  0.0254  0.1843
25496W        W44350  10.800   7.848  16.145 -0.2197  0.2595 -0.1455
25497W        W44351  17.323   5.984   1.744  0.2355  0.2805  0.0961
25498W        W44352   1.138  11.064   2.304 -0.0952  0.0506  0.0035
25499W        W44353   9.363   8.740  16.980 -0.0010  0.0539  0.0722
25500W        W44354  13.678  13.196   0.275  0.0083 -0.0841  0.0519
25501W        W44355   7.897   8.084   0.546  0.2940  0.0665 -0.1469
25502W        W44356  15.342  16.741   4.369  0.1361  0.5593  0.0451
25503W        W44357  14.748  14.216   2.390 -0.2895 -0.1179  0.3783
25504W        W44358   1.748  14.090  15.021  0.1899  0.0803 -0.0185
25505W        W44359  10.433  14.633  14.406 -0.1207  0.1511 -0.2206
25506W        W44360  16.315   7.886  16.000 -0.3842  0.2488  0.1607
25507W        W44361   3.184   8.265  12.820  0.0112 -0.0440  0.0491
25508W        W44362   5.503  16.921   1.165 -0.1079  0.1498  0.0922
25509W        W44363  14.870   4.209   5.078  0.0759  0.3114 -0.0629
25510W        W44364  11.999  17.149   4.420 -0.0842  0.2374  0.2561
25511W        W44365   6.786   8.064   4.439  0.0243  0.0755 -0.1173
25512W        W44366  15.552  17.144  16.806  0.3327  0.0084 -0.1464
25513W        W44367  14.601   6.880   4.555  0.0750 -0.0119 -0.2103
25514W        W44368   4.048  14.054  16.035 -0.1298 -0.1653 -0.0822
25515W        W44369  13.846   2.208  16.551 -0.0390 -0.0840 -0.3558
25516W        W44370   3.984   5.171  16.829  0.2269  0.4482 -0.0842
25517W        W44371  10.852   9.792   3.574  0.3368  0.1401 -0.1352
25518W        W44372   9.791  10.639  13.059 -0.3092  0.4052 -0.2403
25519W        W44373   9.803   9.747  15.259  0.1202  0.2316  0.1932
25520W        W44374  14.645   2.327  17.209 -0.2451 -0.0243  0.2000
25521W        W44375  16.054   7.853   2.750  0.2042  0.0241  0.2457
25522W        W44376  11.648   3.072   0.633  0.0489  0.0895 -0.0289
25523W        W44377  14.034   4.530   2.639  0.1718  0.0619  0.2335
25524W        W44378   6.269   0.539  16.599 -0.3102  0.2340 -0.1108
25525W        W44379   5.606  11.086  12.977 -0.0031  0.1084  0.2786
25526W        W44380   1.337  16.828   4.885  0.3935  0.0476  0.2566
25527W        W44381  16.545   4.001   4.095 -0.1146 -0.1033  0.0884
25528W        W44382   9.459   6.154  15.378  0.1587 -0.0159  0.0303
25529W        W44383   5.958  17.548   2.248  0.1930 -0.1727 -0.0153
25530W        W44384   7.833  13.954   1.263 -0.0687 -0.0266  0.0207
25531W        W44385   0.227   3.221  16.193  0.1447  0.0012  0.2036
25532W        W44386  12.527   5.800   0.636 -0.0777  0.1104  0.0945
25533W        W44387  14.786   5.861  14.612 -0.1242  0.0678 -0.1631
25534W        W44388   4.648   7.807  15.691  0.1297  0.1198 -0.2884
25535W        W44389   4.039   3.987  13.419  0.1025 -0.0760 -0.0577
25536W        W44390  12.498   3.263  13.775  0.3084  0.0562  0.2604
25537W        W44391   5.984   9.920  14.837  0.0973  0.1929  0.0770
25538W        W44392  11.857   7.699   2.808 -0.0237 -0.0083 -0.3373
25539W        W44393   0.981  11.559   3.815  0.2963  0.2394 -0.1587
25540W        W44394   3.093   0.852  14.489  0.1277  0.2501  0.1009
25541W        W44395  10.140   4.753   4.500  0.2582 -0.2592 -0.5765
25542W        W44396   5.724   7.334  12.833  0.0939  0.0541 -0.2209
25543W        W44397  11.387  13.523  13.051  0.2335 -0.1260 -0.0291
25544W        W44398  16.876  13.566   2.881  0.2410  0.0219  0.1331
25545W        W44399  17.054   5.333   5.200  0.1932  0.2154 -0.0167
25546W        W44400   9.168   2.545   4.128  0.0794 -0.2211 -0.2489
25547W        W44401  10.300  16.284  13.342  0.1001 -0.1111 -0.1258
25548W        W44402  13.750   6.174  15.980 -0.1963  0.2788  0.0078
25549W        W44403   0.625   0.693  13.968 -0.0711  0.2303  0.1079
25550W        W44404  17.469   9.524  13.729 -0.0024 -0.3121  0.0319
25551W        W44405   4.510  10.802  11.398  0.0331  0.1746 -0.0926
25552W        W44406  12.902   0.814   1.421 -0.1301  0.0537  0.1977
25553W        W44407   4.471   2.874   1.768 -0.3013  0.0107 -0.0927
25554W        W44408  11.127   3.466   2.180 -0.1449  0.2893 -0.0501
25555W        W44409  17.572   8.654  13.854  0.4888 -0.3292  0.1104
25556W        W44410  13.497   1.725   2.155 -0.1014 -0.0612 -0.1782
25557W        W44411   0.952   6.980   4.818 -0.0078  0.2934  0.0527
25558W        W44412  16.033   2.593  12.831 -0.1348  0.0943 -0.1086
25559W        W44413   5.969   3.746  12.464 -0.3344 -0.0621 -0.0077
25560W        W44414   6.679  14.061   1.800  0.1145 -0.2982 -0.2783
25561W        W44415   6.465  10.471   2.350  0.1425  0.0749 -0.0105
25562W        W44416   0.780   7.887   3.364  0.1229  0.0197 -0.0188
25563W        W44417   1.927   0.895  14.955 -0.2923 -0.0295  0.0178
25564W        W44418   0.358   6.554  14.106 -0.2211 -0.2234  0.0809
25565W        W44419  11.873  16.860  14.792 -0.1377  0.0464  0.0584
25566W        W44420  13.132  17.513   1.073  0.3162  0.1022 -0.2663
25567W        W44421   4.042  15.084   1.036  0.1225 -0.0257  0.0518
25568W        W44422   9.258   7.825  12.523  0.2503 -0.1345  0.0253
25569W        W44423   1.669  14.126   0.970  0.0035  0.0840  0.1076
25570W        W44424  11.372   0.982   3.175  0.1666 -0.0388 -0.2787
25571W        W44425  11.986   0.523   2.115  0.1869 -0.1662 -0.3185
25572W        W44426   3.998   2.346  14.808  0.1207 -0.0040 -0.0157
25573W        W44427  14.148  10.950   0.624 -0.1435  0.1186 -0.0538
25574W        W44428  11.563   6.137   4.235 -0.1850 -0.0644  0.2706
25575W        W44429   1.453  12.352  16.264  0.1344 -0.1294 -0.0705
25576W        W44430   8.266  11.712   0.042 -0.0179 -0.0433 -0.2651
25577W        W44431  15.427  13.973  12.666  0.0298  0.3877  0.5187
25578W        W44432  15.544   5.287   1.034 -0.0794  0.0077  0.2763
25579W        W44433   0.717   6.208  15.910  0.0319  0.1594  0.1095
25580W        W44434  11.722   4.179  15.930 -0.0853 -0.1572 -0.2650
25581W        W44435  10.220  12.287  15.792  0.0750  0.1377 -0.1733
25582W        W44436  15.588   2.418  16.133 -0.2370 -0.0589 -0.0214
25583W        W44437   7.905   6.081  16.242  0.3927 -0.1636  0.2570
25584W        W44438   8.679   5.387   4.353 -0.0089 -0.0198  0.0538
25585W        W44439  17.457  16.957   0.344  0.1401  0.1588 -0.0282
25586W        W44440   5.039   8.776  15.997  0.3088 -0.0178 -0.1029
25587W        W44441  11.636   4.918   0.962 -0.3470  0.1553  0.4692
25588W        W44442  16.324   3.817   2.597 -0.0972 -0.0449  0.0560
25589W        W44443  15.031  10.158  15.125  0.0073  0.1534  0.0043
25590W        W44444  15.609   3.761  16.472  0.0717 -0.2861 -0.4094
25591W        W44445   2.905  17.131  17.113  0.3798 -0.0356  0.0363
25592W        W44446   2.661   8.650  15.077  0.1325  0.2032 -0.2012
25593W        W44447   4.801   3.640   4.065 -0.2849 -0.0954  0.0329
25594W        W44448   7.398  10.652   0.945 -0.0250 -0.0401 -0.1441
25595W        W44449   0.500  13.041  17.095  0.2096 -0.1795 -0.0795
25596W        W44450  17.309   3.974  16.062  0.0662  0.0600 -0.3239
25597W        W44451  11.133  16.764  17.233 -0.2463 -0.1770  0.2337
25598W        W44452   8.989  17.288  13.601 -0.4504 -0.1541 -0.1014
25599W        W44453  12.172   7.467   1.612 -0.1376  0.1775 -0.2108
25600W        W44454   8.338   5.946  15.057  0.0152 -0.0078 -0.1181
25601W        W44455   8.540   1.632   3.133  0.2396 -0.2587 -0.0242
25602W        W44456  13.749   3.096   4.196 -0.0770 -0.2318  0.1099
25603W        W44457  12.178   6.249   1.360  0.0073 -0.1501  0.3073
25604W        W44458   9.077  16.929  12.206 -0.0126  0.2137 -0.0105
25605W        W44459  13.296   2.606  10.981 -0.2577 -0.0616 -0.0939
25606W        W44460  15.698   1.178   0.826  0.0220 -0.0886  0.2324
25607W        W44461  16.728   0.731  15.887 -0.1891 -0.1551 -0.0109
25608W        W44462   9.380  14.785   2.933 -0.0405  0.3967 -0.0125
25609W        W44463   4.222   0.920   4.946  0.2119  0.0385 -0.3386
25610W        W44464  14.801   0.521   0.770 -0.1718  0.0317  0.0235
25611W        W44465  14.244   1.854   4.259  0.1061  0.0250  0.1076
25612W        W44466  16.539   5.736  15.528  0.0416 -0.0752 -0.0640
25613W        W44467   1.567  15.850   4.771  0.2088 -0.0388  0.0289
25614W        W44468  12.259   6.274  12.028 -0.3399  0.0113  0.1387
25615W        W44469   5.629   4.051   3.509  0.1617  0.0018 -0.0882
25616W        W44470  15.320  10.933   0.823  0.1733  0.1340 -0.0492
25617W        W44471   5.382   2.490   4.080 -0.1216  0.2163  0.2596
25618W        W44472  12.836   5.981  14.906  0.2872 -0.2135  0.1377
25619W        W44473   5.192  16.115  13.664 -0.2607  0.2466 -0.4578
25620W        W44474   6.306   7.368  13.810 -0.1323  0.0575 -0.1145
25621W        W44475   4.239   0.449   1.353 -0.0077  0.2411  0.0719
25622W        W44476  12.867   3.409   4.784  0.0367 -0.1625 -0.3010
25623W        W44477  14.541  14.515  12.305  0.0735  0.0910  0.0330
25624W        W44478   9.186   5.952  15.903  0.0997 -0.1059 -0.0003
25625W        W44479  12.741  10.764  14.678 -0.3291  0.0200 -0.1889
25626W        W44480  15.876   2.064  14.899 -0.1789 -0.1160  0.0818
25627W        W44481   4.195  11.302  12.044  0.0319  0.0345  0.2337
25628W        W44482  16.040   1.639  13.709  0.1494  0.0910 -0.0464
25629W        W44483   0.384   0.660  15.061  0.0770  0.0512  0.1172
25630W        W44484   3.569   8.117   1.815 -0.0577 -0.0583  0.1630
25631W        W44485  10.296   0.260   0.399 -0.1231 -0.1656 -0.4455
25632W        W44486   7.659   8.752   4.099 -0.2022 -0.5336  0.3350
25633W        W44487  16.470   9.395  12.174 -0.1021 -0.0414 -0.1138
25634W        W44488  16.970   5.448  14.843 -0.2625  0.0703  0.1487
25635W        W44489  14.452  14.736  17.144  0.2555 -0.1116  0.0153
25636W        W44490   5.990   3.576   0.976  0.1817 -0.0570 -0.1218
25637W        W44491  14.154  12.501  13.045  0.0193  0.0383 -0.0065
25638W        W44492   8.865   5.217   3.837  0.0124 -0.1740  0.0228
25639W        W44493  13.609   6.590  15.493 -0.0970 -0.0731  0.0734
25640W        W44494  15.237  14.408  12.805 -0.2154  0.0682  0.0517
25641W        W44495   8.189   0.658  16.895  0.0063 -0.0175  0.0002
25642W        W44496   0.156   1.884   0.608  0.4159  0.3374 -0.2030
25643W        W44497  17.548   0.651   0.767  0.0420 -0.0144 -0.0438
25644W        W44498   9.864  14.042  13.854  0.4107 -0.1315 -0.0727
25645W        W44499  11.962  13.215   3.909 -0.0944 -0.3441 -0.0341
25646W        W44500   1.900   2.347   1.465 -0.2351  0.0885  0.0098
25647W        W44501  16.882  12.209   0.168  0.0366  0.2057 -0.1194
25648W        W44502  13.830   9.940   2.607 -0.0313 -0.0915  0.2524
25649W        W44503   7.594  10.630   3.857 -0.1437  0.1680 -0.1881
25650W        W44504  13.821   2.827  12.239 -0.1021  0.2471  0.1804
25651W        W44505   5.926  10.741   0.981  0.2424 -0.2062  0.2810
25652W        W44506  11.827   3.000   4.785  0.1694  0.1285  0.3000
25653W        W44507  12.206  16.507   1.685 -0.3517 -0.1945 -0.0148
25654W        W44508   5.679   7.541   3.299 -0.3584 -0.2861 -0.0159
25655W        W44509  10.658   0.965  14.719  0.1435  0.0489 -0.1533
25656W        W44510   8.846   3.793   3.432 -0.3118 -0.0556  0.0541
25657W        W44511  14.941   1.678  16.649 -0.0748  0.1284  0.2480
25658W        W44512   3.407  14.480   1.136 -0.0720 -0.4245  0.0089
25659W        W44513  14.747   5.950  11.873  0.2265 -0.2879  0.3030
25660W        W44514  17.289  12.220  13.172  0.6498 -0.1654 -0.1253
25661W        W44515   5.117  12.774   5.075 -0.1543  0.1613 -0.0773
25662W        W44516   5.282  12.793   2.427 -0.0854 -0.0618 -0.3001
25663W        W44517   2.282   3.093   1.101 -0.4290  0.1013 -0.0766
25664W        W44518   0.998  14.609   4.053  0.1809  0.1893 -0.0304
25665W        W44519   6.724  14.088  13.789 -0.2098 -0.3071  0.0130
25666W        W44520   9.396  11.431  16.616 -0.4122  0.1205 -0.0604
25667W        W44521  15.930   1.962  13.328  0.1678 -0.2622  0.2397
25668W        W44522   8.568   8.340   3.221  0.2615  0.1481  0.1366
25669W        W44523   4.704  10.852  14.584  0.1680  0.2334  0.0891
25670W        W44524  15.958   9.555   0.830 -0.1904 -0.1981 -0.1070
25671W        W44525  16.901  15.257   1.055 -0.0005  0.0878 -0.3419
25672W        W44526   7.194  10.257   3.399  0.2876  0.1066  0.0679
25673W        W44527   5.576   4.001   0.284 -0.1736  0.0652 -0.1453
25674W        W44528   0.179  10.963  14.343 -0.2189  0.3911 -0.3065
25675W        W44529   7.129  11.656   0.814 -0.1368 -0.1825 -0.1146
25676W        W44530   4.164   8.173   4.191 -0.0705  0.2380 -0.0068
25677W        W44531  13.904  11.638   4.264 -0.1782 -0.1940 -0.2762
25678W        W44532  17.536  13.681   3.975  0.3600  0.0537 -0.0788
25679W        W44533   5.615  13.602  12.240 -0.2724 -0.1462  0.2157
25680W        W44534   1.752   0.190   0.179  0.0346  0.3122 -0.1029
25681W        W44535  15.361  17.363  12.583  0.2125  0.0283  0.1760
25682W        W44536   5.693   3.119   2.554 -0.0339 -0.3066 -0.0042
25683W        W44537  12.008   2.846  13.802 -0.3368  0.2085  0.0357
25684W        W44538  17.265   6.379  13.285 -0.0828  0.1517 -0.3532
25685W        W44539  16.658   0.463  12.762  0.0310  0.1690  0.0966
25686W        W44540   6.651   8.479  14.139  0.1388 -0.1337 -0.1733
25687W        W44541  10.677   6.736   3.343  0.0363 -0.1185  0.0840
25688W        W44542  13.633  13.264   4.842  0.1759 -0.1557  0.1525
25689W        W44543  12.426  10.079   3.790  0.1108  0.2196 -0.2031
25690W        W44544   4.969  11.815   6.181 -0.2690 -0.0085  0.2958
25691W        W44545   9.927   3.378  15.983 -0.3303 -0.1254 -0.0427
25692W        W44546  14.507   8.085  14.569 -0.2816  0.0616  0.0214
25693W        W44547  14.411   1.740   3.707  0.1216 -0.0204  0.0032
25694W        W44548  14.337   2.406  16.446 -0.0385 -0.0911 -0.2024
25695W        W44549  10.740  16.263   3.773 -0.2795 -0.2893 -0.4205
25696W        W44550   2.945   8.140  13.395  0.1992 -0.1382 -0.2012
25697W        W44551  14.630  13.331   2.218  0.2297  0.0034 -0.1738
25698W        W44552   0.792  16.271  14.002 -0.0606 -0.2469  0.1842
25699W        W44553   1.058  16.575  15.623 -0.2568 -0.1187  0.1207
25700W        W44554  13.202   1.539   0.300 -0.1088 -0.3094  0.0935
25701W        W44555  11.873  11.167  12.352 -0.1551  0.0185  0.1284
25702W        W44556   4.774  13.605  13.564  0.0724  0.3223 -0.1556
25703W        W44557   8.235  10.055   3.624  0.1709  0.2210  0.3743
25704W        W44558   0.527   6.039  15.144  0.3733 -0.1141  0.2816
25705W        W44559  17.335  14.418   0.644  0.0639 -0.2725 -0.0790
25706W        W44560  13.099   6.704  16.661  0.2982 -0.0201  0.1871
25707W        W44561   5.413  12.271  15.855  0.0828  0.2561 -0.1324
25708W        W44562  10.734   9.355  13.487  0.0694 -0.4079 -0.0559
25709W        W44563   1.688  16.085  15.041  0.2206  0.1407 -0.0953
25710W        W44564  17.079   7.426   4.277  0.1399  0.1119  0.2227
25711W        W44565  11.560   3.686   2.356 -0.1317  0.1093 -0.0278
25712W        W44566  10.773   0.757   4.053 -0.2589 -0.1632  0.1127
25713W        W44567  12.789  15.234  14.569 -0.3123 -0.0656 -0.2669
25714W        W44568   6.594  13.940  13.021  0.2961 -0.4308  0.0828
25715W        W44569   3.516  16.719  13.866 -0.4449 -0.1389 -0.1406
25716W        W44570   7.959   1.079   2.685  0.4200 -0.3537 -0.1695
25717W        W44571   7.904   5.798   2.515  0.1627 -0.2210  0.1593
25718W        W44572  11.618   2.366   0.045  0.0297 -0.0430 -0.5792
25719W        W44573   1.207   3.999  16.217  0.2449 -0.0049 -0.2627
25720W        W44574  14.704   2.753  13.949 -0.0559  0.0564 -0.0590
25721W        W44575   7.080   3.479   0.622  0.1938 -0.1114  0.2094
25722W        W44576  14.802   3.930   2.834 -0.1098  0.0805 -0.2060
25723W        W44577  12.540   1.819  16.414  0.1741  0.2557  0.0034
25724W        W44578   5.533  10.055  14.848  0.0392  0.5349  0.0782
25725W        W44579  10.036   4.386  15.042  0.0069  0.1717 -0.1284
25726W        W44580  12.538   8.966   2.667  0.3558 -0.0371 -0.2009
25727W        W44581   8.229   5.587  14.154 -0.1454  0.2348 -0.0421
25728W        W44582   5.008  15.987   0.503  0.1729  0.0478  0.3159
25729W        W44583   3.262  13.864   4.632 -0.0768  0.0094  0.2379
25730W        W44584   1.809   8.395   4.521 -0.0795  0.3142  0.1306
25731W        W44585  17.050   9.490  12.425 -0.2852 -0.1763 -0.3671
25732W        W44586  16.126  13.932  12.700  0.0217  0.1037 -0.2446
25733W        W44587   5.459   0.686  17.076  0.1426 -0.1158 -0.0686
25734W        W44588   5.469  15.360   4.230 -0.1531  0.1916  0.2169
25735W        W44589   0.521  13.378   2.800  0.1149 -0.3799 -0.0082
25736W        W44590   6.124   6.294   1.753 -0.0822  0.2262 -0.1236
25737W        W44591   9.095   6.004  14.483 -0.0099  0.0231  0.3395
25738W        W44592   3.800  13.087  15.941 -0.1961  0.0625 -0.0561
25739W        W44593  13.783   8.910   4.153  0.0247  0.0790  0.0953
25740W        W44594   5.837   4.464   3.308 -0.0253  0.0532 -0.3262
25741W        W44595  15.374   3.140  13.610 -0.2649  0.0781  0.0842
25742W        W44596   2.899  12.054   0.757 -0.2212 -0.0924  0.0022
25743W        W44597  17.286   7.013  15.745 -0.1430  0.1565 -0.1600
25744W        W44598   0.719   5.074   4.384  0.0912 -0.0574 -0.2348
25745W        W44599   0.202   6.376  15.986 -0.0636 -0.0697 -0.1434
25746W        W44600   7.380   6.278   0.369  0.1322 -0.1932  0.2910
25747W        W44601   6.240  16.816  14.288  0.0778 -0.0915 -0.3256
25748W        W44602   2.789  14.070  16.404  0.1054 -0.2926 -0.2005
25749W        W44603   1.857  17.507   4.759 -0.1783 -0.1039 -0.0760
25750W        W44604   4.263  15.290   1.453  0.0496  0.0763 -0.1321
25751W        W44605   0.540   6.352   4.304 -0.0527 -0.4566  0.0595
25752W        W44606  15.859   4.899  11.618 -0.0621  0.0442  0.1849
25753W        W44607  12.720  10.115  16.658  0.2630 -0.0867  0.1343
25754W        W44608   6.872   1.633  12.153  0.0915  0.0464  0.2668
25755W        W44609  17.140   7.351  11.773  0.0783 -0.3987  0.0480
25756W        W44610  14.309   5.909  14.275 -0.1140  0.3222 -0.1068
25757W        W44611  13.048   7.856  15.508 -0.1700 -0.2310 -0.1434
25758W        W44612   1.624   6.913  16.437  0.0024  0.1141 -0.1045
25759W        W44613   2.160   4.494   0.779  0.1053 -0.2308  0.0325
25760W        W44614  17.509  14.326  17.181  0.0240  0.0232 -0.0131
25761W        W44615   5.620  16.376  13.792 -0.1426 -0.1053  0.0697
25762W        W44616  14.169   7.669   0.777  0.0588  0.0290  0.1236
25763W        W44617  11.960  12.969   1.962  0.0935  0.0877 -0.0350
25764W        W44618  16.508   1.123   1.088  0.0007 -0.0107  0.0125
25765W        W44619  11.632  11.852   0.842 -0.0092  0.2211  0.3502
25766W        W44620   6.454   6.639   2.702 -0.0482 -0.0662 -0.0573
25767W        W44621   6.189   4.751   4.550 -0.0272 -0.0901 -0.4460
25768W        W44622   0.770   2.297  16.014  0.0953  0.1049  0.0873
25769W        W44623  13.000   8.781  13.513  0.3191  0.1647 -0.2224
25770W        W44624   4.269   7.203  13.176  0.1346 -0.0526 -0.0411
25771W        W44625  13.520   8.383  12.758  0.1508 -0.1003  0.3043
25772W        W44626  12.684   8.095  14.647 -0.2485 -0.0946 -0.1613
25773W        W44627  11.888   1.431  17.049  0.0473  0.3906  0.0595
25774W        W44628  12.336  13.143   4.748 -0.1660  0.0223 -0.3089
25775W        W44629  15.289  16.106   5.126 -0.0793  0.0828 -0.0480
25776W        W44630  12.418   7.291   4.996 -0.0024  0.0906  0.0711
25777W        W44631   7.310   9.720  16.733 -0.0596  0.1844  0.2407
25778W        W44632   8.466   7.536   2.826 -0.0086  0.0321 -0.1877
25779W        W44633  12.427  15.282   1.195  0.2961  0.2871  0.0911
25780W        W44634   1.325  17.301   3.030  0.1458 -0.1684 -0.1010
25781W        W44635   8.583   3.979  15.046 -0.2258  0.1533  0.0334
25782W        W44636  10.599  11.693  14.019 -0.0925  0.0688  0.0007
25783W        W44637  15.582  11.786   0.888 -0.0061  0.2252 -0.2663
25784W        W44638   0.690   6.527  13.733 -0.1117  0.0634  0.0703
25785W        W44639  12.208   3.807  16.225 -0.0411  0.0744  0.3009
25786W        W44640  16.803  14.297   3.134  0.0967  0.2306 -0.0808
25787W        W44641   4.690   3.561  14.875 -0.0924  0.1965 -0.2055
25788W        W44642  16.602   7.077  13.705  0.2665 -0.1587 -0.2636
25789W        W44643   0.428  16.098  14.864 -0.2230  0.1568 -0.0092
25790W        W44644   4.611   2.619  15.476  0.1276 -0.0565 -0.4498
25791W        W44645  12.681  16.586   1.803 -0.4385 -0.0167  0.3363
25792W        W44646   6.212  16.509  16.065  0.0228 -0.0242 -0.0915
25793W        W44647  16.626  14.293   4.614 -0.3150  0.2044  0.1335
25794W        W44648  16.811  10.789   1.577 -0.0388 -0.0020  0.2479
25795W        W44649  13.901  15.880   2.442  0.0054  0.0700  0.0034
25796W        W44650  15.305  11.410  13.471  0.0465  0.2367  0.0492
25797W        W44651   9.324  15.157  15.733  0.0926  0.1199 -0.1080
25798W        W44652   9.787  17.434   1.639  0.0820  0.0641 -0.1011
25799W        W44653   7.164  15.555   4.973 -0.3104 -0.0859 -0.0927
25800W        W44654  12.054   7.144  15.936  0.2339  0.0211 -0.1065
25801W        W44655   8.110   5.600  16.302 -0.1156 -0.1505  0.1177
25802W        W44656   8.777   4.473  13.201  0.0217 -0.3096  0.2974
25803W        W44657   5.846  11.471  16.220 -0.2825 -0.2888  0.0280
25804W        W44658   3.895  16.743   1.104 -0.1354  0.1202  0.1449
25805W        W44659  11.340   1.718  13.074  0.2219  0.2030 -0.3022
25806W        W44660   1.661  14.079   6.033  0.1561 -0.2451 -0.2410
25807W        W44661  11.400  17.418   1.038  0.0517  0.1894  0.0466
25808W        W44662   2.486   9.043   5.269 -0.0313 -0.1819 -0.0939
25809W        W44663   1.625   0.648   3.253  0.0813  0.0666 -0.0616
25810W        W44664  12.182   9.927   4.194 -0.3640  0.0812  0.3319
25811W        W44665   4.249   7.561   0.840 -0.0327 -0.0283  0.0616
25812W        W44666  12.412   4.236  15.140 -0.1120 -0.0303 -0.2436
25813W        W44667  14.785   0.327  15.548  0.0411 -0.0506  0.0207
25814W        W44668  10.934   4.086   1.738 -0.0036  0.0397 -0.2075
25815W        W44669   3.217   6.755   5.558  0.0410 -0.1859 -0.0119
25816W        W44670   1.823   2.849   3.372 -0.0488 -0.0022 -0.1818
25817W        W44671   8.714   0.925   6.298  0.2044 -0.0568 -0.1262
25818W        W44672   3.167   8.926  15.529 -0.0085 -0.2186  0.3051
25819W        W44673  16.507   0.577  17.146  0.1611  0.4309 -0.0331
25820W        W44674  15.296  17.496   0.257  0.1781 -0.1424  0.1990
25821W        W44675   0.760   2.657  17.028  0.0277 -0.0435  0.1414
25822W        W44676  17.005   7.419   5.256  0.0376 -0.2955 -0.2303
25823W        W44677  17.412  11.288   0.278 -0.2220  0.1204  0.2262
25824W        W44678   4.705  11.098  13.251  0.1045  0.0072  0.2011
25825W        W44679  16.502   4.030  15.355  0.0229  0.1032  0.0754
25826W        W44680   5.014   0.436  13.989 -0.3272 -0.1217 -0.0337
25827W        W44681   0.552   3.430  16.519  0.0569  0.5751  0.4722
25828W        W44682   0.190   3.714  16.249 -0.0993 -0.2051 -0.0025
25829W        W44683   9.358  12.069   2.349 -0.2870  0.1319  0.2364
25830W        W44684   4.390   9.746   1.842 -0.0557  0.1042 -0.3805
25831W        W44685   8.810   1.074  12.516  0.2076 -0.1319 -0.0847
25832W        W44686   4.580   5.819   4.082 -0.1372 -0.3955  0.0680
25833W        W44687   4.222   3.021  15.897 -0.2639 -0.0998  0.1984
25834W        W44688   1.055  10.420  15.076  0.0244 -0.0530  0.1630
25835W        W44689  16.392   4.743   2.825  0.4150  0.0305  0.1100
25836W        W44690  15.266   8.632  16.102 -0.0601 -0.0238 -0.0733
25837W        W44691   9.580   2.463   2.083 -0.0604  0.0994  0.0158
25838W        W44692   8.452  15.448   1.877  0.1635  0.4924 -0.0143
25839W        W44693  14.276  13.795  16.107  0.2293  0.1930 -0.2275
25840W        W44694  14.230  14.636  15.700  0.3456  0.0339  0.4481
25841W        W44695  13.623   7.208   2.964 -0.1955 -0.1085 -0.2149
25842W        W44696  10.424   3.420   5.440 -0.0262  0.3575 -0.4017
25843W        W44697  14.009  14.886   2.459  0.0151 -0.0965 -0.1585
25844W        W44698  11.176   7.003   0.436 -0.2236  0.3809 -0.1070
25845W        W44699   0.809   9.838   0.938 -0.0333 -0.0229  0.1120
25846W        W44700  16.595   3.905   3.050  0.0529  0.0621 -0.1502
25847W        W44701  13.979  16.161   1.440 -0.1895  0.1551  0.0029
25848W        W44702  11.230   2.946   5.412 -0.0299  0.3079 -0.2149
25849W        W44703   2.540   6.839   1.324  0.5596 -0.0382 -0.1939
25850W        W44704   4.437  10.100   4.049 -0.0020 -0.1164 -0.1558
25851W        W44705  16.594   7.970  12.127 -0.1131 -0.3862  0.1261
25852W        W44706  13.183  13.675   0.756  0.0125  0.0881 -0.1367
25853W        W44707   6.341  12.564   1.652  0.1122 -0.0083  0.2944
25854W        W44708   7.579  14.925   4.936  0.0327 -0.1233  0.0211
25855W        W44709  17.530   1.351   4.565  0.0582  0.0618 -0.3267
25856W        W44710   1.765   6.441  14.682 -0.1821 -0.2636 -0.3095
25857W        W44711  14.810  10.558   4.116 -0.0290  0.2053  0.1657
25858W        W44712   0.654  12.700   0.398  0.1106  0.0293 -0.0415
25859W        W44713   2.708   1.149   1.370  0.1629 -0.2083 -0.1842
25860W        W44714   1.773   8.250  13.254 -0.3262 -0.0195 -0.1934
25861W        W44715  16.037  12.589  12.204  0.1955 -0.1047 -0.0520
25862W        W44716   5.296   5.774  13.513  0.0879 -0.0786  0.0716
25863W        W44717  16.649   9.080   1.495 -0.0046  0.0488  0.2199
25864W        W44718   4.126   9.967   3.655 -0.2138 -0.2455  0.0952
25865W        W44719  17.016   1.859   2.662  0.3069  0.2087 -0.0740
25866W        W44720   9.206   2.223  15.758  0.2464  0.0974  0.1207
25867W        W44721  11.520  12.047  14.383  0.2375  0.2741 -0.1672
25868W        W44722   1.299   8.324   0.185  0.2260 -0.0792 -0.1731
25869W        W44723   3.120   1.435  16.719 -0.3237 -0.0991 -0.1835
25870W        W44724  16.094   1.031  12.084  0.2377  0.0046  0.2278
25871W        W44725   3.200   7.303  14.949  0.1893 -0.0035 -0.0759
25872W        W44726   0.532  13.304   4.724  0.1922 -0.2705 -0.0324
25873W        W44727   0.667  10.158  13.601  0.4351 -0.0406 -0.2587
25874W        W44728   6.531  15.100  12.848  0.3174 -0.1548 -0.0029
25875W        W44729  12.733   5.305  16.320 -0.3330  0.1481 -0.1686
25876W        W44730   6.389   0.250   0.783  0.0579 -0.2886 -0.1181
25877W        W44731   2.324  12.818   4.812  0.0203  0.1571 -0.1527
25878W        W44732   8.194  10.610   4.874  0.1150  0.2641  0.2017
25879W        W44733   0.767   8.630  13.213 -0.0813  0.2678 -0.0462
25880W        W44734  11.348   9.102  13.698 -0.3488 -0.1100 -0.1542
25881W        W44735   9.892   9.427  12.323  0.5014  0.4250  0.0440
25882W        W44736   7.264   4.693  14.027 -0.0012 -0.0015  0.0362
25883W        W44737  13.385   2.530  12.305  0.2508 -0.0205 -0.2179
25884W        W44738  10.875   8.516  15.402 -0.1094 -0.2247 -0.1392
25885W        W44739  15.539   6.230   1.280  0.2852 -0.2738  0.0087
25886W        W44740   6.312   4.400  12.921  0.0360 -0.0984  0.1582
25887W        W44741  13.982  13.303  17.123 -0.0047 -0.1141  0.1113
25888W        W44742   3.829   3.792  14.307 -0.1113 -0.0903 -0.0409
25889W        W44743   7.268   0.014  16.327 -0.0964 -0.1154  0.2065
25890W        W44744   2.126  11.042   3.851 -0.2968 -0.0405 -0.0294
25891W        W44745  13.627   4.569   2.162 -0.1416 -0.1524  0.1898
25892W        W44746  13.539  17.399   5.181 -0.1486  0.2264 -0.4259
25893W        W44747   9.690   9.313   2.134 -0.0179 -0.0618  0.4857
25894W        W44748   2.711  12.925   0.244 -0.3457 -0.3658  0.3260
25895W        W44749  13.209   0.389   3.994 -0.0568  0.3422  0.0718
25896W        W44750  12.347  12.174   1.523 -0.4619  0.1671 -0.0037
25897W        W44751   4.387   0.426  12.855  0.4474  0.0245  0.1131
25898W        W44752   2.639  13.870  12.456  0.4422 -0.0730 -0.0046
25899W        W44753   9.360   2.260   1.650  0.1252 -0.3822  0.2707
25900W        W44754  16.505  13.225  16.580  0.0365  0.0623 -0.0680
25901W        W44755   0.604   1.819   3.405 -0.0658 -0.1099  0.0877
25902W        W44756   7.317   7.545   1.212 -0.1391 -0.1658  0.1120
25903W        W44757   8.589   2.141   3.841  0.2119 -0.0122  0.0459
25904W        W44758   5.603  17.345   4.151 -0.2094 -0.0215 -0.1414
25905W        W44759   9.880  13.063  14.565  0.1492  0.2181 -0.3556
25906W        W44760   2.225  16.636   3.158  0.3963  0.1745  0.1789
25907W        W44761   5.423   0.247  12.436 -0.0422 -0.0656 -0.1296
25908W        W44762   8.858  13.503  14.801 -0.1259  0.1987  0.0055
25909W        W44763   6.686  12.011  16.863  0.0079  0.1187 -0.0002
25910W        W44764  16.309   1.932   0.600  0.2339  0.2398  0.2282
25911W        W44765   2.221   1.279   1.278  0.1844  0.2377  0.3896
25912W        W44766   2.110  12.105   5.361  0.0161 -0.0473 -0.1906
25913W        W44767  17.137  10.391  14.623 -0.1097 -0.0466  0.0860
25914W        W44768   2.209   8.536   5.707 -0.1015 -0.1881  0.2983
25915W        W44769  10.580   0.924   0.014 -0.2877 -0.2104  0.1046
25916W        W44770   3.641   4.654   3.396 -0.0445  0.0666 -0.2125
25917W        W44771   3.144   7.774   1.826  0.0257 -0.2912 -0.2815
25918W        W44772   3.740   8.272   2.857  0.2132 -0.1021 -0.0821
25919W        W44773  14.146  15.105  12.326  0.0756  0.1064 -0.0543
25920W        W44774  11.859  12.941  13.616  0.1260 -0.1059  0.0565
25921W        W44775   1.042   7.436   2.660  0.1392 -0.0551 -0.0058
25922W        W44776  15.031   6.076  12.698  0.0261 -0.1293 -0.1180
25923W        W44777   8.650  14.001   0.070  0.1118  0.1240 -0.1068
25924W        W44778  10.417   1.492   0.502 -0.1955 -0.3957  0.0107
25925W        W44779   1.777  10.854  12.322  0.1695 -0.1038 -0.0479
25926W        W44780  13.411   6.048   0.317  0.1959 -0.1719  0.0017
25927W        W44781   8.419   3.883   3.959  0.2425  0.3397  0.1173
25928W        W44782   1.228   6.814  14.683  0.0314  0.1335  0.0924
25929W        W44783  11.506  14.916  13.130 -0.2441 -0.0665 -0.2113
25930W        W44784  13.313  17.467   4.717  0.3883 -0.2105  0.3721
25931W        W44785   7.747   1.999  12.702 -0.0626  0.0403 -0.1314
25932W        W44786   5.812  14.214  12.395  0.0997  0.4049  0.0077
25933W        W44787   4.975   1.103   2.091 -0.0569 -0.2323 -0.1337
25934W        W44788   0.510   7.491   2.699 -0.0827 -0.0469 -0.3954
25935W        W44789   4.180   0.476  14.460  0.0241  0.3338  0.0500
25936W        W44790  15.569   2.923   4.222  0.0126  0.1286  0.1545
25937W        W44791   6.041  15.459   1.436  0.1996 -0.1281  0.0341
25938W        W44792   2.719   6.054   2.078  0.1139 -0.0255  0.1390
25939W        W44793  16.394   6.805   3.469  0.3711 -0.1791 -0.1283
25940W        W44794   8.165  12.934  13.222  0.2158 -0.2086 -0.0890
25941W        W44795   4.400  17.224  14.737 -0.0054  0.1143  0.2532
25942W        W44796  14.142  14.783  14.582  0.0253  0.2290  0.1702
25943W        W44797  14.553   7.823  16.321 -0.1746  0.0051 -0.0223
25944W        W44798   6.943  14.260  12.633 -0.1193 -0.0618  0.0583
25945W        W44799   1.988  10.014   5.983 -0.1072 -0.1724  0.0887
25946W        W44800  17.112   4.118   0.298 -0.0753 -0.1490 -0.0500
25947W        W44801  15.633   8.085  14.060  0.0965  0.0172 -0.1563
25948W        W44802   6.853   1.168   2.378 -0.0830 -0.0325 -0.1394
25949W        W44803   9.211   6.272  13.510  0.0588 -0.4571  0.1585
25950W        W44804   7.326   3.995  14.382 -0.2630 -0.0744 -0.0025
25951W        W44805  15.283  13.985  15.345 -0.1551 -0.1035 -0.1191
25952W        W44806   0.451   6.450   1.231 -0.0895 -0.0359 -0.2125
25953W        W44807   6.041  15.703   3.169  0.0426 -0.0515  0.3530
25954W        W44808   6.490   7.457   3.394 -0.3571  0.1942 -0.3210
25955W        W44809  16.519   5.139   2.477 -0.0886 -0.0677  0.0368
25956W        W44810   2.331   2.942  15.792 -0.1275 -0.3360  0.0246
25957W        W44811  17.198   2.004  16.152 -0.2497  0.0639  0.3146
25958W        W44812   6.039   2.535   4.751  0.1790 -0.1396  0.0122
25959W        W44813   2.209  11.268   2.999  0.3353 -0.1480 -0.2477
25960W        W44814  13.090   1.362  12.708 -0.2214 -0.0975  0.2035
25961W        W44815   5.688   5.631  16.699  0.1490  0.0050 -0.2369
25962W        W44816  11.169   1.619  12.201 -0.0727 -0.0743 -0.2130
25963W        W44817   8.822   2.172   2.478  0.0071 -0.0445  0.0718
25964W        W44818  10.773   5.654   0.257  0.0646  0.4548 -0.3720
25965W        W44819   7.797   1.521  15.066  0.1920  0.0296 -0.1056
25966W        W44820  11.456   7.969  17.221 -0.1143 -0.0154  0.0457
25967W        W44821  16.938   8.022   1.580 -0.1200  0.1331  0.2540
25968W        W44822   0.029   1.978   4.572 -0.1513 -0.0128  0.1951
25969W        W44823  14.228   7.680   1.362 -0.1065  0.1236  0.1716
25970W        W44824   8.579   3.542   4.318  0.1794  0.2017  0.1629
25971W        W44825  17.165  13.415   1.024  0.0060  0.0511 -0.0971
25972W        W44826  10.931   8.362   4.812  0.2555  0.0349  0.0610
25973W        W44827   2.612   0.754  12.175 -0.0552  0.3754  0.1480
25974W        W44828   8.264   9.185   2.155  0.1321 -0.1204  0.2090
25975W        W44829  14.769   0.982  15.556  0.1081  0.1035  0.1576
25976W        W44830   6.026  17.152   5.227 -0.0695  0.3043  0.2355
25977W        W44831   3.882   1.756   0.985  0.0959 -0.0460  0.2405
25978W        W44832  11.682  13.241   1.681  0.1810 -0.0832 -0.2501
25979W        W44833   8.735   0.968  13.372 -0.1228  0.0274  0.0218
25980W        W44834   4.199   2.523  13.613  0.0072  0.1648  0.2257
25981W        W44835   0.129   6.470  13.628 -0.3480  0.2430  0.0659
25982W        W44836   1.725   9.637   4.665 -0.0034 -0.2983 -0.2862
25983W        W44837  13.310   0.636   3.132 -0.0164 -0.0729 -0.0613
25984W        W44838  15.729  14.970   0.618  0.0975 -0.0402 -0.1887
25985W        W44839   6.236   3.912  14.594 -0.0785 -0.0883 -0.0537
25986W        W44840   0.458   8.127   6.571  0.2035 -0.0559  0.3827
25987W        W44841   5.851  10.013  14.325  0.1087 -0.2271  0.1494
25988W        W44842  17.551  12.295  14.330 -0.3371  0.1411  0.2585
25989W        W44843  11.583  13.108   0.391  0.0012  0.3058  0.1357
25990W        W44844  10.146  17.031   1.607  0.0893 -0.0498 -0.0665
25991W        W44845  13.331  12.359   4.561 -0.1183 -0.0189 -0.0588
25992W        W44846  12.955   3.776   2.441  0.0709 -0.3109 -0.1298
25993W        W44847  11.593   2.102  12.791 -0.0615 -0.2122  0.0239
25994W        W44848   7.556   3.057  13.265 -0.1481 -0.1639 -0.2678
25995W        W44849   5.877   4.798   2.081  0.1229  0.0021  0.0179
25996W        W44850   4.849   3.161   0.635  0.0520 -0.0887  0.0515
25997W        W44851   5.340   2.158  14.663 -0.0814 -0.2201 -0.0992
25998W        W44852   0.851   5.930  16.357  0.1334 -0.0167  0.1549
25999W        W44853  15.847   3.637   4.324 -0.0825 -0.1455 -0.1242
26000W        W44854   2.944  14.245   3.089  0.2072  0.0590 -0.1420
26001W        W44855   6.731  15.619   2.450  0.0344 -0.3959 -0.1535
26002W        W44856   7.461   3.240   2.210 -0.2996  0.1584 -0.3466
26003W        W44857  11.329   4.865  14.974  0.0595  0.0393 -0.2909
26004W        W44858  10.061  10.475  15.158  0.0396 -0.3126 -0.1081
26005W        W44859   2.426   0.452   3.121  0.0235  0.1972 -0.1150
26006W        W44860   4.424  14.387  14.680 -0.0688 -0.2615  0.0214
26007W        W44861   7.577  11.657  13.290  0.0485 -0.1487 -0.4098
26008W        W44862   8.889  16.821  14.869  0.2758  0.0295 -0.1797
26009W        W44863   2.949   3.982  14.611 -0.1406  0.1889 -0.1049
26010W        W44864   6.140  10.831   0.408 -0.0797 -0.2541 -0.1356
26011W        W44865  16.815   3.592   1.052 -0.1029  0.3153  0.0752
26012W        W44866  17.385  12.689   3.087  0.0192 -0.3005  0.0620
26013W        W44867   1.796  10.750   1.558  0.0266 -0.3224 -0.0709
26014W        W44868  14.720  14.626  12.868 -0.1188  0.0617 -0.0324
26015W        W44869   1.133   0.103   3.525 -0.1796  0.0668  0.2544
26016W        W44870   1.556   2.554   2.690  0.2740 -0.0907 -0.0087
26017W        W44871   3.369  11.470   1.318  0.3619 -0.1140 -0.0488
26018W        W44872   1.362   8.621   1.365  0.2642 -0.1129 -0.0222
26019W        W44873  10.752  11.760  13.570 -0.0092 -0.2095  0.0772
26020W        W44874  14.487   3.810  15.951 -0.2324  0.1965  0.0084
26021W        W44875  13.261  17.171   3.746 -0.1853  0.2188 -0.0894
26022W        W44876   5.874  16.578   1.202 -0.1273  0.0681 -0.4094
26023W        W44877   5.989   1.452  14.938  0.1367  0.1475  0.0078
26024W        W44878  13.299  10.115  14.321  0.0037  0.0507  0.0726
26025W        W44879  14.895   9.365   1.457  0.2609 -0.2404 -0.0279
26026W        W44880  11.459   5.122   4.974 -0.1166  0.0957  0.1159
26027W        W44881   5.412   6.586  16.874 -0.0744  0.1547  0.0421
26028W        W44882  15.983   2.450   0.107 -0.1564 -0.0114  0.0736
26029W        W44883  15.671  16.122  16.962 -0.0757  0.0244 -0.1025
26030W        W44884   1.768   0.967  15.440 -0.1181  0.2326 -0.2908
26031W        W44885  17.204   6.485  11.165  0.1857 -0.0475  0.0019
26032W        W44886   3.057   6.502  12.112 -0.0146 -0.0828 -0.0051
26033W        W44887   2.185   1.903   0.180  0.1477 -0.5168 -0.1885
26034W        W44888   2.694   3.498   2.995  0.0570 -0.0129  0.1430
26035W        W44889  16.934  14.912  12.936 -0.0465 -0.1886 -0.1712
26036W        W44890   6.132   5.794   2.754  0.2349  0.1478 -0.2703
26037W        W44891   5.650  13.030  15.190  0.1203 -0.0219  0.0531
26038W        W44892   5.271  13.671   5.248 -0.1284  0.0795 -0.3201
26039W        W44893   1.762   5.673  13.304 -0.1251  0.0755  0.0127
26040W        W44894  11.749   4.106  14.510 -0.0195 -0.0004 -0.2241
26041W        W44895   6.982  10.110   5.249 -0.2279  0.3571 -0.0354
26042W        W44896  14.864  13.495   4.708  0.1503 -0.0294  0.0623
26043W        W44897  14.932   0.535  12.946 -0.0217  0.3044  0.0768
26044W        W44898   4.144  15.118  13.389 -0.1280  0.1537  0.0303
26045W        W44899   5.463   5.632  16.231 -0.1744  0.1062  0.0657
26046W        W44900   3.351   4.298   1.853 -0.3895  0.0473 -0.2230
26047W        W44901   4.386  14.327   3.465  0.0471 -0.1065 -0.0309
26048W        W44902   4.692  13.395   1.010  0.2587  0.0586  0.4110
26049W        W44903  16.575   5.645   3.395 -0.2540  0.1862  0.1730
26050W        W44904  12.108  13.828  15.770 -0.1430  0.0861  0.0565
26051W        W44905   8.398   9.486   1.767 -0.1004 -0.2628  0.2064
26052W        W44906   8.359   7.354   3.242 -0.1524  0.1986  0.2777
26053W        W44907  15.275   8.897  11.011 -0.0827 -0.1586  0.1648
26054W        W44908   7.506  15.611   3.133 -0.1280 -0.0218 -0.1032
26055W        W44909   5.956   3.794  13.440 -0.1835 -0.1273 -0.0031
26056W        W44910   3.938  12.658   4.288  0.0038  0.2400 -0.2440
26057W        W44911   2.431  10.780   0.039  0.0225 -0.1135 -0.2935
26058W        W44912   7.323   7.052  15.362 -0.0958 -0.0084  0.0649
26059W        W44913   1.687   9.906   1.974 -0.0039  0.0675  0.3826
26060W        W44914  11.255   6.235  12.816 -0.0750  0.0735  0.0890
26061W        W44915   9.588   2.804   2.459 -0.0221 -0.0102  0.2246
26062W        W44916   9.910  10.695  16.659 -0.1136 -0.1505 -0.2179
26063W        W44917   0.453  13.845  13.047 -0.0604  0.1160 -0.1144
26064W        W44918   5.773   2.262   4.398 -0.4262  0.2826 -0.0425
26065W        W44919  14.605   7.282   0.777  0.3508  0.2157 -0.0711
26066W        W44920  17.501  11.681   4.831  0.0289 -0.1342  0.3078
26067W        W44921  16.488  11.407   0.732  0.1311 -0.1783 -0.2320
26068W        W44922   5.174   7.528  16.585 -0.1621 -0.2696 -0.1145
26069W        W44923  13.131  11.565   1.925 -0.1768 -0.0692 -0.2377
26070W        W44924  13.795  15.678   1.217  0.2977 -0.0897  0.1316
26071W        W44925   4.898  15.035   0.285 -0.2527 -0.2293 -0.2875
26072W        W44926  13.904   5.517   4.416 -0.3105 -0.1388  0.2398
26073W        W44927   4.438  17.414   2.500 -0.0734  0.0359  0.1609
26074W        W44928  16.731   2.594   3.701  0.0975 -0.0739  0.1398
26075W        W44929   2.408  16.805   1.838 -0.0178 -0.0663  0.0104
26076W        W44930  15.092  16.311  12.351  0.0612  0.0586  0.1835
26077W        W44931   9.994   2.829  15.467 -0.0471 -0.0279 -0.1199
26078W        W44932   8.278   1.670   0.496  0.2094  0.0113 -0.0518
26079W        W44933   0.356   1.907  13.229  0.0979  0.0281 -0.3519
26080W        W44934   7.406   5.481  16.414 -0.1959  0.2205  0.2158
26081W        W44935   4.016   9.055  17.064 -0.2208 -0.2809 -0.3185
26082W        W44936  11.546   0.644  15.545  0.0919 -0.2767  0.0990
26083W        W44937  17.188  15.033   4.032 -0.1594  0.0907  0.2070
26084W        W44938   4.925  11.909   3.999 -0.0043 -0.5540 -0.2281
26085W        W44939  10.817  12.158  13.901  0.1166 -0.1820 -0.1700
26086W        W44940  13.194   1.555   4.262  0.1450 -0.0485 -0.3540
26087W        W44941  16.288   1.503   0.127  0.1086  0.3421 -0.0528
26088W        W44942   1.999   1.212   3.950 -0.2384 -0.0733  0.0627
26089W        W44943   4.455   7.625   3.449 -0.3748 -0.0642 -0.2353
26090W        W44944   0.271   0.989  12.079 -0.4449  0.0683 -0.4112
26091W        W44945   6.618  17.046   0.487  0.1632 -0.0597  0.0940
26092W        W44946   9.669  17.116   3.612 -0.3756  0.2690 -0.2088
26093W        W44947   2.436   8.917  12.369 -0.0124  0.2529 -0.1769
26094W        W44948   4.456   0.480  16.588 -0.0775 -0.2590  0.0367
26095W        W44949  15.750   5.712  12.894  0.0115 -0.1685  0.1208
26096W        W44950   2.212   7.595   3.796 -0.1955 -0.0620  0.0004
26097W        W44951   2.188  10.646  14.427 -0.3061  0.1355  0.0832
26098W        W44952   1.691   5.622  15.490  0.1453 -0.4535 -0.1438
26099W        W44953   1.850   6.416   1.996  0.1039 -0.0185 -0.1296
26100W        W44954   0.846  11.149   2.749 -0.0637  0.3780  0.0249
26101W        W44955   3.105   5.300   0.389  0.4161  0.2143  0.2326
26102W        W44956   6.686  12.128   3.949  0.0197  0.0419  0.3631
26103W        W44957  14.919   8.078   0.705  0.0762 -0.1318  0.0623
26104W        W44958  14.142   3.253  11.162 -0.0745 -0.2673 -0.0673
26105W        W44959   7.054   8.049   2.633 -0.0993  0.3742 -0.0758
26106W        W44960   3.768   6.439   1.106  0.3843  0.0121 -0.2125
26107W        W44961  16.979  16.244  16.362 -0.0863  0.0540  0.0927
26108W        W44962   4.261   8.653   0.025 -0.2074 -0.1492 -0.2018
26109W        W44963   5.693  15.663   3.568 -0.0976 -0.2162 -0.0117
26110W        W44964  10.061   8.284  13.976  0.4418  0.4202 -0.4023
26111W        W44965   7.773   4.592   5.056 -0.1514 -0.0799  0.0425
26112W        W44966  13.819  12.823  13.561 -0.0269 -0.0993 -0.1861
26113W        W44967   8.143  10.727  13.784  0.2007 -0.2806  0.2326
26114W        W44968   1.358   5.657   4.045  0.1045  0.2130  0.1598
26115W        W44969   6.954  14.090   2.717 -0.1421 -0.1574  0.3112
26116W        W44970  14.523  16.891   0.624 -0.1209 -0.0664  0.1143
26117W        W44971  12.277   9.565  13.994  0.2444  0.0224 -0.1899
26118W        W44972   6.917   4.909   4.018  0.1227 -0.1045  0.2027
26119W        W44973   3.383  11.081  12.493 -0.1343  0.0596 -0.1022
26120W        W44974  16.650   6.080   2.350  0.2574 -0.1460  0.2754
26121W        W44975   7.476   1.471   1.501  0.2384  0.1293  0.0653
26122W        W44976  13.570   9.855  15.766 -0.3452 -0.1587 -0.0035
26123W        W44977  16.334  12.264  13.043 -0.0675 -0.2130 -0.0228
26124W        W44978   1.278   7.982  17.059 -0.0175  0.2546  0.0316
26125W        W44979   3.773  16.962  12.097 -0.1055  0.3374  0.0739
26126W        W44980   2.060   1.177   5.351 -0.2974  0.1957 -0.0876
26127W        W44981   6.875   8.046   1.467 -0.1506 -0.0087  0.0819
26128W        W44982  16.338  13.313   2.270  0.2751  0.2565  0.0541
26129W        W44983   2.195  12.335  15.764  0.0927  0.2445 -0.0042
26130W        W44984  14.456   9.755  13.871  0.2228 -0.1673  0.1247
26131W        W44985   0.487   3.912   1.911  0.0039  0.1873 -0.3076
26132W        W44986  16.448  14.207  14.836  0.0488  0.2032  0.0117
26133W        W44987  10.074  13.201  16.702 -0.0805 -0.1145  0.1401
26134W        W44988   8.489   1.225  12.938  0.4323 -0.0596  0.3448
26135W        W44989   5.013   5.442   0.809  0.1622 -0.4083 -0.0328
26136W        W44990   2.479  16.418   2.235  0.1801 -0.0890 -0.0315
26137W        W44991   2.712  14.762   2.935 -0.2255  0.2473 -0.1351
26138W        W44992   8.651  16.179  16.672  0.0693 -0.0450  0.2202
26139W        W44993   3.398  11.364   5.383  0.0276 -0.0903  0.1394
26140W        W44994   9.089   8.421  13.221  0.1252 -0.2445  0.1591
26141W        W44995   2.408  12.476  14.852  0.1405  0.0192  0.0960
26142W        W44996   3.833  13.467  12.838  0.3566 -0.1638  0.0396
26143W        W44997   5.725   3.397   3.558  0.1191  0.2326 -0.2525
26144W        W44998  12.645   9.101   4.124  0.2980  0.1125 -0.0129
26145W        W44999  12.825  12.212   1.687 -0.2378 -0.0629 -0.0298
26146W        W45000   9.576   4.011  14.530  0.0142  0.2766  0.2132
26147W        W45001   5.457   7.891   0.948 -0.2821  0.0339  0.1121
26148W        W45002  12.735  11.431  15.030  0.2364 -0.0708 -0.4194
26149W        W45003  12.117  13.461  15.432  0.2902  0.1017  0.0598
26150W        W45004   8.181   2.315   1.726 -0.1018  0.0478 -0.0798
26151W        W45005  10.603   1.594  16.332 -0.1394 -0.1163  0.0321
26152W        W45006   9.886   1.385  16.819  0.2321  0.1463 -0.2193
26153W        W45007   5.269  16.958  14.562  0.0574 -0.0994 -0.2098
26154W        W45008   7.311  15.811  13.255 -0.0261 -0.1391  0.0275
26155W        W45009  14.115  17.026  14.689 -0.0646  0.3203  0.1858
26156W        W45010   2.583   5.757  14.634 -0.3991 -0.1555  0.0483
26157W        W45011   9.428   5.330   0.155 -0.1853  0.1167 -0.2454
26158W        W45012  12.468  11.369   0.389  0.0279 -0.1681  0.1782
26159W        W45013   4.623   5.668  11.910  0.1653  0.0399  0.0050
26160W        W45014   4.918   2.041   0.492 -0.1300  0.0316 -0.0709
26161W        W45015  14.771   9.763   2.281 -0.1782 -0.2592  0.0158
26162W        W45016   3.686  16.416   5.105 -0.0156 -0.3635 -0.0439
26163W        W45017   3.420   6.097   4.958  0.3180  0.2796  0.0341
26164W        W45018   6.585  15.660  15.213  0.0608  0.2836 -0.1066
26165W        W45019   3.848   2.494  13.264 -0.0738 -0.0299 -0.2437
26166W        W45020  16.407   3.374  16.517 -0.1044  0.0728  0.0680
26167W        W45021   2.882   4.707   4.694 -0.1827  0.0698  0.0523
26168W        W45022   1.079  13.604  16.597  0.4430  0.0936  0.0444
26169W        W45023   9.400  14.728  11.582 -0.1064 -0.1147  0.1459
26170W        W45024   1.387   7.803   3.717 -0.0827 -0.1052 -0.2563
26171W        W45025   3.537   2.580  14.873  0.1268  0.0238 -0.2369
26172W        W45026   3.666  15.554   0.223  0.0139  0.0563 -0.0676
26173W        W45027   2.740  13.619  15.450  0.1067  0.1872 -0.1608
26174W        W45028   4.402  13.366  16.040  0.0081 -0.2020 -0.3440
26175W        W45029   9.381   6.096   0.864  0.1679 -0.3803 -0.1451
26176W        W45030  14.416   5.565   1.722 -0.0215  0.2258 -0.2585
26177W        W45031  14.977  11.759   5.743 -0.3345 -0.0723 -0.0544
26178W        W45032   7.600  10.469  15.366 -0.2841 -0.0282 -0.1731
26179W        W45033   8.614   6.608   1.000 -0.0788  0.1130  0.1226
26180W        W45034   8.611  15.831   4.739  0.0275  0.0112 -0.2348
26181W        W45035  10.496  14.927  12.722 -0.1869 -0.1421  0.1494
26182W        W45036  13.138  12.315   1.252 -0.0916  0.1627  0.0942
26183W        W45037   1.973  11.946  13.502  0.3071  0.0371 -0.0061
26184W        W45038   1.589   1.923   3.015  0.0865  0.0306 -0.0503
26185W        W45039   6.222   1.396  12.298  0.0425  0.1430  0.2424
26186W        W45040   8.447  14.309  16.461 -0.0407 -0.3611 -0.2900
26187W        W45041   7.227  11.163   0.136 -0.1073  0.0554 -0.0133
26188W        W45042   4.028  13.604   3.035 -0.0633 -0.4040  0.0594
26189W        W45043   5.383  12.981   5.637  0.0841  0.0594  0.1097
26190W        W45044  15.894  14.072  13.128  0.1128  0.0942  0.0271
26191W        W45045  14.722   0.953   1.592 -0.1915  0.2402  0.1373
26192W        W45046   0.983   4.624  15.715  0.0156 -0.0823  0.0828
26193W        W45047   1.018  12.503  17.217  0.3266 -0.1013 -0.2932
26194W        W45048  15.694   8.398  16.082 -0.0908 -0.1818 -0.0404
26195W        W45049  13.145   2.273  17.030  0.0062 -0.2643 -0.0768
26196W        W45050  10.929   2.577  16.599 -0.1929 -0.0497 -0.0227
26197W        W45051  12.986   6.757   1.185 -0.2045 -0.0037 -0.3994
26198W        W45052   7.145  10.391   2.922  0.1115 -0.2073 -0.2782
26199W        W45053   4.045   2.761  11.066  0.0195  0.3205  0.0318
26200W        W45054  15.939  15.931   0.159 -0.3556  0.0423  0.2740
26201W        W45055   4.585   7.693   2.628 -0.2191  0.0859  0.1702
26202W        W45056   7.100   5.377   2.229 -0.0602 -0.1375  0.0060
26203W        W45057  11.991   8.332   3.727  0.0506 -0.0959 -0.1446
26204W        W45058  17.090  17.154   0.927 -0.0038  0.0078 -0.1562
26205W        W45059   4.688  11.145   0.716  0.0011 -0.0683  0.1115
26206W        W45060  17.599  13.426   1.702 -0.0174  0.1339 -0.1090
26207W        W45061   8.260   4.002   3.455 -0.2081  0.0418 -0.0914
26208W        W45062  15.416   8.965   3.230 -0.1371  0.2632 -0.1397
26209W        W45063   5.289   4.746  12.615 -0.0543  0.0205  0.1954
26210W        W45064   8.481  14.998  16.220 -0.2311 -0.3735 -0.1933
26211W        W45065   0.131   8.174   5.053 -0.1160 -0.1302 -0.2557
26212W        W45066   5.774  13.714   0.245 -0.2006  0.1536 -0.0390
26213W        W45067  17.079  12.744  12.462  0.1826 -0.2161 -0.0805
26214W        W45068   8.808  13.535  12.944  0.1748 -0.0328 -0.1824
26215W        W45069   0.239   4.258  16.155 -0.3044 -0.0819 -0.2677
26216W        W45070  11.449  10.956  13.491 -0.0667 -0.3254  0.0589
26217W        W45071   7.745  14.643  12.245 -0.0460  0.1612  0.2775
26218W        W45072   0.737   7.053  10.387  0.1323  0.0073 -0.0856
26219W        W45073   0.864   0.081   3.050  0.1595 -0.0329  0.3254
26220W        W45074   8.130  14.134   0.013  0.1263  0.0468  0.0040
26221W        W45075   6.728   0.446   2.042 -0.1627  0.0814 -0.2714
26222W        W45076   4.752   6.144   2.652 -0.1076  0.3086 -0.0727
26223W        W45077   2.163   4.253  12.363  0.1262  0.0408  0.0416
26224W        W45078  13.904   6.724  17.070  0.3956 -0.1434  0.1383
26225W        W45079  11.989  15.454   4.203  0.1817 -0.0613 -0.0603
26226W        W45080   7.138  16.198  13.675 -0.0082  0.0225 -0.1650
26227W        W45081  12.303   3.090   3.137 -0.1251 -0.0368  0.0072
26228W        W45082  11.643   1.786   2.721 -0.1081  0.0848 -0.0215
26229W        W45083   6.458   8.576   0.340 -0.0755 -0.0758 -0.2383
26230W        W45084  10.210  11.093   2.954 -0.0316 -0.0408  0.0489
26231W        W45085  15.744  11.038   2.241 -0.1020  0.1253 -0.1200
26232W        W45086   3.513   9.726   3.439 -0.0759  0.1696  0.1973
26233W        W45087   5.115  13.119   4.714 -0.1274  0.1993 -0.2185
26234W        W45088  11.827  14.764   1.521  0.1083 -0.0497 -0.2751
26235W        W45089   1.309   3.490   4.419  0.3999 -0.3773 -0.0527
26236W        W45090  16.764   7.495   0.432 -0.1054 -0.0821 -0.0422
26237W        W45091   8.208  11.363   2.403 -0.3186  0.1012 -0.0499
26238W        W45092   1.147   3.061   0.406  0.2786  0.2621 -0.0608
26239W        W45093  14.805   5.442  12.940 -0.1984 -0.0238 -0.2266
26240W        W45094   2.176   7.855  16.698 -0.0727  0.1731  0.1922
26241W        W45095   4.062  16.686   5.386  0.2308 -0.0003 -0.0948
26242W        W45096   8.336   7.769  16.975  0.2069  0.0209 -0.1941
26243W        W45097   2.298   3.400  13.833  0.0387  0.2014  0.0854
26244W        W45098   8.274  16.357   1.686 -0.2224  0.0846 -0.0476
26245W        W45099   1.773   3.634   0.654 -0.1364  0.3103 -0.2548
26246W        W45100  12.922   4.699   1.425  0.2462 -0.2319  0.0556
26247W        W45101   3.188  13.332   1.618 -0.1864  0.0580  0.4078
26248W        W45102   5.194   7.269  16.186 -0.4942  0.0186 -0.3599
26249W        W45103   2.084  17.061   1.562  0.2432 -0.2569  0.0231
26250W        W45104   5.986  17.058  12.002 -0.2207  0.1130 -0.2528
26251W        W45105   6.244   1.049   3.219 -0.1994  0.1597 -0.2839
26252W        W45106  10.721  15.529  17.026  0.1732 -0.2409 -0.1388
26253W        W45107   0.082  10.953   4.970  0.2960 -0.2331  0.3072
26254W        W45108   8.682   8.027   1.591 -0.1103 -0.1372  0.1671
26255W        W45109  13.743  11.014  14.040  0.0277  0.3547  0.4467
26256W        W45110   9.444   9.179  16.800  0.1152 -0.0011  0.0848
26257W        W45111  14.955  16.735  16.184 -0.0023 -0.1770  0.1401
26258W        W45112   2.152   3.111  16.217  0.3439  0.1518 -0.0934
26259W        W45113  10.493  15.996  15.873  0.0968  0.0673 -0.0475
26260W        W45114   3.397   6.600   3.758  0.0435  0.1369  0.0591
26261W        W45115  12.910  12.889  13.686 -0.0381 -0.0910 -0.3438
26262W        W45116   4.368   3.164   0.893  0.1211  0.2239  0.0606
26263W        W45117  17.382   7.974   4.736  0.0028 -0.1168  0.2155
26264W        W45118  14.655  16.292  14.251 -0.0336  0.0291 -0.0927
26265W        W45119  12.900   6.818   2.746  0.1793  0.0175  0.0503
26266W        W45120  13.780  17.574   4.687  0.1573 -0.1453  0.0294
26267W        W45121   1.847  13.176   0.614  0.0314 -0.1421 -0.1144
26268W        W45122  14.884   8.537   0.528 -0.0764 -0.2082 -0.1780
26269W        W45123  10.291   0.787  14.436  0.0035 -0.0821 -0.2390
26270W        W45124   6.427  16.577  14.744 -0.1829 -0.0576  0.0310
26271W        W45125   2.094  12.638   5.195  0.0908 -0.2329 -0.0431
26272W        W45126   4.633  12.181   3.735  0.1362  0.0653 -0.3858
26273W        W45127   4.220  14.797   4.639  0.1576 -0.1170 -0.0650
26274W        W45128   7.398   1.121  14.678 -0.2741 -0.0630  0.0670
26275W        W45129  10.337   5.049   4.175 -0.3094 -0.3019  0.0104
26276W        W45130   4.158  16.008   2.236 -0.0612  0.1082  0.3285
26277W        W45131  10.296  13.973  12.089  0.1824 -0.2177  0.0838
26278W        W45132   0.393   6.752  12.330  0.0149 -0.0715  0.2748
26279W        W45133  15.914   9.931  13.995  0.3638 -0.0579  0.0487
26280W        W45134  14.194  12.969  16.849 -0.3525 -0.2556 -0.1148
26281W        W45135  15.454   6.651   2.116  0.0861  0.1147  0.0579
26282W        W45136  15.394  10.821  15.679 -0.1201 -0.0837  0.1681
26283W        W45137  12.373  11.392  15.406 -0.1836  0.2306 -0.2685
26284W        W45138   6.291  10.397   4.068  0.1242  0.1473 -0.1682
26285W        W45139   6.828  17.081  13.038 -0.2169 -0.0749  0.1060
26286W        W45140  12.407  10.358  13.489 -0.3058 -0.2784  0.2225
26287W        W45141  16.966  11.715   1.349  0.1231 -0.0071 -0.2174
26288W        W45142   7.500  11.576   4.159 -0.6049 -0.3527 -0.0004
26289W        W45143  14.594   6.933  12.138 -0.0008  0.1032  0.1665
26290W        W45144   0.490   7.152   0.491 -0.1529  0.0725  0.1391
26291W        W45145   7.799   0.461   0.555  0.2416 -0.1782  0.0526
26292W        W45146   7.238   3.674  14.790 -0.2637  0.0176  0.0009
26293W        W45147  15.506   3.829  15.418 -0.2065 -0.2843  0.0196
26294W        W45148   3.512   1.472  14.066  0.2476 -0.0742  0.0159
26295W        W45149   5.744   9.797  13.004  0.0442  0.1852  0.0277
26296W        W45150  14.067   4.232  12.034  0.2150  0.1230  0.1760
26297W        W45151   6.446  16.410   4.324 -0.2440  0.2924  0.0828
26298W        W45152  10.825   6.146  14.168 -0.0174  0.0913 -0.1935
26299W        W45153   1.315   1.887  17.096 -0.1624 -0.2691  0.1554
26300W        W45154   3.629   9.374  16.089 -0.1519  0.0298  0.4162
26301W        W45155   4.102  16.190   2.713  0.1435 -0.2863  0.0820
26302W        W45156   1.592  13.357   1.307  0.0625 -0.0491  0.1704
26303W        W45157   1.405  17.058   0.715  0.1169 -0.0995  0.1451
26304W        W45158  11.660  14.715   1.010  0.2418 -0.1893  0.1110
26305W        W45159  14.366  12.016   2.571  0.1730  0.3101  0.0291
26306W        W45160   1.440  15.543   2.624  0.0581  0.0519  0.0319
26307W        W45161   3.945  10.950  15.963 -0.1990 -0.0242  0.0016
26308W        W45162   9.418   1.097  13.933 -0.0861  0.0865 -0.2057
26309W        W45163   2.967   3.531  13.208 -0.1041 -0.1619  0.0420
26310W        W45164  11.726   0.693  16.734  0.0500 -0.1000 -0.0335
26311W        W45165   5.192  16.295   4.320 -0.2480  0.1549 -0.1211
26312W        W45166   7.156  12.286  15.805 -0.1593  0.1311 -0.1649
26313W        W45167   4.092   2.595   4.739  0.0637 -0.0969  0.0695
26314W        W45168  17.588  13.863   3.370 -0.0900  0.2191 -0.1664
26315W        W45169   9.375   6.030   4.201  0.2833  0.0323 -0.2225
26316W        W45170  17.527   4.757  14.306  0.6007 -0.2901  0.0804
26317W        W45171   9.969   2.564  16.819 -0.0248  0.0520  0.3622
26318W        W45172   8.185   4.756  12.642 -0.0033  0.0807  0.0110
26319W        W45173  13.689   9.282   3.278  0.0723  0.0192 -0.0370
26320W        W45174   0.055  12.664  15.912  0.2684 -0.0062  0.0239
26321W        W45175  17.189  15.009  15.618 -0.2306 -0.1064 -0.2357
26322W        W45176   7.773   0.817   0.978 -0.0707 -0.0265  0.3347
26323W        W45177   6.673   6.398  15.584  0.0594  0.0999  0.1161
26324W        W45178  11.332  14.325   3.478  0.0167 -0.1819 -0.0212
26325W        W45179  13.963   0.203  13.641  0.1399  0.2365 -0.2962
26326W        W45180  15.153  15.449  12.078  0.0914 -0.3041  0.0632
26327W        W45181  15.507   5.296   0.440 -0.1162 -0.0892 -0.2426
26328W        W45182  12.850  10.559  13.760  0.0700 -0.1579  0.0705
26329W        W45183  11.462   4.290   3.550  0.1265  0.2494 -0.0076
26330W        W45184  14.014   1.759  14.439  0.3507  0.0020  0.3377
26331W        W45185   5.634  12.008  14.613  0.1364  0.2818  0.0708
26332W        W45186   0.455  16.943  14.507  0.2887 -0.0731 -0.2280
26333W        W45187  16.299  16.071  16.402  0.1046 -0.5292 -0.1409
26334W        W45188  11.236   3.379  14.677 -0.0191 -0.2237 -0.3044
26335W        W45189   9.612  11.281   3.617 -0.0143 -0.0127 -0.3789
26336W        W45190   0.918   8.161  13.141  0.3106 -0.2019  0.0944
26337W        W45191  10.268  13.548  16.338 -0.0867 -0.1962  0.0169
26338W        W45192   7.910  14.961   2.142  0.0136  0.0087 -0.0382
26339W        W45193   6.839   7.752   3.174  0.3151 -0.2911 -0.1595
26340W        W45194   9.247   8.507  15.342 -0.0998 -0.0738  0.1634
26341W        W45195   0.313   4.758   0.217 -0.0872  0.0328 -0.1874
26342W        W45196   7.483   8.627  15.965  0.0876 -0.0690 -0.2083
26343W        W45197  16.473   1.576  16.617  0.0787 -0.1004 -0.0132
26344W        W45198  10.605  14.541  16.422 -0.0648  0.1589  0.1694
26345W        W45199   6.574   8.722   2.296  0.1138 -0.2830  0.1021
26346W        W45200   8.537  13.173   0.997 -0.0514  0.3361  0.1326
26347W        W45201  12.325  15.869   5.110  0.0942 -0.1503 -0.0304
26348W        W45202  17.474   6.184   5.036 -0.1375 -0.0297 -0.2084
26349W        W45203   3.397   5.854   1.553 -0.0742 -0.0012  0.0527
26350W        W45204   7.311   5.567   0.185  0.3950 -0.1645  0.0930
26351W        W45205   4.144   6.767   0.261  0.0784  0.1952 -0.3156
26352W        W45206  15.866   0.799  16.226  0.0543  0.0992  0.0637
26353W        W45207  16.512  11.415  12.522  0.1217 -0.0116 -0.0811
26354W        W45208  16.052   6.030   5.149  0.0623 -0.1929  0.1878
26355W        W45209   4.958   3.502   4.904 -0.0397 -0.0134  0.1598
26356W        W45210  16.606  10.486   0.377  0.0931 -0.1601  0.1149
26357W        W45211   5.332   3.709  17.234  0.1954 -0.2472 -0.1992
26358W        W45212   1.853  15.406  12.533  0.0734 -0.2576  0.1118
26359W        W45213  14.200  11.814   3.777 -0.1310 -0.1488 -0.3012
26360W        W45214  13.938  13.731   2.503 -0.0799 -0.1492  0.0408
26361W        W45215  14.943   1.151   4.384 -0.2727  0.0343 -0.1412
26362W        W45216   7.475   9.537  13.003  0.2668 -0.1720 -0.0794
26363W        W45217   0.349   2.811   1.352  0.0402  0.2487 -0.1059
26364W        W45218   1.562  13.761  13.202 -0.1715  0.0451  0.0988
26365W        W45219   2.436   7.688  11.938 -0.2299 -0.0853 -0.1435
26366W        W45220  14.487   0.018  14.859 -0.3286 -0.1352  0.0524
26367W        W45221   6.552   1.882   3.628 -0.2602  0.1245 -0.0128
26368W        W45222   1.675  17.362   1.565 -0.1591  0.2603  0.1645
26369W        W45223  12.503   6.409   5.132  0.0276 -0.0503 -0.2531
26370W        W45224  12.028   7.886  17.085 -0.0579 -0.1947 -0.4631
26371W        W45225   6.007  12.532  11.668 -0.0614 -0.1181  0.1920
26372W        W45226   0.176   3.367   0.657  0.0059  0.1452  0.3166
26373W        W45227  14.406  11.189   2.576 -0.1395  0.1747  0.1228
26374W        W45228   4.139  15.670   0.347 -0.1281 -0.1167  0.0951
26375W        W45229   0.843  12.486   2.892  0.2741 -0.2304  0.0601
26376W        W45230  15.217   2.355  16.554  0.0636 -0.2051  0.0270
26377W        W45231   4.687   6.526   4.750  0.0830 -0.1077 -0.1920
26378W        W45232   4.400  13.957   2.233 -0.3094  0.1918  0.0623
26379W        W45233   2.442  16.965  16.814  0.0001 -0.0155 -0.1322
26380W        W45234   4.719   1.485   3.801  0.1593  0.1592  0.0766
26381W        W45235   0.092   2.008  12.137  0.3762 -0.1784  0.1502
26382W        W45236   9.424  10.463   3.217 -0.2483 -0.3383  0.0596
26383W        W45237   4.260  11.427  13.960  0.0229 -0.0577 -0.2120
26384W        W45238  17.119   7.595  14.637 -0.1520  0.0763 -0.0627
26385W        W45239  12.827  14.930  12.527 -0.0851 -0.1776  0.0702
26386W        W45240   8.224   6.534  12.361  0.2467  0.0455  0.0021
26387W        W45241  14.491   0.316  14.369  0.1711 -0.0994 -0.1273
26388W        W45242  15.628  12.550   4.422  0.1558  0.2492  0.5168
26389W        W45243   8.362   4.130  13.188  0.1336  0.2950  0.1368
26390W        W45244   8.658  16.396   2.297 -0.2538  0.3182  0.1448
26391W        W45245  14.725   4.982  14.240  0.2690  0.2000 -0.0622
26392W        W45246   8.597   8.295  11.979  0.1208  0.0842 -0.1342
26393W        W45247  15.234  11.563  14.516  0.0040  0.3136  0.2868
26394W        W45248  16.331   4.911   4.688  0.2355  0.2168 -0.0078
26395W        W45249   1.925  13.269  12.429 -0.0296 -0.0284  0.0857
26396W        W45250  10.675   8.897  14.210  0.0758 -0.0399  0.0662
26397W        W45251   1.961  14.742   4.181 -0.1622  0.0087 -0.0844
26398W        W45252   3.365   5.981  12.791 -0.2065 -0.3346  0.1104
26399W        W45253  15.475  13.439  15.436 -0.3064 -0.0818  0.0937
26400W        W45254  14.706  12.854  12.924 -0.1751  0.0916  0.1883
26401W        W45255   5.701   1.856   3.556 -0.0241 -0.0573  0.1156
26402W        W45256   8.484  12.298  17.203  0.1908  0.0547  0.3593
26403W        W45257  10.965  12.323   4.723  0.1689  0.0201 -0.1612
26404W        W45258  16.011  14.076  16.783 -0.0014 -0.0754 -0.1105
26405W        W45259   4.848   2.019   1.194 -0.0031  0.0320  0.0999
26406W        W45260  10.625   5.915  16.029 -0.2315  0.3138  0.0524
26407W        W45261   0.673   7.276   5.101  0.3486  0.1125 -0.0895
26408W        W45262   6.328   7.956  16.274  0.1182  0.2622  0.0010
26409W        W45263   3.726   9.522   0.915 -0.0395  0.0335 -0.0852
26410W        W45264   8.787  13.951   4.277 -0.0268  0.0892  0.1380
26411W        W45265   4.996   0.264   0.655 -0.1707 -0.2104  0.2496
26412W        W45266   4.373   5.290   2.054 -0.0562  0.0499  0.1901
26413W        W45267   6.632   7.457   0.652  0.2297  0.0895 -0.2310
26414W        W45268   7.316   3.350   4.994  0.0013  0.2240 -0.1341
26415W        W45269   8.759  17.433  13.101  0.2179  0.0457  0.0640
26416W        W45270  17.288   4.691  15.164 -0.2937  0.2366 -0.0662
26417W        W45271  12.980   5.733  16.501  0.0519  0.0174 -0.0928
26418W        W45272  10.886   0.475  17.113 -0.2253 -0.0931 -0.1544
26419W        W45273   5.051  14.542   0.584 -0.1479 -0.2444  0.1376
26420W        W45274   2.441   8.896  12.854 -0.1332 -0.4763 -0.2665
26421W        W45275  15.064   1.658  14.994 -0.1087  0.2629 -0.0719
26422W        W45276   2.755   6.767   5.176  0.0309  0.2200 -0.0379
26423W        W45277   1.267   6.497  15.092  0.1943  0.0341 -0.3930
26424W        W45278  12.857  14.414   2.270  0.3589  0.2021  0.3678
26425W        W45279  15.929  14.467   0.965 -0.1213 -0.3010  0.1191
26426W        W45280   7.441   5.082   2.720 -0.0676 -0.2513  0.0823
26427W        W45281  16.860   7.707   3.380 -0.3490 -0.0471  0.2587
26428W        W45282   9.696  14.911  12.714  0.1800 -0.0438  0.0819
26429W        W45283  16.307   9.286   5.468 -0.0161 -0.1899 -0.1116
26430W        W45284  17.405  11.629   2.264  0.0766 -0.1120  0.1564
26431W        W45285   8.681   6.608   3.879 -0.0543  0.3743  0.1080
26432W        W45286  15.692   6.219   3.432 -0.1784  0.2096  0.0467
26433W        W45287  16.069   5.886  15.498 -0.0877 -0.1025  0.0866
26434W        W45288  13.225   4.179   0.786  0.1433 -0.1706 -0.0913
26435W        W45289   1.554   6.263  11.456  0.0963 -0.2008  0.0515
26436W        W45290   3.870  16.317  14.305 -0.2055  0.3327 -0.1566
26437W        W45291  14.608   9.904   5.201  0.2163 -0.2032 -0.0068
26438W        W45292  13.800   7.554   3.464 -0.0900  0.1861 -0.1860
26439W        W45293  10.075  17.573  12.666 -0.0386  0.0019  0.1491
26440W        W45294  11.885  13.635  13.048 -0.1510  0.1297 -0.1545
26441W        W45295   2.754   5.772   3.886  0.2030  0.0191  0.0577
26442W        W45296   1.584  10.364   6.088  0.1722 -0.4653 -0.0536
26443W        W45297  11.829  14.963   3.704  0.0591  0.1386 -0.2112
26444W        W45298  16.404  12.157  12.061 -0.2783 -0.2821 -0.0200
26445W        W45299   5.756   1.201  12.940  0.1073 -0.2489 -0.1391
26446W        W45300  16.511  15.275   0.730 -0.1064 -0.0213 -0.3812
26447W        W45301   7.800   0.604   4.032 -0.0599  0.1226  0.0317
26448W        W45302   2.933  15.570  16.148 -0.0523 -0.2198  0.3328
26449W        W45303   0.747  11.682  16.134 -0.0364 -0.0124  0.0389
26450W        W45304  12.696   2.717   1.748 -0.1619  0.0211 -0.2993
26451W        W45305  11.393  16.063   3.062  0.3095 -0.0787 -0.1092
26452W        W45306  13.949  13.193   4.432  0.0650  0.0208  0.0972
26453W        W45307   6.278   3.831   1.315  0.0552 -0.1002 -0.0765
26454W        W45308   5.213  11.589  17.130  0.1785 -0.0260 -0.2427
26455W        W45309   8.504   2.808  12.914  0.1143  0.1348  0.0139
26456W        W45310  17.427  14.166  12.725 -0.0341 -0.2346  0.2648
26457W        W45311   0.228  10.022   3.294  0.1221  0.0577  0.1569
26458W        W45312  11.291  11.032  15.475 -0.4022  0.0359  0.2141
26459W        W45313   8.210   7.208   4.157  0.1349 -0.3381 -0.0273
26460W        W45314  12.350   8.821   4.438 -0.3118  0.0670  0.1909
26461W        W45315   5.451  17.536   4.554 -0.3795  0.0742 -0.0150
26462W        W45316   7.377   5.151  13.887 -0.3520 -0.2536  0.1060
26463W        W45317   8.308  13.839  12.288 -0.3065  0.0999  0.1065
26464W        W45318  11.536  16.776  15.607 -0.0854 -0.0015 -0.0501
26465W        W45319  16.014   3.847   4.759 -0.0181 -0.2280 -0.1267
26466W        W45320  10.429   8.647  13.868  0.1015 -0.0599 -0.2354
26467W        W45321   0.412   7.706  16.373  0.0577 -0.0239  0.0266
26468W        W45322  16.008  15.551  17.029 -0.3297 -0.0353  0.2426
26469W        W45323   2.037   8.585   3.585 -0.2094 -0.2916 -0.2131
26470W        W45324  17.374  14.247  12.187  0.0945  0.0745  0.0163
26471W        W45325   4.543  15.030  14.339  0.0984  0.1920 -0.0070
26472W        W45326  16.072   1.016  13.606 -0.1496 -0.0071  0.1539
26473W        W45327  14.237   4.533   3.675  0.0340  0.0571  0.2222
26474W        W45328  16.240  12.694  16.385 -0.0784 -0.0012 -0.2371
26475W        W45329  12.276  10.790  14.397  0.3426 -0.1406 -0.2250
26476W        W45330  17.478  17.230  13.965  0.1182  0.0191 -0.0527
26477W        W45331   8.593   0.779   4.585  0.1717  0.0000  0.0062
26478W        W45332  13.020   0.776   3.639  0.0555 -0.2127  0.0270
26479W        W45333   7.766   4.865  15.798  0.1273 -0.1477  0.0208
26480W        W45334   7.269   4.536   4.300 -0.0796  0.1904  0.0085
26481W        W45335   0.747  10.406   0.696 -0.1173 -0.1037 -0.3738
26482W        W45336   4.147  15.777   1.397  0.0876 -0.0290 -0.2127
26483W        W45337  13.590  13.854  15.367  0.2216  0.2230  0.4205
26484W        W45338   0.519  12.557  16.261 -0.1435 -0.2168  0.1709
26485W        W45339  15.120   9.005  12.995 -0.1346  0.1601  0.2660
26486W        W45340  11.808   8.992   1.917  0.1729  0.0747 -0.1892
26487W        W45341  12.894  13.557   3.073 -0.1168 -0.1250 -0.5722
26488W        W45342  14.227   3.748  16.458  0.1849  0.3266  0.2882
26489W        W45343  15.605  11.079  13.262 -0.0641  0.1368  0.0611
26490W        W45344  10.551   7.039  16.502  0.0298 -0.4520 -0.0807
26491W        W45345   3.093  17.219  13.650  0.0886 -0.0124 -0.1466
26492W        W45346   6.970  10.631   2.429  0.0647 -0.2256 -0.3713
26493W        W45347  12.332  12.925   3.076  0.0753 -0.2370 -0.0174
26494W        W45348   6.655  13.407   0.642  0.0472  0.1343  0.0630
26495W        W45349   8.445   7.600  14.655 -0.0913  0.1000 -0.2153
26496W        W45350  13.779  13.317  13.465 -0.3200  0.3331  0.1457
26497W        W45351   8.374   8.334   1.248 -0.0356 -0.1612  0.1975
26498W        W45352   2.046  12.431   3.249 -0.0467  0.0706  0.1061
26499W        W45353   9.930   1.571   1.466  0.1950 -0.1953 -0.2665
26500W        W45354   5.717  10.700   0.146  0.3270  0.3809  0.0169
26501W        W45355  17.236   8.729  15.777  0.0485 -0.0215 -0.2617
26502W        W45356   6.561  17.088   1.968 -0.2493 -0.0725  0.3149
26503W        W45357  16.746   8.021  14.771  0.0220 -0.1231  0.0925
26504W        W45358  12.651   7.732  12.706 -0.0303  0.1735 -0.0214
26505W        W45359   0.381  13.393   3.967  0.1540 -0.0573 -0.0497
26506W        W45360  13.042   8.896   2.670 -0.0496 -0.0763 -0.1631
26507W        W45361   0.648   3.740  15.483 -0.0433 -0.1197 -0.1439
26508W        W45362  14.830  16.819   3.258 -0.0067  0.0794 -0.1369
26509W        W45363   8.091  15.726   0.299  0.0276 -0.2529 -0.1585
26510W        W45364   0.821   7.459   3.082  0.0017 -0.3355 -0.3799
26511W        W45365   1.802   6.334   1.371  0.0897 -0.0762  0.0878
26512W        W45366   9.623   3.691   1.483  0.1754  0.3590 -0.0573
26513W        W45367   5.699   8.244  17.046 -0.1777 -0.0242 -0.0589
26514W        W45368   5.464   2.516  15.631  0.2791  0.2031  0.1431
26515W        W45369  12.549  15.393   0.041 -0.1004  0.0567 -0.0455
26516W        W45370   1.346   8.005  12.726  0.2403 -0.1557  0.0631
26517W        W45371   4.624  10.728   3.641 -0.1946  0.1720 -0.1027
26518W        W45372  16.365  14.702   1.012 -0.0104 -0.0965  0.1899
26519W        W45373   0.681   6.583   2.169 -0.3570 -0.0408  0.0098
26520W        W45374  16.358   4.276  13.924  0.1171 -0.0999  0.0710
26521W        W45375  11.004   2.631   2.092 -0.0671 -0.3335  0.1037
26522W        W45376  14.333   5.095  11.822  0.1317 -0.1467 -0.0075
26523W        W45377   5.490   7.711  16.885 -0.0054  0.1152  0.2824
26524W        W45378  11.315   1.655  13.977 -0.1375 -0.0359  0.1585
26525W        W45379   5.214   7.766   4.046 -0.0008 -0.1173  0.0688
26526W        W45380   2.296   1.491  17.141 -0.0723 -0.3618 -0.4541
26527W        W45381  13.497  15.140  13.195  0.0977 -0.0535  0.3608
26528W        W45382   8.587   0.774  15.052 -0.1355 -0.1404  0.3531
26529W        W45383  15.423   7.450  14.661  0.0322 -0.0927 -0.2499
26530W        W45384   1.803   5.156   0.528  0.0470 -0.2305  0.0002
26531W        W45385  15.316   9.024  14.741 -0.0628 -0.0147  0.0062
26532W        W45386  11.404   9.995  13.018  0.0131  0.1735 -0.0604
26533W        W45387   7.508   1.369   5.069 -0.0456 -0.1065  0.1100
26534W        W45388   5.247   4.690   1.786 -0.1476  0.0947  0.1998
26535W        W45389   3.235   8.746   5.395  0.1748  0.0976  0.1783
26536W        W45390   2.241   0.490  14.980  0.0495 -0.1975 -0.2862
26537W        W45391   4.434   3.566  15.527 -0.0400 -0.0911  0.3221
26538W        W45392   8.587  10.357   2.219 -0.1729  0.0246 -0.2929
26539W        W45393   5.271  17.582   5.199 -0.1713 -0.4210  0.0276
26540W        W45394  17.378  11.956   1.057  0.0758  0.1079  0.0438
26541W        W45395  16.110  10.155   5.324  0.4644  0.0853  0.6213
26542W        W45396  10.479  16.090  15.289 -0.3234 -0.2253  0.2787
26543W        W45397  10.545   3.315  14.249  0.2548 -0.1328  0.2030
26544W        W45398  17.123  16.888  14.151 -0.1982 -0.2554 -0.3015
26545W        W45399   8.829  12.493   3.012 -0.1855  0.0613  0.1960
26546W        W45400  16.865   0.017  13.316  0.2787  0.0949 -0.1201
26547W        W45401   0.935  15.661   0.168  0.1206  0.3454  0.1044
26548W        W45402   9.073   5.033  14.372 -0.1718 -0.3003  0.0336
26549W        W45403  10.909   5.230   0.504 -0.1068 -0.1935 -0.1194
26550W        W45404   0.517   1.570   0.524  0.1789  0.0408 -0.2215
26551W        W45405   9.493  13.908  15.997  0.2280 -0.0864 -0.0153
26552W        W45406   1.786  14.958  16.767  0.0336 -0.2410  0.2084
26553W        W45407  14.977  11.522  12.547 -0.1377  0.2062 -0.0609
26554W        W45408   9.415  16.185  14.120 -0.2918  0.0517 -0.0633
26555W        W45409  13.336   2.859   4.487  0.0537 -0.1305  0.0703
26556W        W45410  14.087   9.849  16.744  0.1814  0.0767 -0.1689
26557W        W45411  17.591   8.772   0.189 -0.0721  0.1058 -0.1712
26558W        W45412  13.436  12.845   3.613 -0.0037  0.1021 -0.4170
26559W        W45413  11.006  13.664  13.379 -0.0208 -0.2749  0.1328
26560W        W45414   3.350   8.885   4.890  0.0181  0.1358  0.1207
26561W        W45415  17.473  12.402   3.473 -0.1017 -0.1457  0.0425
26562W        W45416   4.667  11.795   0.342 -0.1271  0.2290 -0.0436
26563W        W45417   4.357  12.902   2.292 -0.1711 -0.0726  0.1105
26564W        W45418   1.175  15.489   3.047  0.0196  0.0041  0.0935
26565W        W45419   7.551   2.965   3.952  0.0710  0.1844  0.3948
26566W        W45420   6.451   7.029   2.169  0.2036 -0.0738 -0.1759
26567W        W45421  10.196   9.909   1.885 -0.0446  0.1375  0.0448
26568W        W45422   0.300   9.805  13.528  0.4294 -0.3372  0.0335
26569W        W45423   0.628   9.829   1.550  0.1608  0.1446 -0.2068
26570W        W45424   6.638  15.287   4.220 -0.1270  0.2847  0.0193
26571W        W45425  16.042   2.062   1.935 -0.2435  0.1858 -0.1173
26572W        W45426  13.244   8.905  12.132 -0.2747 -0.0171 -0.1172
26573W        W45427   3.641  15.818   3.367 -0.0405  0.0181  0.0204
26574W        W45428   1.527   8.668   0.571  0.0022 -0.0779 -0.2381
26575W        W45429  15.981   9.397  16.761 -0.2185 -0.1908  0.1620
26576W        W45430   4.423   0.940  14.509 -0.2893  0.1629 -0.2498
26577W        W45431   7.510   9.909   6.174 -0.1695  0.0883 -0.2888
26578W        W45432  11.620  10.174  15.287  0.3663  0.1864 -0.2251
26579W        W45433   3.739   7.013   5.320 -0.0516  0.0954  0.2276
26580W        W45434   3.285   6.509  17.130  0.0963 -0.1441 -0.1065
26581W        W45435  15.915   2.308  13.779  0.0862 -0.1052 -0.2827
26582W        W45436  11.231  11.105  16.826  0.0790 -0.0211  0.0065
26583W        W45437  10.061   2.220   3.689  0.0157  0.2730 -0.1128
26584W        W45438  15.633  10.047   5.534  0.1761  0.4900 -0.0246
26585W        W45439   0.205  15.487  12.990  0.1257 -0.1537  0.1372
26586W        W45440  17.488   9.375  12.775  0.0442  0.0917 -0.2165
26587W        W45441   9.014  11.615   3.485  0.0283  0.4400  0.0150
26588W        W45442   7.214   3.557   0.164  0.0662 -0.2135  0.0561
26589W        W45443  13.202   5.331  13.145  0.2652 -0.1890  0.0270
26590W        W45444   8.933   1.720   3.922 -0.0919 -0.2845 -0.0902
26591W        W45445   6.457  17.599   1.594  0.3219  0.1663  0.0552
26592W        W45446  11.483   1.780  15.589 -0.1912 -0.0131 -0.3334
26593W        W45447   3.960  14.093   3.197  0.2341  0.1579 -0.0740
26594W        W45448  13.148   3.122  17.062 -0.1374  0.1472 -0.0612
26595W        W45449  14.874   0.656  15.946 -0.0977 -0.0665  0.3231
26596W        W45450   9.884   7.053   0.388  0.0697  0.0519 -0.1078
26597W        W45451  11.427  11.179   2.119 -0.1404 -0.3285 -0.0141
26598W        W45452   7.137  10.497   4.058  0.1084 -0.0443 -0.0967
26599W        W45453  10.238   5.606   2.627  0.1679 -0.1614 -0.0719
26600W        W45454   9.312  16.605   1.666  0.1203  0.0414  0.0014
26601W        W45455  15.706  12.891   1.962  0.2261 -0.0154 -0.1684
26602W        W45456  14.319   5.567   3.205 -0.0756  0.3238  0.2262
26603W        W45457  14.185  15.672  15.798 -0.0213  0.1119  0.2132
26604W        W45458  14.589   6.157  17.166 -0.1139 -0.3256 -0.0032
26605W        W45459  16.444   9.056  14.172 -0.2657 -0.0743 -0.2525
26606W        W45460   4.607  16.765  13.886 -0.0896 -0.0107 -0.0030
26607W        W45461   7.627   5.940   1.944  0.0483  0.1290  0.1106
26608W        W45462  10.555  10.500   1.306  0.2660 -0.2242  0.2713
26609W        W45463  15.947  10.881  13.558  0.1430 -0.1001 -0.1729
26610W        W45464   4.629  16.885   0.686  0.0020  0.4395 -0.0844
26611W        W45465   1.489   3.446  12.684  0.1908 -0.1793 -0.1075
26612W        W45466  15.077  13.779  12.373  0.1535 -0.0387 -0.1175
26613W        W45467   7.218  10.110  12.597 -0.1083 -0.1609 -0.0833
26614W        W45468   6.262  16.181   0.339  0.2874  0.2863  0.0175
26615W        W45469   3.189  12.183  15.783  0.0093 -0.1759  0.2065
26616W        W45470  15.373  10.455   4.253  0.2407 -0.1250 -0.1196
26617W        W45471  14.917   2.397   3.711  0.1548  0.2840 -0.4524
26618W        W45472   1.612  13.012  12.797 -0.1586 -0.1076 -0.0009
26619W        W45473  14.304  17.304   0.326  0.3023 -0.2615 -0.0308
26620W        W45474  10.924   2.409  14.752 -0.0826  0.0075  0.0177
26621W        W45475  13.705   1.118  14.780 -0.0484 -0.0659 -0.3086
26622W        W45476   3.500   4.382  11.858 -0.0786 -0.1098  0.1646
26623W        W45477   1.438   3.589  15.151 -0.1130 -0.2115  0.1367
26624W        W45478   2.399   9.152  15.203 -0.1184  0.1029 -0.0914
26625W        W45479  15.555  11.542  11.144  0.0117 -0.0246 -0.4720
26626W        W45480   8.826  17.454  17.056  0.0178 -0.1775 -0.2727
26627W        W45481  10.225   5.042  14.224  0.1593 -0.1829  0.0963
26628W        W45482  14.927   8.672  14.796  0.1839  0.0562 -0.1328
26629W        W45483   3.274   2.354  16.693 -0.1309 -0.0524  0.0975
26630W        W45484  16.187  14.198  15.798 -0.2120  0.1623 -0.0806
26631W        W45485   7.410   7.245   4.302 -0.2623  0.4775 -0.1502
26632W        W45486  17.260  10.724   3.734  0.0584 -0.0609 -0.4614
26633W        W45487  14.920  16.112  15.610 -0.1812 -0.1202  0.2343
26634W        W45488  15.971  10.886   2.686 -0.0360  0.1894  0.3855
26635W        W45489  16.592  16.042   4.227  0.2961  0.3473 -0.0885
26636W        W45490   3.047  11.200  14.950 -0.2314  0.1310  0.0971
26637W        W45491   9.153  15.670   4.550  0.1204  0.1015 -0.1397
26638W        W45492  17.057  10.060  15.971 -0.2619  0.3318 -0.0023
26639W        W45493  12.596   2.372  16.311 -0.3915 -0.0756  0.0178
26640W        W45494  13.712   4.748  15.264  0.1942  0.0306 -0.2897
26641W        W45495  17.454  11.775  15.303  0.0616 -0.1034 -0.1523
26642W        W45496  12.504  17.398  16.965  0.0880  0.1279  0.1582
26643W        W45497   7.390   9.993   5.584  0.0114 -0.3472  0.4241
26644W        W45498   7.379  17.206   4.944 -0.1212  0.1020 -0.0540
26645W        W45499  12.519   5.876   1.213  0.1010  0.4030 -0.2158
26646W        W45500  15.791  16.133   4.848  0.0321  0.1086  0.1626
26647W        W45501   3.792   0.695   1.302 -0.2921 -0.1502  0.1943
26648W        W45502   5.071  16.713   1.062 -0.1260  0.1770  0.2168
26649W        W45503   4.785   2.017  17.155 -0.2203  0.0206  0.1254
26650W        W45504   6.904  16.879   5.006 -0.1697 -0.2861 -0.2833
26651W        W45505   3.537  14.480  14.744  0.4158  0.1302  0.3942
26652W        W45506  10.178   8.631   3.719 -0.1517  0.1697  0.0083
26653W        W45507   5.143   8.960   3.013  0.0228 -0.0241  0.0459
26654W        W45508  12.304  10.324  14.682  0.2764  0.0962  0.0061
26655W        W45509  14.667   9.207  17.058  0.2819  0.0177  0.2666
26656W        W45510  15.478   0.324   2.468  0.0223 -0.1654 -0.0285
26657W        W45511  17.443  14.760  15.224  0.0813 -0.2463  0.3522
26658W        W45512  16.257   9.459   4.784  0.1585 -0.2748  0.3452
26659W        W45513  13.564  13.094  16.889 -0.0307  0.2469 -0.3360
26660W        W45514  15.401   5.069  14.755  0.2788  0.2891  0.0158
26661W        W45515   3.721  14.228   0.851  0.0510  0.0004  0.0079
26662W        W45516   4.884  13.719   1.379 -0.0986  0.0184 -0.2527
26663W        W45517  15.893  13.994  14.750 -0.1429 -0.3369 -0.2245
26664W        W45518   7.128   5.519  15.108 -0.1347 -0.1015  0.2323
26665W        W45519  15.565  15.051   3.111 -0.0126 -0.0305 -0.0616
26666W        W45520  17.542   5.107   4.908 -0.0954  0.1606 -0.0994
26667W        W45521  10.078   9.386   1.818 -0.0727  0.2130  0.2012
26668W        W45522   3.010  15.913  13.300  0.3673  0.3451  0.2160
26669W        W45523  15.419   7.491   2.777  0.1353 -0.1191 -0.0952
26670W        W45524   2.642   4.541  15.349  0.0420  0.0902  0.2895
26671W        W45525   8.478  15.329   3.170 -0.0070  0.0885  0.0359
26672W        W45526   2.859  13.488  13.338  0.0787 -0.0247  0.0945
26673W        W45527  15.137  13.059   0.372 -0.4326  0.2487 -0.1196
26674W        W45528   8.254   5.472  12.075  0.0622  0.1008  0.1156
26675W        W45529   4.565  13.252  12.626  0.2991 -0.0982 -0.1957
26676W        W45530   6.278  16.989  15.865 -0.0393 -0.2645  0.2571
26677W        W45531  12.922  16.878   3.408 -0.0045  0.1737 -0.0176
26678W        W45532   1.683  17.152  14.825 -0.2048  0.2491 -0.0308
26679W        W45533   2.590   0.273  13.302  0.3472 -0.0796  0.4724
26680W        W45534   3.760  13.895  13.488 -0.1607  0.0083 -0.0880
26681W        W45535   7.828   0.472  14.201 -0.1777 -0.0698 -0.1925
26682W        W45536  10.713   1.196  12.324 -0.2925 -0.4292 -0.3904
26683W        W45537   5.415  11.423  16.707 -0.2786 -0.1122  0.0812
26684W        W45538  13.420  11.368   5.524 -0.1907  0.1146  0.0866
26685W        W45539  12.598   7.160   1.654 -0.3715  0.0514 -0.0628
26686W        W45540  13.500  11.889  14.216 -0.0775  0.0993  0.0819
26687W        W45541  15.192  15.531  14.329  0.1216  0.1620 -0.1763
26688W        W45542   6.366  15.171  14.780  0.1494  0.0798 -0.0224
26689W        W45543   3.775  10.721  12.479 -0.2905  0.0356  0.0500
26690W        W45544   1.566   8.187   0.611 -0.4302 -0.0521 -0.0385
26691W        W45545   1.763   5.790  15.007 -0.0997 -0.1694 -0.0916
26692W        W45546  12.317   8.917  14.759 -0.0426  0.0091 -0.0927
26693W        W45547  10.695   2.668   1.076 -0.2100  0.0196 -0.2550
26694W        W45548   7.505  14.929  16.492 -0.0824 -0.1884 -0.0855
26695W        W45549  12.692   6.234  12.394 -0.1020  0.2996  0.2604
26696W        W45550   6.095   8.586  17.152  0.0726  0.2964  0.1329
26697W        W45551  13.168  13.127  14.686  0.1498 -0.0208  0.2473
26698W        W45552  16.638  13.265   0.699  0.1992  0.0334 -0.1254
26699W        W45553   7.182  13.145   5.216  0.1340 -0.3516 -0.0964
26700W        W45554  16.867   9.820  12.095  0.2372 -0.2067  0.1037
26701W        W45555   8.862   9.611   1.953 -0.2066  0.0722 -0.2677
26702W        W45556  15.168  12.334  14.724  0.2155  0.1027 -0.0866
26703W        W45557   7.952   2.563   5.198  0.0872  0.0749  0.1571
26704W        W45558   0.755  15.724   4.277 -0.1954 -0.1708  0.0821
26705W        W45559  10.714  11.307   4.668 -0.0087  0.0632  0.0098
26706W        W45560  16.270   8.773   5.310 -0.0894  0.1156 -0.1036
26707W        W45561  15.890   8.008  15.113 -0.0909  0.2971  0.1763
26708W        W45562   1.953   0.035  14.888 -0.1668 -0.2144 -0.1171
26709W        W45563  17.036  16.385   4.227 -0.2327 -0.0409  0.0573
26710W        W45564  14.215   7.047  14.749 -0.1122  0.2347 -0.2195
26711W        W45565  15.776   2.962  16.915 -0.1320  0.0932  0.0589
26712W        W45566  11.270  15.237   2.489  0.0533  0.1147  0.0061
26713W        W45567   4.360   2.858   3.381 -0.1196  0.0284  0.1527
26714W        W45568   1.810   3.625  13.894 -0.1502 -0.1990 -0.4257
26715W        W45569  15.997  14.550  13.981  0.1776  0.2076  0.1218
26716W        W45570   6.740   0.017  16.938  0.3892 -0.0079 -0.2774
26717W        W45571   9.850   7.758  14.606 -0.1749  0.0284 -0.0582
26718W        W45572  16.711   0.117  14.692 -0.0205 -0.2740 -0.1904
26719W        W45573   0.121  13.871  12.162  0.0260  0.1791  0.3801
26720W        W45574  14.986   2.454  13.643 -0.2338  0.0835  0.0521
26721W        W45575  11.438   3.794   0.144 -0.1391  0.1336 -0.0076
26722W        W45576   2.433  14.604   4.190 -0.1624 -0.4244 -0.0359
26723W        W45577   9.089   9.294   3.966  0.1594  0.1756 -0.4086
26724W        W45578   5.295  16.017  12.392 -0.1329  0.0214  0.3293
26725W        W45579  14.411  11.270  15.073  0.0340  0.1518 -0.0210
26726W        W45580  12.019  13.129   3.468  0.0446 -0.1437 -0.1017
26727W        W45581   9.343   9.996  17.181 -0.0345 -0.1724  0.3892
26728W        W45582   6.422  13.376   4.585 -0.3255 -0.0083  0.0854
26729W        W45583   8.242  14.409   2.368  0.0968  0.0994  0.1698
26730W        W45584   5.640  11.434  14.572  0.0361 -0.0703  0.0937
26731W        W45585   2.986  12.735  15.958  0.0460 -0.0842 -0.0095
26732W        W45586   3.684   3.288  14.301  0.0445 -0.1662  0.0313
26733W        W45587   5.399   4.379   4.701 -0.3257  0.1222  0.1501
26734W        W45588   0.055   7.971   4.142  0.1115  0.1626  0.1804
26735W        W45589   9.163   2.480  15.339  0.2929 -0.1099  0.0087
26736W        W45590   6.560  13.925   3.223  0.0888  0.3398 -0.0139
26737W        W45591  16.448   7.087   2.126 -0.0683 -0.1043  0.0514
26738W        W45592  14.134   0.362  12.282 -0.2048 -0.2266 -0.1596
26739W        W45593  12.977  10.728  16.053  0.1316  0.2374 -0.2654
26740W        W45594  16.708   5.235   3.725  0.1542  0.0425  0.1012
26741W        W45595  13.441   4.174   4.029 -0.0914 -0.2561 -0.0405
26742W        W45596  16.621  12.577   4.975 -0.1731  0.3063 -0.0645
26743W        W45597  14.347   1.587  15.546  0.0903 -0.0306 -0.4258
26744W        W45598  16.703  14.193  14.441 -0.2540  0.0364 -0.1444
26745W        W45599   3.552   9.622  13.969  0.1191  0.0555 -0.1792
26746W        W45600   8.367  11.936   2.368 -0.2078 -0.3276 -0.4768
26747W        W45601  12.575  16.347  16.890  0.1168  0.0969 -0.4104
26748W        W45602   8.173  14.057   3.023  0.2392 -0.0264  0.0532
26749W        W45603   6.668  10.953  12.630  0.0790 -0.0491  0.1513
26750W        W45604   3.766  16.518  15.468 -0.1558  0.0819 -0.1523
26751W        W45605  11.726  16.147   1.012 -0.0318  0.0590 -0.0700
26752W        W45606   0.068  10.743   4.492  0.0496  0.0883 -0.5147
26753W        W45607   7.503  15.220  15.144 -0.1108 -0.2903  0.1854
26754W        W45608   2.610  10.969   2.942 -0.3028  0.3577  0.2270
26755W        W45609  13.749  15.201  16.226  0.1738  0.1564  0.0326
26756W        W45610   1.961   7.131   1.333  0.1699 -0.0710  0.3536
26757W        W45611   4.826   6.099   2.164  0.0251  0.0425 -0.0611
26758W        W45612  11.738   5.186  14.845 -0.2507 -0.1091  0.0202
26759W        W45613   3.653   3.497   1.403 -0.0967  0.0740  0.1307
26760W        W45614   4.145  12.718   3.153 -0.1077 -0.2375 -0.0845
26761W        W45615   6.328   2.467   4.406  0.2033 -0.2374 -0.1453
26762W        W45616   6.120  17.319  14.007  0.0425  0.0833  0.1524
26763W        W45617  13.131  17.079  15.783  0.0443 -0.1935  0.1821
26764W        W45618   5.395   6.685  14.987 -0.0766 -0.3234 -0.1256
26765W        W45619  16.687  11.736   4.991  0.1720  0.1877 -0.0346
26766W        W45620   2.449   7.177  16.168  0.0740  0.0807  0.1072
26767W        W45621   9.163  17.263   5.995  0.2604 -0.3061 -0.1306
26768W        W45622   0.628  11.110  12.640 -0.2178 -0.0628  0.1315
26769W        W45623  17.542   6.829  13.365  0.0107  0.1247  0.3915
26770W        W45624   8.817  14.118   5.631  0.3934 -0.1265  0.0367
26771W        W45625   8.926   3.122  14.579 -0.1278 -0.1902  0.0461
26772W        W45626  15.380   9.077  14.135 -0.1649 -0.0045  0.3364
26773W        W45627   1.907  16.932  17.083 -0.1365 -0.1688 -0.1328
26774W        W45628   9.110  11.330  13.343  0.3747 -0.1603  0.0968
26775W        W45629   1.517  13.768  16.778  0.3217 -0.0645  0.0248
26776W        W45630  14.383  12.026   4.914 -0.0796 -0.1348 -0.2281
26777W        W45631   5.732  11.757   1.818  0.2981  0.2268 -0.0648
26778W        W45632   6.056   4.711  13.905  0.2163  0.0400  0.0635
26779W        W45633  11.277  14.594  16.675  0.0020 -0.0253 -0.2974
26780W        W45634   9.165  15.129   0.699 -0.0521 -0.1254  0.2034
26781W        W45635   1.043  17.227  15.255  0.2354 -0.1499  0.1441
26782W        W45636   2.327   1.042  15.182 -0.0541  0.1521  0.2123
26783W        W45637  16.908   2.794  15.294 -0.3020 -0.0022  0.1556
26784W        W45638  15.652   8.335   4.372  0.1619 -0.1690  0.0567
26785W        W45639   7.458  12.812  12.705  0.3484 -0.1944 -0.0785
26786W        W45640  10.988   2.285   3.817  0.0858  0.2748  0.0917
26787W        W45641   5.491  10.694  12.649  0.1779 -0.0899  0.2437
26788W        W45642   2.465  15.796   4.956 -0.0648 -0.1419  0.2524
26789W        W45643  13.944  17.325  14.110  0.0460  0.0778  0.0537
26790W        W45644   4.160   4.745  17.083 -0.0909 -0.1069 -0.2643
26791W        W45645  13.085  17.232  13.277 -0.0946  0.0205  0.0201
26792W        W45646   9.064  15.681  12.852  0.1084 -0.0256 -0.0702
26793W        W45647  10.414   3.152  12.846  0.2844 -0.0135 -0.0724
26794W        W45648   7.437   0.496   2.868 -0.3128 -0.0327  0.0988
26795W        W45649   3.135  12.204   3.278 -0.0698 -0.0736  0.4006
26796W        W45650  16.952   3.506  13.087 -0.2226 -0.0258  0.1318
26797W        W45651   2.909  12.299  14.816 -0.0015 -0.0362 -0.4089
26798W        W45652  10.772   3.170   2.835 -0.0089  0.1556  0.2014
26799W        W45653   0.526  14.874   2.591 -0.2311 -0.0778 -0.0777
26800W        W45654   2.238   5.373   0.462 -0.0036  0.4408  0.1674
26801W        W45655  13.037   6.658   5.336 -0.0514 -0.1915 -0.0972
26802W        W45656  17.357  12.144  14.898 -0.1863  0.4482 -0.0311
26803W        W45657   6.957  13.873   4.034  0.0761  0.2538  0.1414
26804W        W45658   0.424  15.367  13.523  0.4207 -0.1609  0.0535
26805W        W45659   8.597   1.175   3.994 -0.0097 -0.2828 -0.1803
26806W        W45660   8.189  13.503  14.147 -0.0496 -0.1128 -0.0292
26807W        W45661   5.228   5.548  16.777  0.0906 -0.0868 -0.0676
26808W        W45662  12.726   0.689   2.705 -0.0409 -0.1489 -0.0528
26809W        W45663  14.978  11.759  12.969  0.0970 -0.2003  0.2283
26810W        W45664  10.376   6.586  12.820 -0.0165 -0.1456 -0.0587
26811W        W45665   9.821  14.674   0.122 -0.1064 -0.1462 -0.2075
26812W        W45666  14.960  17.482  13.022 -0.0642 -0.1087 -0.1306
26813W        W45667  16.329  17.021  15.692 -0.4301  0.0448 -0.1961
26814W        W45668   0.297  11.866  13.719 -0.0046  0.2962  0.2627
26815W        W45669   4.134  17.099   1.500 -0.0068  0.1188  0.0497
26816W        W45670   2.179  12.142   0.879  0.1345 -0.0134 -0.0771
26817W        W45671   5.091   9.905  17.195 -0.2763 -0.0404  0.0393
26818W        W45672   0.477   2.834  15.368  0.2656  0.2536  0.0330
26819W        W45673   6.307   7.711  14.628 -0.0429 -0.0278  0.0201
26820W        W45674   1.718   0.202   1.991  0.0173  0.2840  0.0514
26821W        W45675   0.269   6.337   5.381  0.2363 -0.0730 -0.0922
26822W        W45676   3.096   9.217   1.127  0.1201 -0.2685  0.4550
26823W        W45677   0.076   5.556   3.909  0.3008  0.1833  0.1001
26824W        W45678  12.687   7.131   3.130  0.0639  0.2969 -0.1117
26825W        W45679  10.537   8.613  12.548 -0.1613 -0.1171 -0.0259
26826W        W45680  13.113  14.059   2.642 -0.2183  0.3520  0.0074
26827W        W45681  11.000  16.472   3.128 -0.0738 -0.0719  0.0780
26828W        W45682  11.295   3.821   3.615 -0.1277  0.1190 -0.1111
26829W        W45683   5.491   0.747   4.659 -0.2338  0.2238 -0.0839
26830W        W45684  12.396  13.356  16.572  0.0749 -0.1334 -0.2359
26831W        W45685   8.135   8.445  14.591 -0.0134  0.0096 -0.0410
26832W        W45686   4.355  17.080   5.145  0.0728 -0.1741  0.0986
26833W        W45687   0.024  16.620   2.747  0.1292  0.1362  0.0960
26834W        W45688  10.402   2.579  15.385 -0.2821  0.1023  0.1574
26835W        W45689   5.150   7.279   4.189 -0.0823  0.2629  0.0886
26836W        W45690  16.152   8.975  11.695 -0.1585  0.1676 -0.0001
26837W        W45691   0.812   5.420   3.862 -0.0392 -0.0464 -0.1528
26838W        W45692   2.937   4.115   0.194  0.1963  0.1390 -0.1745
26839W        W45693   0.681  17.262   0.119  0.0069 -0.2223 -0.1877
26840W        W45694   4.741   5.075   1.206  0.2290  0.0055 -0.3613
26841W        W45695   3.686  17.532   0.710 -0.0255  0.2647 -0.1345
26842W        W45696   2.136  11.837  11.978  0.3170 -0.1351 -0.1250
26843W        W45697   1.936  13.116  16.063  0.0861  0.1240  0.0034
26844W        W45698   5.754  10.027   2.748 -0.0608 -0.2715  0.3967
26845W        W45699  11.714  12.134  16.108 -0.2399 -0.3997  0.0220
26846W        W45700  16.052   3.774  14.595 -0.0012 -0.1824 -0.2909
26847W        W45701   5.152  16.930  16.608 -0.3209 -0.3183  0.1957
26848W        W45702   0.955   1.596   0.770  0.0298 -0.0386  0.2955
26849W        W45703   5.880   9.347   0.105  0.0230  0.2961  0.4290
26850W        W45704   9.215  14.022   0.777  0.2042  0.1452 -0.2117
26851W        W45705   9.915  10.910   4.350 -0.0787  0.0050  0.2135
26852W        W45706   5.494  10.026   4.388 -0.1754  0.1040 -0.2728
26853W        W45707  10.696   2.637   2.489  0.1795  0.1590  0.1370
26854W        W45708   2.950   7.369  14.509  0.0398 -0.3690 -0.0457
26855W        W45709  16.192  11.754   0.023  0.0592 -0.0985  0.1460
26856W        W45710  16.561   4.240  17.198  0.3313 -0.0646 -0.5639
26857W        W45711  13.850  14.333   2.407  0.0770 -0.1744 -0.3631
26858W        W45712  12.840  16.690  13.995  0.0232  0.1887  0.2594
26859W        W45713  10.444  11.978   1.574  0.0446  0.0837 -0.0658
26860W        W45714  12.818   0.654   0.214 -0.0217  0.1043 -0.1768
26861W        W45715   5.275  12.681  12.243  0.6714  0.0469  0.1039
26862W        W45716  13.150  11.219  16.193 -0.1622  0.1720  0.0802
26863W        W45717   2.857   4.085  12.446  0.0602 -0.1743  0.2464
26864W        W45718  17.449  16.573  16.306  0.2612  0.1493 -0.0829
26865W        W45719   8.199   8.566  16.243 -0.0386  0.0959  0.2136
26866W        W45720  11.878   0.162   1.767 -0.0612  0.2659  0.0814
26867W        W45721  12.404   1.410  12.945 -0.1177  0.2987  0.2246
26868W        W45722   7.166  13.346  14.938 -0.1797 -0.1734  0.1503
26869W        W45723   0.751  15.862   4.992  0.1004  0.2549  0.0064
26870W        W45724   7.321  12.041  13.026 -0.3636  0.2518  0.1142
26871W        W45725  14.281   1.291  12.227  0.0992 -0.1072  0.2584
26872W        W45726   9.014   5.802   1.007 -0.2915 -0.3178  0.0349
26873W        W45727  14.159   6.583  14.415  0.1272 -0.0954  0.2574
26874W        W45728  13.542   7.773   4.663  0.0228  0.0760 -0.1054
26875W        W45729   3.210  13.990   1.642 -0.1571 -0.2253  0.2993
26876W        W45730  12.292   3.776  17.219  0.0344  0.2359 -0.4041
26877W        W45731   6.113  14.262   3.920  0.1280 -0.0954 -0.3417
26878W        W45732  12.623  12.550   4.039 -0.1909  0.1770 -0.2439
26879W        W45733   6.654   0.928   2.881 -0.0885 -0.0244  0.1199
26880W        W45734  10.235   3.379  15.546 -0.0847 -0.2076  0.0837
26881W        W45735   7.199  11.446  16.183 -0.1344 -0.0831  0.0185
26882W        W45736   8.019   8.003  15.188 -0.0465 -0.1092 -0.2270
26883W        W45737  16.591  13.985  13.084  0.0571 -0.1323  0.0004
26884W        W45738  11.412  16.491   0.965  0.1387 -0.0781  0.0100
26885W        W45739   1.658  13.300   5.273 -0.0781 -0.0396  0.3038
26886W        W45740   0.006   3.931   0.384  0.0506  0.0501  0.1305
26887W        W45741  11.797  15.939   4.460 -0.1259 -0.2409  0.1062
26888W        W45742  12.203  16.064  16.697 -0.0173 -0.2086  0.0230
26889W        W45743   4.123  11.727   2.713 -0.1908  0.1471 -0.1460
26890W        W45744   5.130  16.305  15.472  0.3999 -0.0760 -0.0362
26891W        W45745  10.790  14.110  15.254  0.1297  0.0669 -0.0126
26892W        W45746  14.343   3.355   4.809  0.0790 -0.1332 -0.1355
26893W        W45747   6.197  12.099   3.696  0.1481 -0.3782  0.1753
26894W        W45748   9.344  13.257   2.472 -0.0463  0.0753  0.0737
26895W        W45749   8.980  16.440   3.544 -0.4109  0.0142 -0.1806
26896W        W45750   4.268  12.459  14.216 -0.1605  0.2222 -0.0398
26897W        W45751   5.727   4.297  14.646  0.1800  0.1710 -0.1020
26898W        W45752   7.349   4.295   4.823 -0.0261  0.2381  0.1655
26899W        W45753   9.178   9.656   5.354 -0.2531 -0.0049 -0.2192
26900W        W45754   6.743  11.695   1.207 -0.1945 -0.0498 -0.1316
26901W        W45755   7.610  15.880   1.883  0.0683  0.0110 -0.2309
26902W        W45756  11.079   2.671  13.311  0.2422  0.0933 -0.4651
26903W        W45757   9.556   9.898  13.558  0.0743 -0.2592 -0.0287
26904W        W45758   6.175   2.282   3.494  0.0252 -0.0522 -0.0721
26905W        W45759   6.703  12.309  16.050  0.1931 -0.2367  0.1680
26906W        W45760  12.956  14.747   2.620 -0.0021 -0.0550 -0.3786
26907W        W45761   3.024  11.276  15.798 -0.1260 -0.0259  0.0526
26908W        W45762   8.230  14.548   0.898 -0.1552  0.1378  0.1034
26909W        W45763  14.639   3.003   1.360 -0.2000  0.2317  0.3075
26910W        W45764  12.158   9.835  13.502 -0.0406 -0.0572  0.2534
26911W        W45765  11.496  13.469   4.063 -0.0983 -0.0759 -0.0719
26912W        W45766   5.101  13.628   0.158  0.2011  0.2156  0.0333
26913W        W45767  12.433   5.734  16.695 -0.0727  0.0729  0.0778
26914W        W45768   5.288   4.637   2.267  0.0388  0.3542 -0.2252
26915W        W45769   7.733   7.033   1.662 -0.0153 -0.0984 -0.1272
26916W        W45770  14.385   8.366  12.479  0.2072  0.1770 -0.0758
26917W        W45771  15.791   5.167   1.516  0.2122  0.1103 -0.2419
26918W        W45772  11.448  13.574  14.843  0.1579 -0.0092  0.1524
26919W        W45773   1.108  17.082  13.430  0.0978  0.1858  0.1012
26920W        W45774   2.703   3.590  16.951 -0.0034  0.0287 -0.2058
26921W        W45775   8.748   9.616   0.894  0.2615  0.0553  0.2155
26922W        W45776  10.505  14.766   2.597 -0.1083 -0.0662  0.2340
26923W        W45777  16.130   3.726  15.330 -0.0229  0.0949 -0.1452
26924W        W45778   8.833   1.166  16.914 -0.0564 -0.2251  0.2611
26925W        W45779  17.038   6.312  12.000  0.0355 -0.1226  0.1723
26926W        W45780   8.574  15.896  14.695  0.0783  0.1081  0.0769
26927W        W45781  10.905  12.794   1.599  0.1100  0.1022 -0.0712
26928W        W45782   9.909  13.678   0.316  0.1955  0.0180 -0.0515
26929W        W45783   9.408  12.229  11.842 -0.1612  0.0432 -0.1617
26930W        W45784   2.404   2.777   4.115  0.0895  0.0738  0.0836
26931W        W45785  12.416   5.123   2.082  0.0869 -0.0145 -0.0299
26932W        W45786   7.535   2.916  14.397 -0.0104  0.0494 -0.0490
26933W        W45787  13.766  14.064  14.929  0.3783 -0.1077 -0.0862
26934W        W45788  13.864   1.371   2.390 -0.1865  0.0868  0.0779
26935W        W45789   8.248   8.781   3.335  0.2421 -0.0287  0.0925
26936W        W45790   4.898  16.665  14.465 -0.0727  0.1400 -0.1581
26937W        W45791  11.000  16.405   0.265  0.0985  0.1571 -0.1320
26938W        W45792   8.351   3.266  12.682 -0.1247  0.0538  0.1183
26939W        W45793  12.306   1.237   3.654  0.0873  0.3857  0.0615
26940W        W45794   9.729  13.251   0.419  0.1250  0.2196 -0.0581
26941W        W45795  10.907   0.874   3.403 -0.1030  0.2253 -0.1566
26942W        W45796   7.992  14.761  12.693 -0.0844  0.0372 -0.0035
26943W        W45797  10.347   0.427   4.124  0.0731 -0.0167  0.1142
26944W        W45798  13.933   3.401  16.717 -0.0277  0.0615 -0.1195
26945W        W45799   8.247   0.949  15.999 -0.3285 -0.2035  0.0459
26946W        W45800  12.833  16.627   0.794  0.0182  0.3444 -0.4195
26947W        W45801  12.709  12.236  14.421  0.1480  0.2050  0.2948
26948W        W45802   3.795  12.277  12.600  0.1218  0.2256 -0.0900
26949W        W45803  14.906  16.720  16.692 -0.0692 -0.2532 -0.0920
26950W        W45804   7.884  11.315   2.860  0.3799 -0.0372 -0.0579
26951W        W45805   7.392  16.310  13.105  0.3985 -0.2650  0.2053
26952W        W45806   0.859   6.011  13.872 -0.1805 -0.4528  0.1444
26953W        W45807   9.400  10.726  12.254  0.1293  0.1411  0.0454
26954W        W45808  12.541  15.434  15.408 -0.3540  0.0182  0.1011
26955W        W45809   0.410  10.569  13.521 -0.0035  0.2078 -0.1317
26956W        W45810   5.079   8.213   0.909 -0.2577  0.0201 -0.1090
26957W        W45811   6.525   1.514   4.715  0.2786 -0.2258  0.0016
26958W        W45812  17.126   9.048   5.693 -0.2463  0.2249 -0.3668
26959W        W45813  13.034   0.219   5.061  0.1074 -0.2178 -0.0432
26960W        W45814  10.168   0.833  14.927  0.2023 -0.2120  0.1511
26961W        W45815   0.437   3.900   3.847  0.0495 -0.0158 -0.0582
26962W        W45816  13.704  14.956   0.289 -0.0603 -0.3147  0.0148
26963W        W45817  12.117   4.393   0.955 -0.0826 -0.0040 -0.1647
26964W        W45818   0.594   5.234  16.930 -0.1793 -0.2003  0.1037
26965W        W45819  13.266  16.922  13.598  0.5064  0.3084 -0.0517
26966W        W45820   9.439  12.202   0.985 -0.3389 -0.1815  0.0591
26967W        W45821   2.526   7.509  16.532 -0.2324  0.0477 -0.2449
26968W        W45822  16.432  15.245   1.233  0.1232  0.4331 -0.0010
26969W        W45823   2.942  13.213  12.206 -0.0213  0.1142 -0.0192
26970W        W45824   2.700   6.419  13.983  0.0924  0.0015  0.1700
26971W        W45825  13.583  11.092  13.129  0.1674  0.2090  0.5386
26972W        W45826  14.112  14.739  16.239 -0.1251  0.0871  0.0180
26973W        W45827  15.333   8.881  16.550 -0.0046  0.1257  0.0793
26974W        W45828  10.654   4.259   2.225 -0.2513  0.0064 -0.1816
26975W        W45829   2.444   9.563   3.485 -0.1243  0.0290 -0.0551
26976W        W45830   1.652   7.180  15.526 -0.2866  0.1817 -0.0871
26977W        W45831  15.108  12.050   1.639  0.0047  0.0383  0.1165
26978W        W45832   5.823  10.984  16.587  0.0971 -0.1810 -0.2905
26979W        W45833   0.965  12.895   3.277 -0.1755  0.2466  0.0142
26980W        W45834   8.464   8.798  12.816  0.3135 -0.0342 -0.1193
26981W        W45835   0.808  13.680   4.431  0.2803  0.0181 -0.2102
26982W        W45836   2.424  13.603   5.221  0.2950 -0.1762  0.0247
26983W        W45837   4.489   1.896   3.923 -0.0188  0.2667  0.0500
26984W        W45838   5.048   3.424   2.574 -0.2167  0.1493  0.2500
26985W        W45839   5.627   5.994   5.352  0.1877 -0.2814  0.0405
26986W        W45840   5.496  12.250  15.030  0.1299  0.1507 -0.1250
26987W        W45841   5.547  10.063   1.875 -0.1082 -0.2585 -0.0847
26988W        W45842   7.039   9.137  12.854  0.1905  0.0230  0.1663
26989W        W45843  13.544  11.159   3.004 -0.2882 -0.0673 -0.2404
26990W        W45844   6.524   4.293   3.464 -0.2362 -0.0008 -0.1175
26991W        W45845  16.564   8.234  16.299  0.0001  0.1233 -0.1537
26992W        W45846   1.269  13.826   4.592 -0.2690 -0.0411  0.0413
26993W        W45847  15.519   5.737  13.976  0.0950  0.2713  0.2094
26994W        W45848   3.373   8.714  12.767 -0.0666 -0.0973  0.0317
26995W        W45849  17.217   5.839  14.268  0.2887  0.3672  0.0389
26996W        W45850   1.887  12.794   0.294 -0.0910 -0.2169 -0.0951
26997W        W45851   2.484  13.942   3.420  0.1263  0.2382 -0.1316
26998W        W45852   4.205   2.273   4.322 -0.1210  0.0721 -0.5393
26999W        W45853   0.356  10.533   4.915 -0.3178 -0.0542 -0.0633
27000W        W45854  13.762   7.351   4.313 -0.0399 -0.1841 -0.1940
27001W        W45855  15.502  10.032   3.272 -0.0666  0.0420 -0.1752
27002W        W45856  10.364   7.022   0.123  0.1836  0.2248 -0.1194
27003W        W45857   5.888   3.458   4.404  0.0344 -0.1196 -0.0815
27004W        W45858   0.223   4.626   4.026 -0.3760  0.0748  0.1837
27005W        W45859   5.283   4.528  13.068  0.2631 -0.3962 -0.4775
27006W        W45860  10.621   7.332  16.107 -0.0335 -0.0254 -0.1009
27007W        W45861  12.185  10.921   1.046  0.1062  0.2367 -0.3756
27008W        W45862   3.757   9.481  17.030 -0.0170  0.0334 -0.2126
27009W        W45863  16.940  11.423  14.205 -0.2758 -0.3837 -0.2337
27010W        W45864  11.663   4.432   0.681  0.1458  0.1049 -0.1257
27011W        W45865   7.647   7.680  15.013  0.2426 -0.0590 -0.0075
27012W        W45866   3.233   9.719  15.886  0.0823  0.0688  0.1285
27013W        W45867  15.384   0.225  12.951  0.1023  0.2252  0.1361
27014W        W45868  14.326  15.940  11.817 -0.2825  0.0675 -0.0287
27015W        W45869   6.620  14.781  12.438 -0.0115  0.0577  0.0443
27016W        W45870  17.284   2.083  16.670 -0.1161 -0.0811  0.1753
27017W        W45871   6.670  14.902  16.345 -0.0994  0.1685  0.0468
27018W        W45872  13.940  10.464  16.056  0.0452 -0.0369 -0.0856
27019W        W45873   9.950  14.084   2.012  0.0174 -0.2661  0.0197
27020W        W45874  12.124   2.302  12.876 -0.0851 -0.0534 -0.1750
27021W        W45875  16.411  15.725   2.771 -0.2727 -0.2419 -0.2143
27022W        W45876   3.208  14.190  15.124  0.1080 -0.0111 -0.0909
27023W        W45877   9.611   8.823  15.498 -0.0869  0.1275 -0.2324
27024W        W45878   5.009  14.192  12.772  0.0908  0.0457 -0.1471
27025W        W45879   1.366  16.562  12.515 -0.1293  0.2444 -0.0485
27026W        W45880  16.157  10.443   2.507  0.1795 -0.1576 -0.2288
27027W        W45881   6.919   4.356   0.148  0.1161 -0.1626  0.2798
27028W        W45882   9.787   4.230  17.121 -0.0619  0.1852 -0.3036
27029W        W45883  13.283   4.960  16.588 -0.0656  0.0903 -0.1060
27030W        W45884   7.033  16.770   2.375 -0.0144 -0.2416  0.1258
27031W        W45885  10.526   0.376  16.078  0.2184 -0.0955 -0.0730
27032W        W45886   2.220   6.126  13.961  0.0268 -0.1386  0.2295
27033W        W45887  12.951  11.481   4.817 -0.1789  0.1991 -0.0086
27034W        W45888  13.659   2.199   2.168  0.0384  0.0239 -0.1219
27035W        W45889   1.180   6.926   5.233  0.1141 -0.0341 -0.1080
27036W        W45890  14.227   5.447  15.335 -0.0680  0.4987  0.1716
27037W        W45891   0.153  13.050   1.972 -0.0091  0.3607  0.2738
27038W        W45892  16.152  14.520  12.471 -0.1744  0.1782  0.2260
27039W        W45893  16.070   9.371   4.367  0.0634 -0.1517  0.4718
27040W        W45894  14.901   4.115   1.797 -0.1248 -0.0516  0.1291
27041W        W45895   0.700   1.187  14.244 -0.1824 -0.3118 -0.0075
27042W        W45896   1.296  12.593  12.381  0.0738 -0.0635 -0.1654
27043W        W45897   6.340  12.024  15.271  0.1812 -0.0752 -0.1112
27044W        W45898  15.429   2.319  13.915 -0.3413  0.0927 -0.2156
27045W        W45899  14.422  14.768   2.763 -0.0237  0.4539  0.0457
27046W        W45900   9.555  10.896   3.952  0.0601 -0.0732  0.0784
27047W        W45901   8.002  15.782   3.258 -0.0523 -0.1814  0.2704
27048W        W45902  15.690   0.394   0.298  0.3998  0.0458 -0.1621
27049W        W45903  14.999   6.425  16.940 -0.0678 -0.1371  0.1593
27050W        W45904   9.595   0.322   1.758 -0.0503 -0.0765  0.0975
27051W        W45905   4.338  12.435  17.035 -0.1433 -0.0796 -0.1437
27052W        W45906   8.387   1.997   1.440 -0.3906  0.0464 -0.2184
27053W        W45907   3.173   4.586  13.986  0.1538 -0.1276 -0.1716
27054W        W45908   9.328  16.954   2.824  0.1454 -0.0494  0.2481
27055W        W45909  15.276  14.829  16.471 -0.1153 -0.1029 -0.1390
27056W        W45910  11.439  15.699   1.122 -0.3336  0.3103 -0.1071
27057W        W45911  11.554   7.434   4.427  0.0684 -0.0967  0.1675
27058W        W45912   8.027   3.042  16.520  0.1092  0.0050 -0.2548
27059W        W45913  17.444  13.784   1.309 -0.1065 -0.1025  0.1463
27060W        W45914   1.879   2.874  14.172  0.0950 -0.1728 -0.0845
27061W        W45915   6.968  11.469   2.548  0.0013  0.1843  0.2533
27062W        W45916  14.346  14.554   2.326  0.2809 -0.0979  0.0968
27063W        W45917   2.686   0.745  14.140  0.3907  0.1733  0.1465
27064W        W45918  15.806   9.658   3.693  0.2230 -0.0054 -0.0784
27065W        W45919   7.588   1.727   3.280  0.2903  0.0131 -0.2434
27066W        W45920  15.289   4.845   2.459 -0.1101 -0.0978  0.2862
27067W        W45921  14.662   0.886   2.114 -0.1898 -0.1068 -0.3279
27068W        W45922   1.623   9.982   4.992 -0.1936  0.1964  0.4633
27069W        W45923   1.276   3.726  14.209  0.1747 -0.0606  0.3150
27070W        W45924   1.465  10.975  14.202  0.0370  0.1624 -0.3067
27071W        W45925   5.442   3.019  15.891 -0.4139 -0.0977 -0.0399
27072W        W45926  14.845   5.873  14.016  0.0900 -0.0229  0.2056
27073W        W45927   3.329   1.375   0.222 -0.0279  0.3490  0.2551
27074W        W45928  10.359   9.083   2.116 -0.4357 -0.0212 -0.1404
27075W        W45929  11.193   3.205   0.593 -0.2232  0.1808 -0.0382
27076W        W45930  15.723   7.710   1.318  0.0355 -0.4018 -0.2303
27077W        W45931   2.168   8.774   1.491 -0.0240 -0.1549  0.1663
27078W        W45932   9.311   8.867  14.069 -0.0794 -0.1263 -0.2675
27079W        W45933  12.597   2.630   2.954 -0.1679 -0.3507  0.1054
27080W        W45934   7.106  15.579  15.229 -0.2344  0.3343  0.1988
27081W        W45935  15.642  16.494   0.654  0.0129  0.2030  0.2833
27082W        W45936   3.304   7.185   4.594  0.0663 -0.3237  0.1816
27083W        W45937  12.555   5.182   3.142 -0.2486  0.0877 -0.2026
27084W        W45938   6.161  17.090  14.787 -0.1652 -0.0092 -0.0977
27085W        W45939   9.796  12.963   1.392 -0.2062 -0.1278  0.1774
27086W        W45940  14.409  11.930   1.112  0.0965 -0.1885  0.0894
27087W        W45941   2.058  10.085  13.484 -0.0560 -0.0993  0.3721
27088W        W45942   8.500  17.124   3.378  0.2370 -0.3327 -0.0122
27089W        W45943  11.492   7.710  13.095  0.3592 -0.0960 -0.2082
27090W        W45944   8.835  15.033   2.019 -0.2869  0.1320 -0.0031
27091W        W45945   2.303  11.698   2.619  0.1162 -0.0426  0.0299
27092W        W45946   4.457  11.035  14.223 -0.1727 -0.1546  0.1797
27093W        W45947   0.621  13.867   2.408 -0.1286 -0.0999 -0.1577
27094W        W45948  11.103   5.136  12.355  0.1577 -0.0542  0.0176
27095W        W45949  12.025  10.573   1.919 -0.3904 -0.0184  0.4630
27096W        W45950  11.528  15.596  12.117 -0.1579  0.0401  0.0022
27097W        W45951  11.121   3.159  13.413  0.1667 -0.0731 -0.3639
27098W        W45952   9.266   5.026   3.477  0.1835 -0.2336 -0.1594
27099W        W45953   0.741  16.877   3.110  0.2363  0.1183 -0.0410
27100W        W45954   6.865  16.856  14.117 -0.1147 -0.3602 -0.0115
27101W        W45955   0.725   8.327   3.648  0.2689  0.2274 -0.0742
27102W        W45956   3.830   8.678   2.607  0.0624  0.2023  0.2607
27103W        W45957   4.036  15.230   0.217 -0.1208  0.2353 -0.2684
27104W        W45958  12.725   2.108  15.544 -0.0396 -0.0450  0.1574
27105W        W45959  11.173  11.069  12.989 -0.1432  0.2951 -0.2966
27106W        W45960  14.290   4.570   4.225 -0.2831 -0.0949 -0.0500
27107W        W45961  15.190  14.720   3.299  0.1597  0.1914  0.1216
27108W        W45962   5.923   7.865  15.079 -0.0331  0.0682 -0.0810
27109W        W45963   5.768   1.478   3.957 -0.0599  0.4995  0.3066
27110W        W45964   5.720  17.363   3.166 -0.1797  0.0771  0.2005
27111W        W45965  10.136   5.412  15.405 -0.0743  0.0758  0.1756
27112W        W45966   4.216  12.819   1.736  0.4517  0.0873  0.1665
27113W        W45967  13.402   4.962  13.416 -0.2032 -0.0504 -0.1280
27114W        W45968   2.270  15.436   4.011 -0.0954 -0.2794  0.0463
27115W        W45969  14.862   9.646  12.782  0.0991 -0.0983  0.2339
27116W        W45970   6.069   8.821   2.123  0.2929 -0.0715 -0.1092
27117W        W45971   6.999   6.319  12.418 -0.0161  0.0801  0.1842
27118W        W45972   2.984   1.412  12.786  0.1222 -0.0074  0.2181
27119W        W45973   8.023  12.780   4.354 -0.3821 -0.2892  0.2163
27120W        W45974  11.773   5.236  16.469  0.1164  0.4327  0.1566
27121W        W45975   1.048   5.247  12.209  0.0299 -0.0853 -0.1576
27122W        W45976   3.234  10.066   1.959 -0.0418 -0.1543  0.4484
27123W        W45977  15.717  13.991   3.837  0.2365  0.1749  0.0262
27124W        W45978   6.536  10.164  15.466  0.0487 -0.0311  0.2996
27125W        W45979  11.194   5.314  14.594  0.0616 -0.1108 -0.0089
27126W        W45980  11.765   8.988  13.489 -0.1114 -0.3985  0.1002
27127W        W45981  12.660   7.222   2.631  0.1605  0.0417 -0.0936
27128W        W45982  11.123  17.520  14.150  0.1379  0.0002 -0.0005
27129W        W45983  14.482  11.656  17.068 -0.0089  0.1788  0.0767
27130W        W45984   1.595  12.992  17.088  0.1486  0.1260  0.1203
27131W        W45985  16.899  10.676   4.091  0.0824 -0.0585  0.1706
27132W        W45986  13.309   7.016  13.859  0.0146  0.0607 -0.0139
27133W        W45987   7.598  14.322   0.190  0.2634 -0.1004  0.2443
27134W        W45988  17.179   0.325   4.051 -0.0181 -0.0434 -0.2415
27135W        W45989  16.582   0.275  15.146 -0.1414  0.2642  0.1824
27136W        W45990   1.242   2.339  12.726  0.2459 -0.0419 -0.0167
27137W        W45991   5.663   0.706  12.647  0.1983  0.4535 -0.3098
27138W        W45992  13.580  11.284   1.961  0.0858  0.2598 -0.1749
27139W        W45993  14.373   5.753  14.930 -0.3254 -0.3965  0.1525
27140W        W45994  12.441  13.767   3.198 -0.1784 -0.0471 -0.1038
27141W        W45995  16.129   5.073   3.220 -0.0285 -0.0911 -0.1837
27142W        W45996   3.627   7.612   1.856  0.0632 -0.0734 -0.1977
27143W        W45997  10.532   1.341  12.770  0.0391 -0.0980 -0.1230
27144W        W45998  11.848   2.894   4.293 -0.0111 -0.0300 -0.1953
27145W        W45999  14.745   3.493  16.322 -0.1401 -0.3588  0.2020
27146W        W46000   4.343  12.864   4.110 -0.1288  0.0806 -0.1319
27147W        W46001  11.965   8.589  13.799  0.2182  0.0649 -0.2357
27148W        W46002   6.747   2.741  16.271  0.0168 -0.0116 -0.2144
27149W        W46003  14.603  14.746  13.354 -0.1212 -0.0286 -0.4682
27150W        W46004  13.471   1.922  16.215 -0.1424 -0.0202 -0.0733
27151W        W46005   3.072   6.230   3.299  0.2811  0.0132 -0.0043
27152W        W46006  17.434  15.598   2.357 -0.0054 -0.2090  0.0413
27153W        W46007  10.300  14.270  14.023  0.5499  0.1443  0.1635
27154W        W46008  12.593   3.299   2.789 -0.1358  0.1543 -0.1189
27155W        W46009  15.018   2.703   1.613 -0.1790  0.0152  0.0498
27156W        W46010   3.608   7.515   3.488  0.3562 -0.1377  0.1816
27157W        W46011   3.022  11.786  15.531  0.0345 -0.1928  0.2118
27158W        W46012  14.394   7.680  13.212  0.2417  0.0590 -0.3936
27159W        W46013  13.831  17.025  16.219  0.0831 -0.1175  0.2043
27160W        W46014   1.477  12.991   4.521 -0.2394  0.1138  0.3522
27161W        W46015   8.250   7.852   4.047 -0.0521  0.3090  0.2572
27162W        W46016  15.654  11.187  13.810 -0.0465 -0.2120  0.0326
27163W        W46017   2.046   8.376   0.576  0.0356 -0.0968  0.1055
27164W        W46018  16.543   6.893  12.836 -0.0067 -0.0256 -0.1812
27165W        W46019  11.928   1.135  14.912 -0.0142  0.1593 -0.0832
27166W        W46020   1.105  15.864  16.975  0.2596 -0.1344  0.0703
27167W        W46021   8.219   2.134  16.495 -0.1448 -0.0923 -0.1360
27168W        W46022  10.092  10.321   2.513  0.1712 -0.0801 -0.1964
27169W        W46023  15.874   9.082   5.514 -0.0318  0.0194  0.0418
27170W        W46024  15.613   7.115  12.834 -0.1260  0.1768  0.3181
27171W        W46025   2.441   4.594  17.177 -0.1005  0.0496 -0.2978
27172W        W46026   8.142   9.127   1.445 -0.3606  0.3403  0.1800
27173W        W46027  15.414  12.552  14.060 -0.3155 -0.2220  0.0314
27174W        W46028  13.397   1.707  15.229  0.1477  0.2723  0.1449
27175W        W46029  13.313   2.312  16.490  0.1062  0.3743  0.2099
27176W        W46030   1.947   2.785   2.895 -0.4577  0.0684 -0.0667
27177W        W46031  12.961   9.771  14.215  0.2587 -0.2274 -0.0484
27178W        W46032   9.257   9.745   4.829 -0.1128 -0.0437  0.2807
27179W        W46033  16.789   2.080  16.511  0.0779  0.1704 -0.1897
27180W        W46034  10.745   7.395   1.406 -0.1096 -0.0412  0.1069
27181W        W46035   9.812  11.736  16.347 -0.3004 -0.2712  0.3044
27182W        W46036   3.605   2.747  16.461 -0.3420 -0.1432 -0.1319
27183W        W46037  15.570   6.786   4.680  0.2079  0.1068  0.1481
27184W        W46038   5.187   7.216   5.205 -0.1712 -0.1224 -0.0604
27185W        W46039   0.979  17.247   3.403 -0.1675  0.0363 -0.1222
27186W        W46040  10.752  11.576  16.062 -0.0340  0.2413 -0.0552
27187W        W46041  12.691   2.405  14.691  0.2988 -0.0571  0.1676
27188W        W46042   1.650   1.840  15.762 -0.0777 -0.0977 -0.0912
27189W        W46043  12.753   1.229   3.065  0.1195 -0.1124 -0.1582
27190W        W46044  14.159  10.411  13.369  0.0531  0.3822 -0.1350
27191W        W46045  14.041   2.491   3.853  0.1054 -0.0868  0.0992
27192W        W46046   6.759   4.793   2.703  0.0469  0.1495 -0.0012
27193W        W46047   0.323   9.328  13.736  0.1428  0.0740  0.0552
27194W        W46048  10.580   1.314   4.664 -0.1376 -0.0828  0.3504
27195W        W46049  13.493  15.190   4.694  0.2829 -0.2912  0.1654
27196W        W46050  14.360   6.807   3.269 -0.0419  0.2734  0.0776
27197W        W46051   1.071   0.804  16.244  0.2265  0.0366  0.2662
27198W        W46052   6.147   9.605  14.308  0.2241 -0.5156 -0.2483
27199W        W46053   9.494  12.318  15.002  0.0280 -0.1274 -0.2305
27200W        W46054   2.339   9.217   0.123  0.0937  0.1471  0.1027
27201W        W46055  12.598   8.365  12.768  0.1044 -0.2016  0.1067
27202W        W46056   0.492  12.591   1.231 -0.0446  0.1584 -0.1415
27203W        W46057   6.753   5.648   0.341 -0.1203  0.1135  0.1447
27204W        W46058   3.173   4.452  12.215 -0.1196 -0.0644 -0.1016
27205W        W46059   4.793   3.593   0.247  0.3403 -0.4639 -0.1910
27206W        W46060  12.355  11.677   1.233  0.3695  0.2186 -0.2175
27207W        W46061  12.256  17.359  12.946 -0.0087  0.0503 -0.0741
27208W        W46062   2.177  14.976   1.140 -0.2143 -0.2197 -0.2901
27209W        W46063   8.764   6.124   2.112 -0.1604  0.1858  0.0513
27210W        W46064   8.686   4.731   0.055  0.3498 -0.1112  0.0347
27211W        W46065   2.219  16.012   2.909  0.0742  0.0587 -0.1233
27212W        W46066   3.034  12.870   1.651 -0.0486 -0.1756  0.4540
27213W        W46067   4.571   7.335   5.343  0.3054  0.1837 -0.0134
27214W        W46068  11.751  10.706   4.335  0.1314  0.1972  0.2088
27215W        W46069  15.066  16.211  14.602 -0.2688  0.1087  0.1711
27216W        W46070   5.444   7.997  15.740 -0.2751  0.1561 -0.0802
27217W        W46071  15.504   4.254  11.971 -0.0908 -0.0597 -0.1523
27218W        W46072   7.662   4.056  14.952  0.3367 -0.2238  0.1681
27219W        W46073  17.496   3.528  15.821 -0.1913  0.2132  0.0555
27220W        W46074   5.176   0.154   3.195 -0.0197  0.1881 -0.0412
27221W        W46075   3.418   5.894  16.308  0.2950 -0.2875  0.0980
27222W        W46076  15.300  11.338  12.929  0.2339  0.1931 -0.0064
27223W        W46077  11.082   3.400  14.164 -0.0781  0.0720  0.1747
27224W        W46078   0.437  17.093  14.038 -0.2103  0.1295  0.0645
27225W        W46079  13.027   5.816   1.238  0.3834 -0.0603  0.1617
27226W        W46080  11.033  13.576   0.979 -0.0335  0.1933  0.4060
27227W        W46081   6.592   3.178  14.544  0.1157 -0.1196 -0.2497
27228W        W46082  12.658  15.497   2.510 -0.0423  0.2501  0.0785
27229W        W46083   7.671  16.289  16.706  0.2489  0.1153 -0.0503
27230W        W46084  12.395   3.254  16.523  0.0175 -0.0959  0.1938
27231W        W46085   0.538   4.925  15.309 -0.6517 -0.2804  0.2661
27232W        W46086   9.806  11.870  13.695 -0.2380 -0.1311  0.1360
27233W        W46087  16.454   9.068  15.799 -0.2185 -0.1289  0.0549
27234W        W46088   9.303  14.067   4.402 -0.1297 -0.0410 -0.3446
27235W        W46089   6.623  12.501  13.670  0.0091  0.3035 -0.0082
27236W        W46090   0.304   6.352   4.773 -0.0410  0.0975 -0.3399
27237W        W46091  14.834   6.502   0.221 -0.0387 -0.0298  0.0046
27238W        W46092  16.343  17.480   2.184  0.1992  0.2246  0.0143
27239W        W46093  13.578  10.686   1.432  0.1010 -0.4133  0.0192
27240W        W46094  10.159   3.863  16.962  0.0206  0.1029  0.0255
27241W        W46095   7.908   8.594   0.531  0.0456  0.1794  0.3188
27242W        W46096  16.739   4.843  15.237 -0.0643 -0.1848 -0.2220
27243W        W46097  15.523   8.776   0.810  0.1589  0.0746  0.1202
27244W        W46098  13.655  13.397  16.267 -0.3157  0.1304  0.1008
27245W        W46099   9.261  17.078   0.910 -0.3894 -0.4819 -0.3788
27246W        W46100  15.322   3.880   3.583 -0.1330  0.3012  0.4511
27247W        W46101   7.375   4.515   5.305 -0.1024  0.2891  0.1196
27248W        W46102   7.992  14.668   5.136  0.0921  0.0383  0.0836
27249W        W46103  12.013   3.152   1.752  0.3716 -0.1611 -0.3832
27250W        W46104   6.351   2.866   1.754  0.1660 -0.0851 -0.0119
27251W        W46105   2.842  10.094   0.679  0.1180 -0.1325  0.3906
27252W        W46106   6.904  11.590  15.146  0.1804  0.1201 -0.0663
27253W        W46107   9.761   7.700  15.587  0.0575 -0.1802  0.2527
27254W        W46108  15.368   9.290  12.005  0.3254  0.0048 -0.1026
27255W        W46109   2.503  16.800  11.584 -0.1469 -0.0447  0.1653
27256W        W46110   6.925   5.656  12.494 -0.2141 -0.0317 -0.2388
27257W        W46111  11.848  13.953   3.429 -0.0437 -0.3013 -0.0658
27258W        W46112   8.564   5.624   4.788 -0.0464 -0.0697  0.0301
27259W        W46113   9.717  10.574  13.561 -0.1971  0.0071  0.1137
27260W        W46114   9.665  16.682   3.019  0.1835 -0.1551  0.0443
27261W        W46115  15.552   0.906   0.344  0.1605 -0.5305 -0.3179
27262W        W46116  11.111   6.979   3.632 -0.0116 -0.1612 -0.2054
27263W        W46117  13.691   0.197  15.182  0.1403 -0.0023 -0.2188
27264W        W46118  10.113   2.664  14.302  0.3392  0.3627 -0.0653
27265W        W46119  16.794  13.585  17.151 -0.0398 -0.0657  0.0956
27266W        W46120  11.090   7.127  16.443  0.1847  0.1315 -0.0784
27267W        W46121   5.009   4.711   0.993  0.1388 -0.1099  0.1552
27268W        W46122  15.626  12.593   3.476  0.3827  0.2095 -0.1116
27269W        W46123  11.112   9.555   1.629 -0.0193 -0.1075 -0.1981
27270W        W46124  11.445   3.983   0.864  0.0216 -0.4360  0.1078
27271W        W46125   0.230   4.570  15.235 -0.3099 -0.1488 -0.0738
27272W        W46126  12.438   6.032   3.649 -0.1523 -0.1658 -0.0281
27273W        W46127   5.699  10.578   1.411  0.0315  0.0073  0.1021
27274W        W46128   5.236  16.134   0.974  0.0777  0.4284 -0.1707
27275W        W46129  12.641   1.350  16.336  0.0007 -0.0450 -0.1009
27276W        W46130  12.659  10.948  15.715  0.0627 -0.0823  0.3223
27277W        W46131  10.703   1.968  14.289 -0.1396  0.0270 -0.0741
27278W        W46132   6.181   4.144  12.035 -0.1804  0.1802  0.0060
27279W        W46133   2.059  13.801  13.179 -0.0502 -0.1691  0.1303
27280W        W46134   9.924  10.382  16.163 -0.1494 -0.1718 -0.1693
27281W        W46135   0.864  10.236  14.631  0.0715  0.0469  0.0569
27282W        W46136  11.735   8.341   2.628 -0.0737 -0.0705 -0.0151
27283W        W46137   2.870   3.427  12.078 -0.2650  0.0443  0.0725
27284W        W46138  12.236   5.265  14.726  0.0763  0.0261 -0.1526
27285W        W46139   2.097   4.005   0.651  0.0444 -0.0798  0.2252
27286W        W46140   1.542  11.779  16.327  0.2003  0.3501 -0.2480
27287W        W46141   3.250   2.324   4.277  0.0854  0.0666  0.0855
27288W        W46142   1.692  17.376   0.453 -0.1560  0.0670 -0.3573
27289W        W46143  11.315  15.808   2.476  0.2432 -0.2768 -0.2734
27290W        W46144  11.516  13.970  15.738  0.1372 -0.1384 -0.0145
27291W        W46145   3.858  15.084  13.738 -0.0657  0.3161 -0.1956
27292W        W46146   1.155  13.710   3.852  0.1913 -0.2543  0.4137
27293W        W46147   0.421  13.732  15.949  0.1072 -0.4054 -0.0931
27294W        W46148   2.046   8.674  13.570  0.0099 -0.0829  0.0801
27295W        W46149  15.198   5.221  12.735  0.1699  0.1065  0.2107
27296W        W46150  15.241   0.705  13.489 -0.0046 -0.2153  0.0017
27297W        W46151  11.495   0.962   4.237  0.2356  0.1966  0.0618
27298W        W46152  11.440   1.501   3.148  0.0107  0.0377 -0.1982
27299W        W46153   0.928   3.103   2.259 -0.0124 -0.0352 -0.0726
27300W        W46154   0.406  15.467   2.458 -0.2431 -0.2526 -0.3186
27301W        W46155  15.263  11.868   2.619  0.1679 -0.0796  0.0965
27302W        W46156   1.145   1.430  17.132 -0.2045 -0.0840 -0.3199
27303W        W46157  17.028  14.939  14.414 -0.1406 -0.1528 -0.1374
27304W        W46158  11.991   5.434   3.181  0.3037 -0.1121 -0.1378
27305W        W46159   4.747  16.856   1.702  0.0813  0.0794  0.1450
27306W        W46160   6.326   5.982  14.757  0.1088  0.2194 -0.0135
27307W        W46161   8.406   8.068  16.160 -0.2656  0.0186  0.1393
27308W        W46162   5.610   6.047   0.315  0.0885 -0.3848  0.0150
27309W        W46163  13.618   8.280   2.346 -0.1230  0.1960  0.0540
27310W        W46164   2.474   9.482   5.040  0.1676  0.0651 -0.3834
27311W        W46165   3.491  14.478   0.435 -0.0045  0.1089  0.2090
27312W        W46166   7.509  15.208   2.082 -0.2513 -0.1014  0.2807
27313W        W46167  12.789   3.008   5.151 -0.1715 -0.0494 -0.1603
27314W        W46168   8.107   9.871  16.260  0.2456  0.0065  0.3266
27315W        W46169  14.197   4.903  15.255  0.2762  0.2674  0.0711
27316W        W46170  16.271   6.221   4.763 -0.1997  0.1283 -0.0681
27317W        W46171  17.021  10.511   1.941  0.0337 -0.0219  0.0719
27318W        W46172   8.930   3.938   2.269  0.1408  0.0704 -0.2976
27319W        W46173   6.725  15.796  16.968  0.2101 -0.2972  0.2317
27320W        W46174   8.402  11.403  14.806 -0.1686 -0.2373 -0.1015
27321W        W46175  15.517  12.101   1.293 -0.0326  0.0381  0.2307
27322W        W46176   0.629   0.983  16.506 -0.0939 -0.2881 -0.1352
27323W        W46177   5.803  16.072   3.295 -0.1161 -0.2816 -0.2931
27324W        W46178  13.763  14.618   1.423 -0.1227  0.1046  0.2597
27325W        W46179   8.840   5.897  16.307  0.1833 -0.1694  0.0970
27326W        W46180  14.653  14.919   0.840 -0.0130 -0.2213  0.0467
27327W        W46181  14.363   6.992  14.252 -0.0092  0.1678  0.0300
27328W        W46182  17.016   8.577   2.295 -0.3272  0.0428  0.1097
27329W        W46183  15.092   9.090  13.584 -0.1711 -0.2622  0.1488
27330W        W46184   8.245   4.269  14.786  0.0775 -0.2449  0.0294
27331W        W46185   4.501  10.752  16.285  0.0709  0.1612 -0.3218
27332W        W46186  17.157  11.660   4.258 -0.1837  0.2860  0.1791
27333W        W46187  12.844  13.929  15.179  0.0687 -0.1405  0.1450
27334W        W46188  12.522   2.515   4.905  0.0264 -0.1935 -0.0890
27335W        W46189  14.179  17.502  14.506  0.2622  0.1303  0.1061
27336W        W46190   7.390  11.945   3.798  0.1325  0.1277  0.4023
27337W        W46191  10.064   1.549   5.269 -0.1502 -0.0824 -0.2865
27338W        W46192   4.395  13.327   2.945 -0.4936  0.1093  0.3411
27339W        W46193   0.192   8.172   4.562  0.1932 -0.0908 -0.0175
27340W        W46194   5.881  15.466  13.580 -0.2152 -0.0865  0.0643
27341W        W46195  10.991   0.082  12.505 -0.1200 -0.1144  0.1634
27342W        W46196   9.473  10.936  16.766  0.0735 -0.0685 -0.1560
27343W        W46197  12.306  16.619  13.042  0.2536  0.3464  0.2918
27344W        W46198  13.367   9.174   1.968  0.6424 -0.0197 -0.1083
27345W        W46199   3.710   5.611   4.774 -0.0923  0.0082 -0.0560
27346W        W46200  11.769  13.115  13.132  0.1294  0.1824  0.1978
27347W        W46201   7.807   9.122   3.779 -0.2629 -0.1351 -0.1997
27348W        W46202   5.440   7.854   4.701  0.2632  0.1432  0.0920
27349W        W46203   6.824  13.436  16.730 -0.0895  0.0698  0.2535
27350W        W46204  13.145  12.731   2.643 -0.0288  0.0587 -0.2071
27351W        W46205  12.497   7.768  13.486  0.0408 -0.1669  0.2127
27352W        W46206  11.798  16.729  12.112 -0.0453  0.3358 -0.0362
27353W        W46207   8.832  11.287  12.259 -0.3455 -0.2109  0.0608
27354W        W46208   4.541   6.239  15.194 -0.3490 -0.0803  0.2281
27355W        W46209   4.015   0.900  15.902 -0.0753  0.2293 -0.0027
27356W        W46210  14.752  13.708  16.049 -0.1355 -0.3202  0.3477
27357W        W46211  12.377  17.515   4.316 -0.0318  0.1931  0.0128
27358W        W46212   2.689   1.295   0.797 -0.1888  0.0448  0.0092
27359W        W46213  11.890   2.804  12.004  0.1660  0.1556 -0.2080
27360W        W46214   2.909  12.596  12.830  0.2108  0.2783  0.3296
27361W        W46215   6.067   5.532   1.887  0.1722  0.0088  0.0143
27362W        W46216   9.339  14.939  12.371 -0.2333  0.0926  0.3185
27363W        W46217   8.090   1.436  15.912  0.0081 -0.0250 -0.1096
27364W        W46218  15.647   9.261   6.312 -0.0029  0.1141  0.3000
27365W        W46219  13.050   4.608   5.289 -0.2468 -0.0450 -0.1228
27366W        W46220   3.243   3.348   3.710  0.0670 -0.2114  0.2118
27367W        W46221  11.618  14.737  15.749 -0.1542 -0.0521  0.0248
27368W        W46222   6.820   2.279   4.438  0.1332 -0.1142 -0.3130
27369W        W46223  11.606   4.267   2.177 -0.0672  0.0940 -0.0525
27370W        W46224  11.480   7.965  15.097 -0.1890  0.4304  0.0612
27371W        W46225  16.809   9.576  16.897  0.3547  0.2334  0.1395
27372W        W46226  17.107   8.345  15.023  0.3743 -0.1944  0.1401
27373W        W46227  17.291  10.942   4.243 -0.2708  0.4393 -0.0055
27374W        W46228   1.177  11.004   4.500 -0.1890  0.1379 -0.4605
27375W        W46229   7.149  13.706   2.450  0.0754  0.1197  0.0397
27376W        W46230   1.448   9.540  13.023 -0.0381  0.0071 -0.3812
27377W        W46231   5.259   5.432  13.928 -0.0086 -0.2270 -0.1519
27378W        W46232   6.365  16.748   4.946 -0.3549  0.1182  0.1232
27379W        W46233   0.926  10.507   2.940 -0.1577 -0.1140  0.3205
27380W        W46234   3.793   9.950   0.288 -0.2387  0.0816  0.1080
27381W        W46235   6.968   8.430   0.448  0.1132 -0.0073  0.0427
27382W        W46236   4.705  12.495  16.614  0.1233 -0.0902 -0.0903
27383W        W46237   8.988   4.740   1.657  0.0732  0.0047  0.1344
27384W        W46238   0.017   9.114   2.068 -0.1496  0.3467  0.3305
27385W        W46239   3.931   1.316   0.556  0.1296 -0.1036  0.2396
27386W        W46240  12.507   6.210  16.408 -0.0418  0.0781 -0.2614
27387W        W46241   0.358   0.194   2.201  0.0327 -0.1344 -0.0257
27388W        W46242   2.125  15.725  16.326  0.3138 -0.3233  0.1400
27389W        W46243  14.261  10.146   3.624  0.0973  0.1004 -0.0645
27390W        W46244   8.361  14.713  14.376 -0.2362 -0.0702 -0.3010
27391W        W46245  12.968   0.843   1.935 -0.0640  0.0885 -0.4652
27392W        W46246  12.249   7.373   2.913  0.0435  0.0967 -0.1399
27393W        W46247  12.687  16.312   0.335 -0.1509  0.2068  0.2772
27394W        W46248   8.719  12.775   1.874  0.0947 -0.1161 -0.4231
27395W        W46249  13.413  16.176  12.256 -0.1361  0.1377  0.0821
27396W        W46250   6.335  13.812   3.724  0.2743  0.3901  0.0523
27397W        W46251  16.556   2.175   2.791  0.4459 -0.1264 -0.1288
27398W        W46252  13.753   3.315  12.050 -0.1392 -0.2926  0.0985
27399W        W46253   7.040  14.837   2.255  0.0868 -0.0815  0.0741
27400W        W46254  16.875   4.494   4.478  0.0477 -0.0160 -0.0812
27401W        W46255   5.432  16.101   1.884 -0.2533 -0.0156  0.0379
27402W        W46256  11.604   3.358   1.916  0.0654  0.2803  0.0082
27403W        W46257  12.500   6.900  16.183  0.0766  0.4352 -0.0714
27404W        W46258  15.081   0.755   4.154 -0.3949  0.1296 -0.0465
27405W        W46259  15.293  10.844  16.239 -0.2495 -0.0553  0.0822
27406W        W46260  12.098   0.076   5.250 -0.0288 -0.3942  0.1173
27407W        W46261   8.565  15.615   0.166 -0.1329 -0.2057 -0.1976
27408W        W46262   3.983   8.819   3.584 -0.5215 -0.0951  0.1111
27409W        W46263  13.634  17.187  15.143  0.1890  0.3012  0.1865
27410W        W46264   7.333  12.828   1.939 -0.0159 -0.0040  0.0079
27411W        W46265  15.801  17.205  16.355 -0.2599  0.1507 -0.0576
27412W        W46266   1.164   8.966   5.242  0.2085 -0.1791 -0.0697
27413W        W46267  10.891  12.843  13.238  0.1378  0.1063 -0.1994
27414W        W46268  17.415  15.460   5.555  0.3561 -0.0343  0.1325
27415W        W46269   2.211   0.122  13.634  0.1110 -0.0041 -0.0699
27416W        W46270   4.653   2.505   4.833  0.1372 -0.3214 -0.0159
27417W        W46271   5.272   1.058  14.863 -0.1548 -0.1270  0.0741
27418W        W46272  13.772   4.539   5.209  0.0386  0.2967  0.1754
27419W        W46273  11.462  17.116   5.245  0.1757 -0.1135 -0.1288
27420W        W46274  12.917   0.164   1.500  0.5281 -0.1187  0.4386
27421W        W46275   6.404   5.242   1.599 -0.0238  0.1104 -0.0578
27422W        W46276  11.228  15.170   0.337 -0.1568 -0.1414 -0.0002
27423W        W46277   9.930   5.287  13.199  0.0638 -0.1964  0.2408
27424W        W46278  12.193  13.563   3.561  0.2782 -0.4082  0.0678
27425W        W46279  17.239   7.291   4.821 -0.1658 -0.2863 -0.2721
27426W        W46280   5.365  17.380  14.351  0.1715  0.1296  0.3717
27427W        W46281   5.855   6.164  16.679  0.0736 -0.0669 -0.2631
27428W        W46282  14.168   9.151  12.127  0.0375  0.0053  0.1477
27429W        W46283   7.900  11.982   4.632 -0.1076  0.0938 -0.0588
27430W        W46284  12.385   2.227   3.192  0.3893  0.0977  0.0418
27431W        W46285   3.243   7.363  15.836  0.0069 -0.0846  0.0630
27432W        W46286  13.405   6.878  15.849 -0.1532 -0.0896  0.1611
27433W        W46287  17.504  13.668  14.482 -0.1062  0.3681  0.4089
27434W        W46288  15.559   9.572   4.148  0.7030  0.0785  0.1059
27435W        W46289   3.122   7.430   3.311 -0.1742 -0.2089 -0.2302
27436W        W46290   3.175  16.886   2.686  0.0370  0.2144  0.1927
27437W        W46291   5.103  10.614  15.622 -0.0624 -0.2120  0.1377
27438W        W46292   3.983   9.720   2.564  0.1609  0.1072 -0.0599
27439W        W46293   6.792  11.284   4.071  0.1881  0.0895  0.1778
27440W        W46294  17.185   3.253  15.445  0.0849  0.0704 -0.1141
27441W        W46295   5.535  16.744   4.191 -0.1586  0.1045  0.0414
27442W        W46296  16.054   2.711   1.113 -0.1825 -0.4363  0.0736
27443W        W46297  17.267   8.189   2.843  0.0820 -0.0326  0.1451
27444W        W46298   1.969   0.498   1.187 -0.1775 -0.0912 -0.3071
27445W        W46299  15.269   4.343  17.181 -0.1304  0.0188 -0.1490
27446W        W46300  16.786  14.417  12.154 -0.2278 -0.1658 -0.1398
27447W        W46301   1.845   0.197  15.998  0.1099 -0.2226  0.3386
27448W        W46302  10.520   4.188  15.094  0.1987  0.0416 -0.2412
27449W        W46303   4.456   5.193   4.374  0.3794  0.1275  0.1272
27450W        W46304   3.549   0.849  15.042  0.2902 -0.0308 -0.1148
27451W        W46305   0.892  15.311  16.869 -0.1186 -0.1311 -0.1045
27452W        W46306  16.117   2.573  12.274  0.0716  0.2418 -0.0507
27453W        W46307  16.691  17.240  15.940 -0.2272  0.0747 -0.2695
27454W        W46308   0.608  11.700   4.203  0.1335 -0.0851  0.2622
27455W        W46309   1.643   3.838  13.046 -0.0947 -0.1247 -0.1524
27456W        W46310   7.362  11.411   3.648  0.3064  0.0219  0.1042
27457W        W46311   4.283   5.883  16.965 -0.3844  0.3261 -0.0566
27458W        W46312   9.973   9.949   0.701 -0.0831  0.1638  0.0126
27459W        W46313   5.089  16.583   3.919 -0.0458 -0.2567 -0.0839
27460W        W46314   2.971   3.442  15.967  0.0321 -0.1268 -0.0001
27461W        W46315   2.431   2.480  15.987 -0.2828  0.0050  0.3027
27462W        W46316   0.877   0.771   1.465  0.1583 -0.0898 -0.0386
27463W        W46317  16.051  14.606  15.404 -0.0302  0.0119  0.1453
27464W        W46318   8.410  16.764  12.478  0.1802  0.0980  0.2062
27465W        W46319   4.427   1.966  13.756 -0.1714 -0.2564 -0.0435
27466W        W46320   3.510  13.520   0.283 -0.0505 -0.2851 -0.1079
27467W        W46321   5.565  12.273   1.915 -0.2303 -0.0753 -0.2832
27468W        W46322   4.934  13.863   2.373  0.3519 -0.3011  0.0277
27469W        W46323   4.392  13.435  12.224 -0.1461  0.1864  0.0925
27470W        W46324   8.664   5.475   0.264  0.0356 -0.0500 -0.1818
27471W        W46325   1.934  14.910  13.386 -0.1651 -0.4094 -0.1536
27472W        W46326   9.884   7.636  16.126  0.0922 -0.0854  0.1295
27473W        W46327   1.986   9.171  13.791 -0.0349  0.2458 -0.0485
27474W        W46328   9.404   5.251  13.419  0.2226  0.1028  0.2764
27475W        W46329   5.927   3.194   1.783 -0.0532  0.1709 -0.1128
27476W        W46330  14.389   4.562  16.296 -0.1031 -0.0317  0.0242
27477W        W46331   8.850  13.638   4.745 -0.0577  0.2518 -0.1321
27478W        W46332   0.446   6.517  12.989  0.4032 -0.2730 -0.1476
27479W        W46333  12.436  12.629  16.809 -0.4593  0.3720  0.1855
27480W        W46334   4.367   8.708  12.429 -0.1058 -0.2979  0.1695
27481W        W46335  13.952   5.684   1.614 -0.1927 -0.1557 -0.3219
27482W        W46336   9.733  11.634  14.402  0.2892  0.2781  0.0031
27483W        W46337  17.017   4.259  11.886  0.3513 -0.2074  0.0572
27484W        W46338   6.824   7.174  15.156 -0.0971 -0.2282 -0.0909
27485W        W46339   7.324  15.617   0.480 -0.3878 -0.2298  0.0420
27486W        W46340   1.663   0.548  16.427 -0.2556 -0.1660  0.1949
27487W        W46341  17.258  10.089  13.960 -0.1504 -0.2405 -0.3829
27488W        W46342  16.766   5.719   3.851 -0.2015 -0.0524  0.0749
27489W        W46343  11.925   8.852   0.922  0.0760  0.3002  0.5869
27490W        W46344  14.163   1.103   4.918  0.0846  0.0743  0.0806
27491W        W46345   4.958  17.304   3.231 -0.2678  0.0613 -0.0237
27492W        W46346  12.180   4.106  13.486 -0.2258 -0.0228 -0.1308
27493W        W46347  11.538   3.388  15.558  0.2208  0.0437  0.0818
27494W        W46348  17.236   3.880  16.588  0.2951 -0.4403 -0.1022
27495W        W46349  14.264  16.506  12.085 -0.0075 -0.1523 -0.0734
27496W        W46350   3.099   7.731  14.864 -0.1808  0.0304 -0.0084
27497W        W46351  11.936   0.187  15.575  0.0226  0.0330 -0.0679
27498W        W46352  17.140   9.296   4.554  0.1776  0.2997 -0.0335
27499W        W46353   3.885   1.330  14.352  0.0982  0.1200 -0.4162
27500W        W46354   5.608   5.283   3.974  0.0547  0.1394 -0.2939
27501W        W46355  14.939  17.129   4.136  0.1285  0.1025 -0.1456
27502W        W46356  16.770   9.389  14.937  0.0999  0.0558 -0.0884
27503W        W46357   8.257   8.576  17.064 -0.0461  0.1576  0.1894
27504W        W46358   5.423  10.725   4.725 -0.0313  0.0319  0.3257
27505W        W46359  17.465  16.232  14.923  0.3200 -0.2427 -0.0311
27506W        W46360   6.086   8.669  14.043 -0.3356 -0.1604  0.1221
27507W        W46361  11.661   6.289  15.465 -0.1541 -0.1048 -0.4181
27508W        W46362  14.452   4.865  15.842 -0.2909 -0.1907  0.0543
27509W        W46363  10.490   6.748  16.976 -0.0473  0.1159  0.1032
27510W        W46364   2.279  14.662   0.796  0.1428  0.1269 -0.3712
27511W        W46365   0.688   7.095  12.156 -0.0947 -0.2507 -0.1660
27512W        W46366   3.360  13.269  15.338  0.0611  0.0603 -0.2673
27513W        W46367  14.715   1.420   0.260  0.2246  0.1712 -0.1870
27514W        W46368   4.186   8.345  11.454 -0.0610 -0.2679 -0.0938
27515W        W46369   1.049   1.779   4.761  0.1191  0.0095  0.3813
27516W        W46370   5.939   7.830  16.619  0.1059  0.0777  0.2511
27517W        W46371  12.836   6.781  14.559 -0.1830 -0.1190 -0.1696
27518W        W46372   7.213   8.974   4.101 -0.1362  0.0617 -0.0608
27519W        W46373  11.994   4.795   1.267 -0.1801  0.2029 -0.3169
27520W        W46374   0.419   9.049   1.575  0.1177  0.6073 -0.1147
27521W        W46375   6.728   3.022  15.479 -0.1444 -0.1350 -0.0219
27522W        W46376   9.700  13.536   4.142  0.0277 -0.0011 -0.2685
27523W        W46377   1.641  15.155  14.101  0.2869 -0.0164 -0.3184
27524W        W46378  16.541  17.114  14.651 -0.1057  0.1417  0.0924
27525W        W46379   8.911  14.283  16.037  0.1458 -0.0229 -0.0506
27526W        W46380   6.402   2.040   4.742  0.2589 -0.2089  0.2882
27527W        W46381  10.260   8.257  16.921 -0.0126 -0.1539 -0.0282
27528W        W46382   6.417  17.536   2.761  0.2246 -0.0162 -0.2500
27529W        W46383  12.746   7.735  16.584  0.0534 -0.1699  0.1706
27530W        W46384  10.438  10.291  15.916  0.0455  0.1656 -0.3280
27531W        W46385   6.073   6.526  12.755 -0.0654  0.0509  0.1798
27532W        W46386   5.734   3.247  15.506 -0.1717 -0.4657  0.1972
27533W        W46387   6.424   8.204  16.689 -0.2915  0.2372 -0.3440
27534W        W46388  16.865  11.640   3.806 -0.3667  0.1465  0.0844
27535W        W46389   4.745   1.803   3.402  0.0966  0.1672  0.1984
27536W        W46390   9.809   3.924   6.089 -0.1258  0.2224  0.2794
27537W        W46391  12.894  16.189  13.511  0.0086  0.1194 -0.0988
27538W        W46392  14.773  10.592   4.601  0.0504  0.0255  0.1173
27539W        W46393   0.085  14.341  14.506 -0.1659  0.1148 -0.1515
27540W        W46394   3.355   7.428  16.672  0.0684  0.1707 -0.1044
27541W        W46395   5.326  12.891   3.710 -0.1047  0.1468  0.1220
27542W        W46396  10.888   5.444  16.821 -0.2138 -0.0281 -0.2810
27543W        W46397  13.097  16.098   3.740 -0.0570 -0.2800  0.0096
27544W        W46398   2.716   8.117  10.586  0.0118  0.0898  0.0077
27545W        W46399  10.036  13.759   2.542 -0.0317  0.3763  0.2065
27546W        W46400  13.203   3.324   3.017  0.4192  0.0045  0.2106
27547W        W46401   7.393  16.548   0.662  0.1635 -0.1499 -0.0877
27548W        W46402  14.060   7.664  12.425 -0.0145 -0.2149  0.0946
27549W        W46403   8.754  14.853   5.523 -0.3028 -0.0470  0.0309
27550W        W46404   3.468  13.036   4.238 -0.0102 -0.1441 -0.1270
27551W        W46405   2.441   5.727  16.196 -0.1561  0.1289 -0.0132
27552W        W46406   2.216  10.950  13.298  0.1142 -0.1269 -0.2138
27553W        W46407  12.463  10.499  15.185  0.0505  0.3995  0.1867
27554W        W46408   1.103   4.274  14.078  0.1317  0.0333  0.2759
27555W        W46409  14.012  16.370  12.529  0.1095 -0.1069 -0.0700
27556W        W46410  10.629  12.590  16.220 -0.0663 -0.4230  0.0126
27557W        W46411  16.617  17.460  15.482 -0.1167 -0.0205  0.0394
27558W        W46412  10.878   9.984  14.691  0.0771 -0.1788 -0.2333
27559W        W46413  15.544   3.728   4.817  0.2663  0.2504 -0.2596
27560W        W46414  10.761   4.431  13.782  0.1251  0.1398 -0.1161
27561W        W46415   9.637   7.214  13.296 -0.0550 -0.0732  0.1786
27562W        W46416  13.476   1.578   1.614  0.0060  0.1170  0.1796
27563W        W46417   6.765   2.808   4.300 -0.0685  0.3877 -0.3388
27564W        W46418   4.069   9.123   0.331 -0.1960 -0.2202 -0.0907
27565W        W46419  13.771   6.237   1.593  0.3263 -0.1525 -0.1974
27566W        W46420   6.858  15.835  14.200  0.0402  0.3109 -0.1193
27567W        W46421  14.433   5.029  16.689 -0.0400  0.0250  0.0391
27568W        W46422   7.303   4.450  17.104 -0.2706  0.0389  0.0567
27569W        W46423   8.895   8.809   4.006 -0.1924  0.0927 -0.0285
27570W        W46424  11.208  12.292  16.184  0.1776 -0.1636  0.0081
27571W        W46425   9.462   4.224  13.973  0.2459 -0.1644 -0.1554
27572W        W46426   4.515   5.080   5.374 -0.2685 -0.4015  0.1896
27573W        W46427  11.728  11.185   4.542 -0.1909 -0.1385  0.3269
27574W        W46428   1.434   7.509  12.842 -0.0875  0.0538 -0.3556
27575W        W46429   0.848  13.289   0.624  0.0275  0.0234 -0.0052
27576W        W46430   4.472  10.299  13.723  0.3321  0.2037  0.2183
27577W        W46431   7.606  16.678   3.702  0.0009  0.2670 -0.1568
27578W        W46432  16.325  10.397  17.190 -0.0083 -0.2056 -0.3578
27579W        W46433   7.636   9.937  16.388 -0.0313  0.1428 -0.3323
27580W        W46434   0.110   4.306  13.476  0.1382 -0.0713 -0.1542
27581W        W46435  17.095  10.970   1.210  0.2610 -0.0799  0.2029
27582W        W46436  13.674   1.673   0.469  0.0868 -0.0817 -0.2447
27583W        W46437  13.249  14.010   1.197  0.2957 -0.0947 -0.2299
27584W        W46438   0.597   8.235   4.799  0.1191  0.1464  0.0899
27585W        W46439  12.432   2.711   0.751  0.0395  0.0348 -0.1278
27586W        W46440   2.411   4.325  15.725  0.0261 -0.3461  0.1994
27587W        W46441  15.542   5.546  15.202 -0.1656 -0.0973  0.3959
27588W        W46442   5.052   5.456  11.587 -0.0203  0.1244  0.1752
27589W        W46443  13.563  14.319  13.332 -0.2353 -0.1002 -0.1894
27590W        W46444   7.671   7.715  16.217 -0.3131 -0.0891  0.0752
27591W        W46445  16.681  16.096  15.509 -0.1064 -0.1714 -0.0351
27592W        W46446   9.712   8.678   0.305  0.0991  0.1357  0.0179
27593W        W46447   5.371  14.064  13.105 -0.1090  0.2173 -0.0039
27594W        W46448   9.837   0.972  14.235  0.0834  0.1954  0.1450
27595W        W46449  15.358   8.548  17.151 -0.0369 -0.2219  0.1947
27596W        W46450   5.223   1.945   3.398  0.2589  0.0029  0.1762
27597W        W46451  11.469  10.213  13.908 -0.0819 -0.0858 -0.2626
27598W        W46452  15.789  10.230  11.418 -0.0674  0.0362  0.2404
27599W        W46453   6.716   4.478   1.849 -0.4988 -0.1679  0.0035
27600W        W46454  11.460   9.355   4.682 -0.1700  0.3202  0.0254
27601W        W46455   7.807  12.391   5.006 -0.1167 -0.1384  0.0970
27602W        W46456   3.478   7.513  13.963  0.3338  0.0292  0.0219
27603W        W46457   4.955  11.275   0.229 -0.1041 -0.1135 -0.1418
27604W        W46458  16.500   1.476  12.045  0.0953  0.1133 -0.0609
27605W        W46459  17.077   4.936   3.600 -0.0475 -0.0212 -0.2157
27606W        W46460  13.998   8.948   5.321  0.0178 -0.4141  0.1028
27607W        W46461   8.979   7.760   4.751  0.0731 -0.3707 -0.0006
27608W        W46462   1.303   6.725   0.211  0.1281 -0.1034  0.4538
27609W        W46463   8.102  13.429  14.685  0.2105 -0.2923  0.0310
27610W        W46464  16.991   3.499   4.342  0.1115 -0.2952 -0.2642
27611W        W46465  16.615  12.229   2.618  0.1238 -0.0202 -0.0355
27612W        W46466  10.750  15.199   0.734  0.1436 -0.0186  0.1555
27613W        W46467  11.511  16.761   3.865  0.2573 -0.0557 -0.1218
27614W        W46468   9.410   0.108   5.001  0.2485  0.2785  0.0658
27615W        W46469   2.428   1.565  15.101  0.3464  0.0106 -0.4575
27616W        W46470  12.605  12.958  13.303 -0.0939  0.1285 -0.3060
27617W        W46471   2.869  15.540   6.105  0.1357 -0.0924 -0.1403
27618W        W46472   4.031   9.052  16.134  0.0095  0.1112 -0.0353
27619W        W46473  16.381   2.808  12.581 -0.0218  0.1054 -0.2014
27620W        W46474  14.369  12.129  16.836  0.1090  0.0782  0.0630
27621W        W46475   0.493   1.725   4.415 -0.0796  0.3052  0.2765
27622W        W46476  13.496  10.663   2.737  0.0014 -0.1408  0.0335
27623W        W46477   4.869  11.822  14.287  0.3752  0.0778 -0.1038
27624W        W46478  13.933  16.077   3.211  0.1392  0.2823 -0.2247
27625W        W46479   4.775  10.758   0.233 -0.2582 -0.0584  0.0561
27626W        W46480   2.085   0.240  13.193 -0.3587 -0.2605  0.0054
27627W        W46481   8.603   7.806   4.380  0.0311  0.4518 -0.0677
27628W        W46482   1.491   7.272   3.578 -0.0633 -0.1821  0.2621
27629W        W46483  14.617   1.386  15.106  0.1076  0.1174  0.0051
27630W        W46484   1.904   5.244  12.441  0.2480  0.2917  0.0288
27631W        W46485  12.715  17.267  12.632  0.1413 -0.0153 -0.1827
27632W        W46486  10.495   6.416   5.117  0.0013  0.2559 -0.0133
27633W        W46487  15.266   9.697  15.290  0.1781 -0.2265  0.1478
27634W        W46488  10.895  14.742   0.712  0.1526 -0.4788  0.0296
27635W        W46489  17.491  17.121  16.989  0.2462 -0.2679  0.1627
27636W        W46490  13.966  14.270  15.986 -0.2897  0.0089  0.3499
27637W        W46491   3.893   2.356  15.767 -0.1152  0.3146 -0.0781
27638W        W46492   6.741  13.742   1.106  0.0774 -0.1024  0.1305
27639W        W46493  12.671   4.012  16.977 -0.2678 -0.0708 -0.3916
27640W        W46494   8.994   2.948   4.514  0.0623  0.1660 -0.4005
27641W        W46495   2.578   2.616  12.101  0.3562  0.4317 -0.2245
27642W        W46496  14.649  16.942  15.426  0.1447  0.1571 -0.1820
27643W        W46497  17.116   0.107  13.934 -0.3275  0.1253  0.1349
27644W        W46498   8.509   2.835  12.350 -0.0797 -0.1186  0.1734
27645W        W46499   3.148  14.123   2.661 -0.2122  0.0024  0.1777
27646W        W46500  17.517   4.862  12.820  0.1038  0.1401 -0.1851
27647W        W46501   8.476   1.095  16.437  0.0988  0.0100 -0.0701
27648W        W46502  15.761   8.011  11.850  0.0080 -0.1207  0.1034
27649W        W46503  13.877   2.928  15.381  0.2229  0.0481 -0.2059
27650W        W46504   3.930   4.517  15.579  0.0249 -0.1049  0.0913
27651W        W46505  16.365   5.272  16.952 -0.3345  0.2357 -0.3813
27652W        W46506   6.227   0.859   1.382  0.0069 -0.4231  0.2522
27653W        W46507  12.639  17.232  15.746  0.1021  0.0921  0.0073
27654W        W46508  14.969   1.413   3.871  0.0380 -0.1275 -0.1388
27655W        W46509  12.768  15.870  12.593 -0.0145 -0.2176 -0.2034
27656W        W46510  16.272  10.123  14.274  0.1108  0.1123  0.2064
27657W        W46511   1.979   2.449   3.639 -0.1029 -0.0033 -0.2831
27658W        W46512  16.228   8.372  15.914 -0.0473  0.1863 -0.0329
27659W        W46513  12.870   0.146  12.510  0.1171  0.3657  0.0216
27660W        W46514   9.242  14.554  14.131 -0.4180 -0.1336  0.2412
27661W        W46515  10.846  14.674  16.968  0.2218  0.0129  0.0179
27662W        W46516   3.786   3.865  14.917 -0.0648 -0.0878 -0.0118
27663W        W46517  10.448  15.583   2.862 -0.0017  0.1149 -0.1983
27664W        W46518  14.332   2.847  15.571 -0.1441  0.3099  0.2412
27665W        W46519   3.356   4.118   5.715 -0.0930  0.1872 -0.2472
27666W        W46520   2.919   4.208  15.097 -0.1031  0.1094  0.2210
27667W        W46521   9.359   3.627   0.328  0.1225  0.2078  0.1226
27668W        W46522  12.650   2.108  13.753  0.0454  0.1814  0.0577
27669W        W46523   5.540   8.798   2.237 -0.0618 -0.2102  0.0384
27670W        W46524   6.631   6.374   4.247  0.0917  0.1375  0.0469
27671W        W46525  11.421   8.631  12.644 -0.0180  0.0085 -0.0002
27672W        W46526   8.709  12.360  16.221 -0.2537  0.1735  0.0179
27673W        W46527  13.621   5.760   2.630  0.0722 -0.2292 -0.1322
27674W        W46528  10.390  14.564  13.070  0.3879  0.1637  0.0786
27675W        W46529   5.591   7.636  15.419 -0.3086 -0.1409  0.2688
27676W        W46530   9.777  14.906   3.268  0.0838 -0.0132  0.3275
27677W        W46531  14.427   5.234  14.948  0.3987  0.0982  0.0614
27678W        W46532   5.413   1.426  15.760  0.0620 -0.3767 -0.1642
27679W        W46533  10.718   1.687   3.564  0.1835 -0.0348 -0.0852
27680W        W46534  10.515  10.923   5.016  0.3053  0.2541 -0.0384
27681W        W46535   3.485   1.621  17.048 -0.0012 -0.1757  0.1342
27682W        W46536   2.930  17.323  15.202 -0.0109 -0.0932  0.2492
27683W        W46537   5.163   1.102  17.004  0.2200 -0.2075 -0.2545
27684W        W46538   7.993   7.855   3.324  0.1199  0.2496  0.0630
27685W        W46539   9.391   7.804  13.783 -0.0070  0.0349 -0.1770
27686W        W46540   1.324  10.049  14.760 -0.1867  0.3816  0.0348
27687W        W46541   5.918  16.843  13.904 -0.0733  0.1506 -0.0241
27688W        W46542   5.282  14.924  16.077  0.1174  0.1891  0.2196
27689W        W46543  14.474  14.365   0.618 -0.1838 -0.2116 -0.2103
27690W        W46544   1.825   9.674  17.120 -0.1133  0.2886  0.2131
27691W        W46545   2.123   8.639   4.929 -0.0280  0.1084 -0.0767
27692W        W46546  16.197  14.881  12.781  0.1723  0.0507  0.2375
27693W        W46547  17.122   2.892  17.004 -0.0184 -0.1885  0.1770
27694W        W46548  12.119  15.013   0.260  0.0272  0.3722 -0.0721
27695W        W46549  10.568  16.108  12.153  0.0827  0.1774 -0.2031
27696W        W46550   8.693   4.914  16.847  0.1281 -0.0781 -0.0223
27697W        W46551  12.071   7.084  16.498 -0.3577 -0.1744 -0.2959
27698W        W46552   0.618   5.223   2.978  0.2988 -0.1772 -0.0740
27699W        W46553  15.525  17.132   4.090  0.0976 -0.0439  0.1175
27700W        W46554   2.563   4.893   5.210 -0.0999  0.0449  0.1719
27701W        W46555   7.284   9.374   5.467 -0.0034 -0.1480 -0.0654
27702W        W46556  17.316   5.135  13.967  0.0679 -0.1424 -0.0450
27703W        W46557  11.864   7.704  15.433 -0.1970  0.1969 -0.1967
27704W        W46558   1.015  14.113   2.698 -0.1124 -0.1282 -0.0220
27705W        W46559   2.513  12.363  16.178  0.1882 -0.1502 -0.1443
27706W        W46560  11.684  12.630   0.293  0.1556 -0.2180  0.1507
27707W        W46561   3.659  11.698   0.374  0.0483 -0.0652  0.0676
27708W        W46562  14.997  14.147   0.625 -0.0879 -0.4426  0.1486
27709W        W46563  10.075  14.252   4.833 -0.0954 -0.1539  0.3813
27710W        W46564   0.612  14.704   2.034  0.1696 -0.0083 -0.1094
27711W        W46565   2.997  16.724  13.958  0.2336  0.2055  0.1506
27712W        W46566   5.350   3.842  15.969 -0.0355  0.3537  0.0509
27713W        W46567   5.110   8.455   1.385  0.1838  0.2502 -0.1874
27714W        W46568   3.585  17.580  12.374 -0.2890 -0.1843  0.0975
27715W        W46569   2.711  14.722   1.075 -0.1295 -0.3913  0.0144
27716W        W46570   3.488   3.837   3.345 -0.1130  0.0610 -0.0496
27717W        W46571  15.551  10.946   1.434 -0.0997  0.3433 -0.0034
27718W        W46572  10.112  12.624  16.142  0.3215  0.0484  0.1988
27719W        W46573  16.560   3.180  13.361 -0.0444 -0.0528 -0.1906
27720W        W46574  14.642   5.725  15.362  0.2370 -0.1168 -0.0769
27721W        W46575  14.242   0.076   4.954  0.0851  0.1920  0.1215
27722W        W46576   5.121  12.044   1.051  0.0122 -0.0588 -0.0606
27723W        W46577   6.335   1.812   2.754  0.1805 -0.3046 -0.0220
27724W        W46578  11.873  13.768   4.555  0.1141  0.2272  0.3495
27725W        W46579   0.266   4.012   2.777 -0.2367  0.2214  0.1349
27726W        W46580   1.648   6.853  15.120  0.0183  0.0524  0.0142
27727W        W46581  11.093   0.143   0.193  0.0357 -0.0637  0.2778
27728W        W46582  10.100  15.135   2.476 -0.0218 -0.1604  0.1726
27729W        W46583   3.021  10.739  15.945 -0.1053  0.3540  0.1767
27730W        W46584   8.227   0.392   0.232 -0.1947  0.2670 -0.0640
27731W        W46585   6.275   4.421  14.730  0.1606  0.0599  0.1150
27732W        W46586   5.080   0.257  14.959 -0.0680 -0.0589 -0.1953
27733W        W46587   3.344   4.037   2.803  0.1744 -0.1734  0.0770
27734W        W46588   3.930   5.154   2.201 -0.0008  0.0059  0.3135
27735W        W46589  12.852   7.007   5.907 -0.0426 -0.0679  0.1702
27736W        W46590   2.103   7.758   5.159 -0.0334 -0.1391 -0.2690
27737W        W46591   6.718  15.861   1.969  0.1584 -0.0532 -0.1627
27738W        W46592   6.239  14.623  16.073 -0.0649 -0.1176 -0.3554
27739W        W46593   2.734   9.478   4.313  0.0829 -0.0723 -0.1935
27740W        W46594   6.292  15.609   4.015  0.0994  0.1556 -0.0281
27741W        W46595   0.621   4.888  12.043 -0.0525 -0.0310  0.3815
27742W        W46596   1.064   5.643   1.061  0.0000 -0.1457  0.0746
27743W        W46597  13.403  15.379   2.909 -0.1300  0.2429 -0.3041
27744W        W46598   1.987   4.411  13.999 -0.0456 -0.0588  0.4651
27745W        W46599   4.009  11.320   3.032 -0.0901  0.0344  0.2245
27746W        W46600  17.513   9.002  14.639  0.1938  0.0687 -0.0031
27747W        W46601  12.899  11.623   0.336  0.0179  0.1297 -0.0377
27748W        W46602  12.710   6.162   3.102 -0.4302 -0.3977 -0.0629
27749W        W46603  16.750   2.108   3.591  0.0256 -0.1334  0.1085
27750W        W46604  13.634   4.114   4.914  0.0445  0.0192  0.2088
27751W        W46605   9.416  12.728   1.109  0.0172 -0.1351 -0.0414
27752W        W46606  17.174  10.943  16.709 -0.0450  0.2773 -0.2776
27753W        W46607  15.962   6.139   1.642  0.1678 -0.0213  0.0378
27754W        W46608  16.023  14.432   4.595 -0.3603 -0.2876 -0.3962
27755W        W46609  11.780   0.902  12.454  0.0286 -0.1925 -0.4589
27756W        W46610   8.916  11.803   4.550 -0.0736  0.0778 -0.0280
27757W        W46611   2.695  14.253   4.586  0.1578 -0.1999 -0.3162
27758W        W46612  17.493   2.962   0.320 -0.1732  0.0378  0.1240
27759W        W46613  10.338  11.650  12.667 -0.2055  0.0573  0.2686
27760W        W46614  10.982   2.040  13.927  0.0402 -0.0298  0.1725
27761W        W46615   4.251   8.178  15.141 -0.2046 -0.2083 -0.1113
27762W        W46616  17.118  17.436  12.162 -0.0513  0.1403 -0.0871
27763W        W46617  13.713   6.445   4.205 -0.0899 -0.1262 -0.0494
27764W        W46618   9.116   2.551   2.070 -0.1064  0.0948  0.0700
27765W        W46619   3.366  14.383   4.380  0.0726 -0.1389  0.0086
27766W        W46620   0.928  14.211   2.159 -0.0023 -0.2018  0.6166
27767W        W46621   9.051  11.395   2.790  0.1046 -0.1542 -0.2707
27768W        W46622   9.881  11.412  16.756  0.0986 -0.0318 -0.0167
27769W        W46623   6.835   3.578  13.303 -0.4240 -0.0864 -0.0341
27770W        W46624  12.414  14.606   2.034  0.2467 -0.1157  0.1453
27771W        W46625   8.994   5.920  13.800  0.0253  0.0984 -0.1033
27772W        W46626   2.361   3.905   1.935 -0.0061 -0.1623 -0.1768
27773W        W46627  14.797   8.925   1.829  0.2253 -0.1249 -0.1657
27774W        W46628   2.506  16.615  13.963  0.0129  0.1701  0.2260
27775W        W46629   2.294   6.176   1.893 -0.1300  0.1079 -0.1935
27776W        W46630   6.499   9.807  16.346  0.0767  0.1414  0.2751
27777W        W46631  17.517  13.312  14.868 -0.3553 -0.1902 -0.0205
27778W        W46632  10.432  15.539  12.753  0.1871 -0.0180 -0.0186
27779W        W46633  15.840   5.682   2.598  0.0318 -0.3293 -0.0115
27780W        W46634   0.009  12.312  13.779  0.1270 -0.3090 -0.2295
27781W        W46635   8.197   1.067   0.983  0.0878  0.1726 -0.1754
27782W        W46636  15.284   1.362   0.391  0.0036 -0.0552  0.0147
27783W        W46637   8.187  12.480  14.086 -0.2064 -0.0504 -0.2317
27784W        W46638   3.350  13.930   4.008  0.1302  0.2137  0.0952
27785W        W46639   4.266  12.344  12.049 -0.1219  0.3651 -0.5897
27786W        W46640   4.205   8.449   2.250  0.1918  0.2949  0.0773
27787W        W46641   6.240   3.021  15.375 -0.2768 -0.0159  0.2387
27788W        W46642   9.122  11.764  14.317 -0.2810  0.1984 -0.4103
27789W        W46643   4.196   2.677   3.805  0.1608 -0.0244  0.0869
27790W        W46644   8.276   1.168  15.048  0.2047 -0.3411 -0.0412
27791W        W46645   9.959   4.227  12.320 -0.1959  0.0563  0.1000
27792W        W46646   2.096  11.732   3.140  0.0119 -0.2868 -0.0120
27793W        W46647  12.126   0.249  13.347 -0.0947 -0.1467  0.1524
27794W        W46648  10.116   7.081  12.681 -0.0092  0.0110  0.0570
27795W        W46649   9.194   4.692   5.057  0.2205 -0.0574  0.2542
27796W        W46650  14.070   1.840   2.202  0.0174 -0.0404 -0.2215
27797W        W46651  17.017  12.559   3.935 -0.1056 -0.0434 -0.0102
27798W        W46652  13.685   3.268   2.913  0.2182  0.0824  0.1138
27799W        W46653   2.045  10.770   2.962 -0.1480  0.0662  0.2273
27800W        W46654  10.095   3.642   1.251 -0.1566  0.0475 -0.0185
27801W        W46655  12.537   8.506  13.914  0.0874  0.2533 -0.1727
27802W        W46656   2.751   5.388   1.185 -0.0393 -0.1425 -0.2257
27803W        W46657   9.853  13.458   1.336 -0.0147 -0.1014  0.2089
27804W        W46658   3.876   4.177   3.198  0.1961 -0.2015 -0.1437
27805W        W46659   6.192   0.965  14.823 -0.1292  0.0919  0.3066
27806W        W46660  14.926  14.716  16.815  0.6801 -0.0553  0.1749
27807W        W46661   2.577  11.295  12.927 -0.4209  0.3510 -0.0700
27808W        W46662   4.892   1.227   0.970  0.2455 -0.0894  0.1122
27809W        W46663   3.650   2.445   3.944  0.2747  0.0657  0.0292
27810W        W46664  12.563  11.771   0.748  0.2040 -0.2470 -0.0249
27811W        W46665  17.182   3.356   0.712  0.0232 -0.3415  0.2785
27812W        W46666  15.201  15.987   1.517 -0.1277 -0.0821 -0.1296
27813W        W46667   0.426  16.568  14.047  0.1611 -0.3207 -0.0477
27814W        W46668   1.321   8.721   4.694 -0.2273  0.2050  0.0942
27815W        W46669  10.270  15.825  17.050  0.0591  0.2060  0.0112
27816W        W46670   8.726  14.256  15.535 -0.0026  0.0133 -0.2305
27817W        W46671   4.756  13.794  12.695 -0.2431 -0.1589 -0.2333
27818W        W46672  16.432   3.248   3.737  0.0110 -0.1960 -0.2678
27819W        W46673   6.708   7.072  15.965  0.3006 -0.1761  0.2285
27820W        W46674  11.450  10.301  16.174  0.0274  0.1957 -0.1094
27821W        W46675   6.045  10.094  15.530 -0.0352  0.1560  0.0312
27822W        W46676   2.947   2.274   0.211 -0.0101 -0.1250 -0.0628
27823W        W46677  10.411  14.357   0.746 -0.1751 -0.1877  0.7780
27824W        W46678  10.725  16.248   4.339 -0.0776  0.0651 -0.1862
27825W        W46679  17.121  15.694   1.319 -0.2408 -0.3742  0.2474
27826W        W46680   3.569  17.188   2.918 -0.1901  0.1241 -0.1591
27827W        W46681   0.889  10.394   1.184 -0.1100  0.0410  0.0809
27828W        W46682  12.967   6.416   4.901  0.0143  0.0009 -0.0118
27829W        W46683   2.444  14.681  14.006 -0.1817 -0.2814 -0.1019
27830W        W46684   8.178   8.237   3.631 -0.1298 -0.0710  0.0437
27831W        W46685  16.551   9.690   2.441  0.5245  0.2984  0.2750
27832W        W46686   2.630   4.474   1.050  0.2674 -0.1628  0.0668
27833W        W46687  14.835   6.443   0.676  0.1705 -0.1098 -0.2254
27834W        W46688  10.617  15.078  11.950 -0.1516 -0.0023  0.0837
27835W        W46689  14.079  16.023  14.672  0.0354  0.0006  0.0790
27836W        W46690   5.025   6.626  13.543  0.0451  0.1865 -0.0021
27837W        W46691  12.884   2.682  12.396  0.1126  0.1323 -0.1095
27838W        W46692   9.502   2.998   4.622 -0.0639  0.0964  0.2230
27839W        W46693   7.194   7.734  16.518 -0.4748  0.0809 -0.0783
27840W        W46694  15.985  13.118   2.854  0.3534  0.2299 -0.0724
27841W        W46695   9.306  15.068  16.604 -0.2610 -0.4040 -0.2567
27842W        W46696  16.751   7.431   6.223 -0.2506  0.0461  0.0960
27843W        W46697  10.806   9.507  15.481  0.2024 -0.2455  0.2448
27844W        W46698   3.300  14.863  16.353  0.0195 -0.0487 -0.4930
27845W        W46699   1.244   5.338   0.299  0.1678 -0.0840 -0.0046
27846W        W46700  12.062   7.108  12.878 -0.0026 -0.2113 -0.2051
27847W        W46701   6.774   9.180   2.408 -0.0516 -0.0785  0.1622
27848W        W46702   9.485   9.120   0.083 -0.0024  0.0297  0.2981
27849W        W46703   8.150  16.183   3.094 -0.0998 -0.2390 -0.1105
27850W        W46704   8.126  17.451   2.655 -0.3327 -0.1727 -0.0738
27851W        W46705  13.556   3.950  15.970  0.2343 -0.1057 -0.1719
27852W        W46706  12.172   2.137  14.799  0.0944 -0.0184 -0.2633
27853W        W46707   3.423  17.421   4.993 -0.0544  0.2801 -0.3800
27854W        W46708  13.685   5.097   0.753 -0.2084 -0.1854  0.3821
27855W        W46709   0.090  14.540   0.333 -0.2252 -0.0042  0.3649
27856W        W46710   5.866   1.884  15.908 -0.1680 -0.1929 -0.2108
27857W        W46711  16.376   4.244   4.591 -0.0670  0.3481  0.0899
27858W        W46712  12.744  16.927  13.555 -0.0470  0.0816 -0.0111
27859W        W46713   4.742   8.429  13.784 -0.0302 -0.2399 -0.2527
27860W        W46714   9.635   6.364  16.196 -0.1006 -0.1904 -0.0663
27861W        W46715  14.451   0.917   4.347 -0.4075 -0.0639  0.1406
27862W        W46716   2.918   1.521  14.925  0.0367 -0.1103  0.1241
27863W        W46717   7.405  12.991   5.632  0.3193 -0.2559  0.1664
27864W        W46718   1.983  13.987   1.288 -0.0483  0.0562 -0.2220
27865W        W46719   1.686  15.814   1.179  0.5348  0.2757  0.1959
27866W        W46720   7.856   4.208   3.268 -0.0518  0.0569 -0.0431
27867W        W46721  12.994   0.161  13.519  0.0149 -0.1333 -0.1126
27868W        W46722   0.342  12.524   3.166  0.2862 -0.0829 -0.3041
27869W        W46723  14.916   4.734   1.150  0.0374  0.0786  0.1103
27870W        W46724   9.125  14.540   5.632 -0.1936 -0.0380 -0.2101
27871W        W46725  15.040  12.763  12.223  0.2274 -0.1525 -0.1631
27872W        W46726  11.514   4.841   3.673 -0.1898  0.2276  0.0658
27873W        W46727  12.491  11.647   4.827 -0.0235 -0.0109  0.1325
27874W        W46728   7.465   5.302   3.799 -0.1420  0.0204 -0.0394
27875W        W46729   7.238   6.682   2.585 -0.2278  0.1953 -0.0204
27876W        W46730  12.885   1.904  14.236  0.1033  0.2222  0.2346
27877W        W46731   7.269   1.798   5.253  0.1993  0.3054 -0.5786
27878W        W46732  15.608   4.716   0.703  0.1785 -0.0231 -0.3316
27879W        W46733   9.249   5.376  14.742  0.1307  0.4771  0.1487
27880W        W46734  10.203   5.020   1.608 -0.4798  0.0024 -0.0932
27881W        W46735  12.562   6.447  15.970  0.2147 -0.0191 -0.1861
27882W        W46736   3.418  14.925   4.349 -0.0054  0.1055 -0.0617
27883W        W46737  16.774  13.361   4.158  0.0348  0.0481  0.1004
27884W        W46738  11.030  15.427   1.367 -0.0589 -0.1157 -0.2046
27885W        W46739   5.096   1.331   2.513  0.1232  0.1380 -0.4169
27886W        W46740   2.556   8.511  12.038  0.1310  0.0300 -0.1548
27887W        W46741   6.297  10.378  13.135 -0.0275 -0.2156 -0.0692
27888W        W46742   7.667   2.851   1.177  0.0186  0.1154 -0.0186
27889W        W46743   8.178  17.000  16.708 -0.1457  0.0225 -0.0686
27890W        W46744  12.778  13.858  12.303  0.2041  0.1339 -0.1140
27891W        W46745  10.697   4.711   3.885  0.0303  0.1795  0.3891
27892W        W46746   2.614   1.985   0.581  0.1575 -0.1230 -0.3201
27893W        W46747  11.299  15.903  11.161 -0.3713 -0.1098 -0.1007
27894W        W46748  13.507  16.732  12.526 -0.1329 -0.3132 -0.3341
27895W        W46749   1.135   3.845   3.026  0.2115  0.0114 -0.0805
27896W        W46750   6.914   7.498   0.160 -0.0287  0.0695 -0.2556
27897W        W46751  13.448   4.580  14.312 -0.0168 -0.1602  0.0688
27898W        W46752   0.453   2.924  15.860 -0.1440  0.0796 -0.1166
27899W        W46753  10.814  16.809  12.387 -0.3004 -0.3888 -0.4671
27900W        W46754   9.142  17.331  14.608 -0.2249  0.3128  0.1915
27901W        W46755   9.867  15.903   5.065  0.0111  0.0036  0.1169
27902W        W46756   3.333   3.761  13.427  0.0124  0.0193  0.2374
27903W        W46757   6.101   2.280  15.608  0.0908 -0.0574  0.1144
27904W        W46758  13.683   9.583   5.265 -0.1816  0.1575 -0.0091
27905W        W46759  10.140   7.266  13.545  0.1013  0.1330 -0.1459
27906W        W46760   6.096   0.305   0.350 -0.0684  0.1908  0.2797
27907W        W46761  13.120   2.727  16.103 -0.2199  0.2839  0.0750
27908W        W46762   2.664  11.458   2.893 -0.2823 -0.0628  0.0021
27909W        W46763   5.037  16.257  14.909 -0.1359  0.0155 -0.0548
27910W        W46764  14.359   3.236   1.670 -0.0347  0.2933 -0.2925
27911W        W46765  10.378  16.586  12.146 -0.0333 -0.1163 -0.0673
27912W        W46766   2.302   7.266  13.901 -0.0934  0.2029  0.1976
27913W        W46767  12.673  10.388  15.716  0.3135  0.0884  0.0071
27914W        W46768  14.250   6.109  16.537  0.0181 -0.1207  0.0229
27915W        W46769  15.574   5.221  13.792  0.2315 -0.3241  0.1769
27916W        W46770   0.339   7.517   3.988 -0.0357  0.0933  0.2064
27917W        W46771   2.764   8.338   2.478 -0.3597  0.3395  0.0136
27918W        W46772  13.980   6.449   3.199 -0.4908 -0.0211  0.0958
27919W        W46773  13.004  11.419  16.990  0.0203  0.2871 -0.0674
27920W        W46774  10.813   6.117   0.215  0.0693 -0.2672  0.2893
27921W        W46775   8.210   7.870   1.420  0.2894 -0.3243  0.0085
27922W        W46776   1.736   4.926   2.178  0.4593 -0.1809 -0.1260
27923W        W46777   0.798  12.141   5.136  0.0869  0.0089  0.1926
27924W        W46778  12.193  11.577  12.028 -0.0156  0.1260 -0.0159
27925W        W46779   3.643   0.701  16.296  0.1408  0.0391 -0.2351
27926W        W46780   9.331   4.589   2.674  0.1458 -0.0630 -0.1485
27927W        W46781   3.678   7.806   2.702  0.0863 -0.0363  0.0076
27928W        W46782  11.279   3.735  15.207 -0.0049 -0.0230  0.0297
27929W        W46783   0.185   3.930  13.044 -0.3604 -0.1312 -0.0353
27930W        W46784   5.462   4.540  16.754  0.2466  0.0742  0.1201
27931W        W46785   3.144   6.879   2.486  0.1837 -0.2476 -0.2854
27932W        W46786   4.178   7.079   2.115  0.1132  0.0870  0.2387
27933W        W46787  17.044  14.376   0.163  0.1262 -0.0550 -0.1849
27934W        W46788   0.531   8.023  12.191  0.3388  0.3031 -0.1520
27935W        W46789  13.788   1.138   3.691  0.1994 -0.0799 -0.4192
27936W        W46790  13.060   4.899   1.925 -0.2470  0.1719  0.3861
27937W        W46791   8.250   7.269  16.800  0.2096  0.4582 -0.2776
27938W        W46792   0.196   9.848   4.677 -0.0779 -0.0440 -0.3073
27939W        W46793   1.967   2.228   2.703 -0.0168  0.1924  0.2408
27940W        W46794   8.113   4.220   4.205 -0.1300 -0.0533 -0.0832
27941W        W46795   5.159  16.982   0.670 -0.0343  0.0386 -0.0516
27942W        W46796   0.534  16.665  12.133  0.1975  0.1068  0.0072
27943W        W46797  10.707   7.257   4.452 -0.0573  0.1083 -0.3382
27944W        W46798   9.946   3.080  14.690 -0.2588  0.1254 -0.2409
27945W        W46799   9.456   0.992   4.121  0.0045  0.0277 -0.0753
27946W        W46800  11.199  11.367   5.051  0.2664 -0.3000  0.0119
27947W        W46801  12.377   6.590  14.211 -0.0960 -0.1890  0.1975
27948W        W46802   1.099  14.215   3.711 -0.0654  0.0066  0.2659
27949W        W46803  13.748  14.353   4.694  0.1281 -0.2522 -0.1767
27950W        W46804  13.540  11.849   1.895 -0.2186  0.2671 -0.0550
27951W        W46805  10.548   2.835   1.537 -0.1876 -0.1869  0.0146
27952W        W46806  17.071   3.408  12.604 -0.1650  0.2006 -0.1961
27953W        W46807   4.136  11.328   3.557  0.3428 -0.0524  0.1303
27954W        W46808  13.145  11.146  15.235 -0.3160 -0.1127  0.1668
27955W        W46809   2.926   4.033  13.319  0.1092  0.3458  0.4981
27956W        W46810   1.289   8.889  16.659  0.0160  0.0594  0.1883
27957W        W46811   9.478  10.916   5.739 -0.3117  0.0146 -0.0393
27958W        W46812   6.995   2.776   3.223 -0.0086 -0.1013  0.1160
27959W        W46813  17.452   0.821   3.654 -0.0492  0.1423 -0.0736
27960W        W46814  12.080   4.762  14.456  0.2818 -0.0052 -0.2889
27961W        W46815   9.823  13.218   2.325  0.0296 -0.1080 -0.0651
27962W        W46816  16.952  15.826  16.124 -0.3739  0.0480  0.1678
27963W        W46817   3.268   9.869  14.313  0.0722 -0.0072  0.0259
27964W        W46818  11.814   9.469  13.672 -0.0700  0.3809 -0.0617
27965W        W46819  12.696  15.843  17.175 -0.0871 -0.0420  0.1796
27966W        W46820   4.110   5.331  14.643  0.2567  0.2411  0.0013
27967W        W46821   0.337  16.564   3.185 -0.1937 -0.1166  0.3176
27968W        W46822  11.733   0.188   0.833  0.3892  0.0916 -0.2424
27969W        W46823  12.105  12.748  13.202  0.1054 -0.1651 -0.1248
27970W        W46824  13.449  12.704   3.142 -0.1825  0.1972  0.0673
27971W        W46825   8.757   3.894   5.509  0.2015 -0.3279  0.1391
27972W        W46826  10.798  10.249  13.791 -0.2076  0.0741  0.1274
27973W        W46827   4.687   4.122   1.606 -0.1257 -0.0167 -0.0660
27974W        W46828  14.619  11.909  16.461 -0.0402 -0.0457 -0.1358
27975W        W46829   6.668  11.841   0.612 -0.1467 -0.3755 -0.0799
27976W        W46830   7.158   9.139  15.304 -0.1767 -0.3658  0.0135
27977W        W46831  17.082  17.231   0.040  0.1729  0.0575 -0.1596
27978W        W46832   1.362   0.826   1.302  0.1014  0.0185  0.0580
27979W        W46833  12.454  15.529   3.068 -0.0698 -0.1267  0.0448
27980W        W46834   9.612   0.498   0.955  0.1419 -0.0220  0.0678
27981W        W46835   8.818   4.754   3.482  0.0553  0.1315 -0.0422
27982W        W46836   7.165  10.529   4.532 -0.1560  0.1935 -0.0174
27983W        W46837  12.343   9.657   0.955 -0.0189  0.2115  0.2852
27984W        W46838  13.817   5.726  13.769 -0.0908 -0.0978 -0.3579
27985W        W46839  17.035  17.260  13.765 -0.0685 -0.1896  0.1152
27986W        W46840  11.019   0.380  13.947  0.0643  0.1119  0.1035
27987W        W46841  15.565   1.033  10.914 -0.3160  0.1548  0.0431
27988W        W46842   1.849   1.677   0.532 -0.2016  0.0613 -0.0274
27989W        W46843  17.269  10.207   5.575 -0.0844  0.0389  0.5029
27990W        W46844  12.658  14.752  12.057 -0.0940 -0.0642 -0.2019
27991W        W46845  17.166  17.319   1.625 -0.3266  0.0582 -0.0435
27992W        W46846  14.821   1.771   1.736 -0.0405 -0.0925  0.2098
27993W        W46847  12.869   3.803  14.050 -0.1065  0.0376  0.0576
27994W        W46848  11.492   1.237   2.721  0.1065  0.1857  0.1660
27995W        W46849   1.164   1.799  15.931 -0.3327 -0.2589 -0.1986
27996W        W46850  11.298  10.292   0.558  0.3557 -0.0133  0.0561
27997W        W46851  10.478  16.454  14.889 -0.1228 -0.5127 -0.5520
27998W        W46852   8.211   5.530  16.894 -0.0636  0.2002 -0.0932
27999W        W46853  14.592   0.742  12.180  0.1087 -0.1909 -0.1894
28000W        W46854  12.569   2.790  12.868 -0.0362  0.1609 -0.0677
28001W        W46855  12.642  17.020  13.079 -0.0047 -0.2100 -0.1524
28002W        W46856   4.353   3.338   3.150  0.0750 -0.1461 -0.0712
28003W        W46857  10.811   8.085  13.324 -0.0765  0.1396 -0.0911
28004W        W46858   5.570   1.655   4.982 -0.0487 -0.0388  0.0610
28005W        W46859  15.212   6.955  13.148  0.2368 -0.0129 -0.3979
28006W        W46860   0.833   3.238  15.571  0.1875  0.1067 -0.1812
28007W        W46861   9.171   2.931  14.230 -0.0865  0.2233  0.0190
28008W        W46862  10.660  15.537  15.795  0.0280 -0.2085  0.0943
28009W        W46863  13.844   6.497  11.905 -0.0603 -0.3876 -0.3679
28010W        W46864   6.926   2.714  15.707 -0.3860 -0.4757  0.0581
28011W        W46865  10.193  17.073  17.203 -0.1646  0.1501  0.1930
28012W        W46866   1.382  14.455   3.357  0.0790  0.1683 -0.5167
28013W        W46867  15.338   1.823   1.908  0.1419 -0.1127  0.1509
28014W        W46868  10.999   2.718   0.634 -0.2655 -0.1023  0.2185
28015W        W46869  17.202   4.969  16.036  0.1165 -0.0770  0.1918
28016W        W46870   8.602  15.629  12.667  0.1322  0.1978  0.1723
28017W        W46871  15.860   5.589   4.710  0.2203  0.0532  0.2316
28018W        W46872  15.004  15.484   0.031  0.0017 -0.1730 -0.3071
28019W        W46873  15.598   6.181  17.219 -0.3411 -0.0425 -0.0535
28020W        W46874   1.757   1.875  15.281 -0.2260 -0.2816  0.1109
28021W        W46875   2.128   9.604  13.685 -0.3256 -0.1071 -0.1931
28022W        W46876   2.197   1.199  13.425  0.2722  0.1676  0.1834
28023W        W46877   9.626  15.424  16.125 -0.1673 -0.0884  0.1842
28024W        W46878   8.259   2.652  16.314 -0.1209 -0.1644  0.1256
28025W        W46879   3.498   0.905   0.430  0.2961  0.0905 -0.3870
28026W        W46880  13.979   1.289  14.277 -0.0162  0.1883  0.0974
28027W        W46881   1.221   8.265  14.514  0.0754 -0.1268 -0.0996
28028W        W46882  13.345  10.066  13.162 -0.0706  0.0192 -0.1861
28029W        W46883   0.708   6.923  14.617 -0.2424  0.3719 -0.2156
28030W        W46884  14.491   7.508  12.191 -0.0222 -0.0647  0.1198
28031W        W46885  15.652   3.259   0.656 -0.1430  0.2381 -0.0345
28032W        W46886  12.172   6.557  16.839 -0.3750 -0.0800  0.1364
28033W        W46887   0.917  13.893  14.315 -0.0168  0.1898  0.1587
28034W        W46888  16.856   1.164  16.134 -0.1116 -0.2743  0.0010
28035W        W46889   4.450  11.152   2.815  0.0582  0.1994  0.0367
28036W        W46890   9.124   0.062   0.241  0.1920 -0.0113  0.1251
28037W        W46891   3.923   4.670   4.582 -0.1845  0.2954  0.0815
28038W        W46892  16.989   2.360   2.440  0.1104  0.0975 -0.2140
28039W        W46893  14.126  12.847  12.733 -0.3512 -0.3963 -0.3722
28040W        W46894   4.762   7.367   4.875 -0.0923 -0.0273  0.1099
28041W        W46895   7.626  12.910  16.755 -0.0838  0.1821 -0.4297
28042W        W46896  17.327  12.213   0.499 -0.2820  0.0756  0.4383
28043W        W46897   9.327  10.885   1.509 -0.3489  0.0562  0.2493
28044W        W46898  11.373  10.869   5.256 -0.1672  0.2191  0.4575
28045W        W46899  13.615  11.243  12.589  0.1742  0.0619 -0.0225
28046W        W46900   8.367   1.832   4.674 -0.0900  0.3463 -0.0364
28047W        W46901  16.625   6.593  17.048  0.1870  0.2959  0.2015
28048W        W46902   2.449  11.831   2.170  0.0189  0.1345 -0.1424
28049W        W46903   7.540  17.513  15.422 -0.2729  0.0600 -0.1736
28050W        W46904   9.120   5.503  16.184  0.2780 -0.0716  0.0985
28051W        W46905   5.125  12.672   4.464  0.1254  0.1026 -0.0608
28052W        W46906  14.297   5.908  13.756  0.0223 -0.0110 -0.2564
28053W        W46907   0.321   0.451   4.820 -0.0980  0.1200 -0.0339
28054W        W46908  17.532   4.800  15.562 -0.2608 -0.2370 -0.2031
28055W        W46909   9.847   7.441  15.003 -0.0501 -0.2219 -0.0842
28056W        W46910  15.463  17.433  13.256 -0.0079  0.0481 -0.0933
28057W        W46911  17.594  16.837  14.296  0.0524  0.1441  0.2483
28058W        W46912   4.000   3.564   4.545  0.0841  0.2013  0.2031
28059W        W46913   2.118   3.833  15.653 -0.1951 -0.0914 -0.1807
28060W        W46914   1.493  14.215  15.985  0.0307 -0.0737  0.1268
28061W        W46915  16.277  16.542  14.551  0.0836 -0.0624  0.4101
28062W        W46916  10.481  16.726   2.035  0.0048 -0.3149  0.0122
28063W        W46917   3.354   4.914   3.816  0.0559 -0.0752  0.0408
28064W        W46918   9.391  11.620   4.520  0.2182 -0.0003 -0.0857
28065W        W46919   5.708  12.223   0.715  0.0292 -0.0813  0.0310
28066W        W46920   6.555   0.140  14.710 -0.1053  0.0677 -0.2544
28067W        W46921   2.271   5.838   2.985  0.0376 -0.1582 -0.0451
28068W        W46922   7.364   3.339   1.350 -0.2091  0.4447  0.1260
28069W        W46923   0.955   8.741   3.553  0.2745  0.0931 -0.1037
28070W        W46924  10.773  11.161   2.885  0.0985 -0.0729  0.1939
28071W        W46925  11.630   5.522   1.607 -0.1339  0.1447  0.5452
28072W        W46926   6.845   0.685   2.500  0.2021  0.1120 -0.0016
28073W        W46927   9.237  16.755  13.128  0.0485  0.1018  0.0726
28074W        W46928   2.175  13.700   2.037 -0.1613  0.0008  0.2401
28075W        W46929   7.698  14.806  15.429 -0.1619 -0.0665 -0.0365
28076W        W46930   9.351  15.366  13.579 -0.2629  0.2732  0.0421
28077W        W46931   8.962   6.984  15.641 -0.0213  0.2763 -0.2247
28078W        W46932   7.892   1.422   0.746  0.0270  0.2478  0.3904
28079W        W46933   4.769  11.579   2.114 -0.0538 -0.0706  0.3522
28080W        W46934   6.252   3.564  17.211 -0.1144 -0.2392 -0.0277
28081W        W46935  11.236  11.103   4.647 -0.1116 -0.0233 -0.4028
28082W        W46936   4.657   1.693   0.806  0.0463  0.0258 -0.0936
28083W        W46937   7.570   3.292  16.975  0.0397 -0.2188 -0.4647
28084W        W46938  10.135   9.461  12.766 -0.0773 -0.1337 -0.1489
28085W        W46939  15.643   9.100  13.696 -0.0237  0.0436 -0.2810
28086W        W46940   9.207   1.456  16.652  0.2571  0.0251  0.2803
28087W        W46941   0.203   5.784   1.936 -0.0238 -0.3431  0.1310
28088W        W46942   7.437  15.804   5.597 -0.0479 -0.2535 -0.1365
28089W        W46943   9.507   1.374   0.536 -0.1187 -0.3243 -0.0362
28090W        W46944   2.594   9.064   1.509 -0.1668 -0.2703  0.4119
28091W        W46945  13.406   7.296  13.224 -0.0286 -0.1468  0.1000
28092W        W46946   5.595  13.233   3.893 -0.2410 -0.1980  0.3042
28093W        W46947   7.271   8.843   0.147  0.1765 -0.1938  0.1504
28094W        W46948   0.466  10.807   2.921  0.0594 -0.1280  0.2284
28095W        W46949  11.505   3.435   3.451 -0.0853 -0.1792 -0.0636
28096W        W46950  12.168   8.068   0.246  0.0660 -0.1775 -0.0599
28097W        W46951   1.826   2.696   1.080  0.2261  0.3050  0.0185
28098W        W46952   3.479   9.614  13.120 -0.0906  0.0931  0.0659
28099W        W46953   5.383   5.091   0.826 -0.0440 -0.0600  0.3627
28100W        W46954   4.545  12.733   0.147  0.4732 -0.0126 -0.1965
28101W        W46955  12.231   3.002   5.159  0.0748  0.2549  0.2134
28102W        W46956   4.275  16.146   4.082  0.0472  0.1243 -0.0770
28103W        W46957  10.093   7.199  16.203  0.1326  0.2458 -0.0745
28104W        W46958  10.142   4.645   5.021 -0.1072 -0.1920 -0.0521
28105W        W46959   5.930  13.771  15.670 -0.0743 -0.0922  0.0662
28106W        W46960  13.122   3.619  16.321 -0.1826  0.0147 -0.1611
28107W        W46961  11.623   3.021  13.191  0.1862 -0.0159  0.0847
28108W        W46962  15.190   4.246   4.232 -0.1719 -0.0119 -0.0039
28109W        W46963  16.573  12.274  16.408  0.1987 -0.2042 -0.3057
28110W        W46964   1.490  11.075   1.392  0.0119  0.0987  0.3472
28111W        W46965   2.106   6.785  15.489  0.3479  0.0426 -0.0125
28112W        W46966   8.381  12.347   2.014 -0.1148 -0.0958  0.0843
28113W        W46967  15.394   9.929   5.032  0.1159  0.3589  0.0814
28114W        W46968  13.820  14.848   0.968  0.2356 -0.3404 -0.1813
28115W        W46969   0.899  16.262   0.991 -0.2006  0.1655 -0.3147
28116W        W46970  15.947  12.273  13.662 -0.1973  0.1580  0.0241
28117W        W46971   4.421   6.333   0.499 -0.1550  0.2193 -0.1303
28118W        W46972  10.641  11.214  15.312  0.1926  0.2263 -0.0677
28119W        W46973   6.819  13.023   5.530 -0.0322  0.1297 -0.2579
28120W        W46974   7.383   2.452  15.401  0.3008  0.0344 -0.3665
28121W        W46975   2.022  15.694  15.078  0.0473  0.1257 -0.1276
28122W        W46976  17.036  15.343  15.225  0.1091 -0.1224  0.0981
28123W        W46977  12.114   8.567   0.505 -0.0917 -0.0572 -0.0136
28124W        W46978   3.845  16.665  16.443  0.0407  0.1516  0.0330
28125W        W46979   2.601   2.044   4.010  0.1214 -0.0107  0.1240
28126W        W46980   8.420  13.173   4.138  0.2857  0.1859  0.2627
28127W        W46981   7.981   6.474   4.621 -0.0228 -0.1475 -0.3825
28128W        W46982   2.937   2.658   4.623 -0.1982 -0.1516 -0.2485
28129W        W46983   7.134  17.151  16.203 -0.0362  0.0456  0.1010
28130W        W46984   6.452  14.706  15.168 -0.2037  0.3069 -0.2480
28131W        W46985   9.579   2.686  14.619 -0.2809  0.0384 -0.1403
28132W        W46986   9.640  13.284  12.759  0.0573 -0.1410 -0.0424
28133W        W46987  15.565   6.140  14.770  0.0527 -0.1501  0.1065
28134W        W46988  16.071  10.279   4.499 -0.1170  0.1185 -0.0705
28135W        W46989  13.248   0.963   0.418  0.0691 -0.0691  0.0056
28136W        W46990   8.137   7.547   3.719  0.1293  0.1421 -0.0021
28137W        W46991   6.096  14.345   0.874 -0.3492 -0.1759  0.1068
28138W        W46992   9.088   9.072  12.417 -0.0230 -0.0633  0.1249
28139W        W46993  11.136   9.830   0.481  0.2444  0.3235  0.1431
28140W        W46994   8.174   7.563   1.033 -0.1140  0.0938  0.2874
28141W        W46995   0.250  16.405   1.790 -0.0985 -0.0104  0.1617
28142W        W46996  15.919   8.734   4.520 -0.0926 -0.1893 -0.1448
28143W        W46997   1.948  12.710  17.004  0.1152  0.3434  0.0749
28144W        W46998   9.362   7.035  14.711  0.0085  0.0413  0.1458
28145W        W46999   7.377   8.953  14.365  0.0001  0.1630  0.1407
28146W        W47000   4.279   6.595  12.449 -0.2724 -0.0866 -0.1975
28147W        W47001   4.080   3.628  12.167  0.0284  0.0068  0.0461
28148W        W47002   9.946   0.371   3.766  0.0891  0.0507 -0.2032
28149W        W47003   3.651   0.293  16.057  0.0925  0.4730  0.0221
28150W        W47004   5.568   9.552  12.598  0.1073 -0.0013  0.0755
28151W        W47005   8.279   9.362   0.925  0.0206  0.0249  0.1396
28152W        W47006   5.019   2.878  13.206 -0.0891  0.1866 -0.2009
28153W        W47007  12.724   0.773   3.247  0.1586  0.0401  0.0820
28154W        W47008  15.698  11.006  12.778 -0.1690 -0.0195 -0.2289
28155W        W47009   7.848   9.817  12.312 -0.0244 -0.1207  0.0064
28156W        W47010   4.420   8.709   4.264  0.0771  0.2489 -0.2371
28157W        W47011   0.694   9.517  15.229 -0.0577 -0.1124  0.0871
28158W        W47012   7.296  16.939  12.373  0.0921  0.1469 -0.1023
28159W        W47013   3.033   1.707   1.452 -0.2505 -0.0120  0.2705
28160W        W47014   1.861  14.898   4.804  0.3423 -0.0679  0.1181
28161W        W47015  12.616   4.000   2.106  0.0162  0.0711 -0.1557
28162W        W47016  14.370   1.749   1.126  0.1439 -0.1608  0.0912
28163W        W47017   6.299   4.505   4.119  0.0218 -0.4181 -0.1628
28164W        W47018   5.974   1.145   0.998  0.0113  0.1236  0.0857
28165W        W47019  12.885   7.677   3.868  0.0925  0.1331 -0.1548
28166W        W47020   0.562  14.702  16.277  0.0393 -0.2157 -0.1316
28167W        W47021  17.408  16.530  13.926 -0.1967 -0.3166 -0.2267
28168W        W47022  11.208  16.842   2.305  0.3008 -0.2030  0.2427
28169W        W47023   6.343  13.858   4.301 -0.1806  0.1573  0.2115
28170W        W47024   1.191  11.472   1.254  0.0672 -0.3653  0.3460
28171W        W47025   1.864  16.768   2.786 -0.0572  0.0347 -0.2543
28172W        W47026   3.961  10.917   4.379  0.0842  0.1425 -0.1208
28173W        W47027  15.627   2.263   1.873  0.0699 -0.2065  0.0040
28174W        W47028  11.503   5.011  13.494 -0.1891 -0.0327  0.2298
28175W        W47029  10.487   1.999  13.219 -0.1482  0.2995 -0.1136
28176W        W47030  13.615   7.635  15.961 -0.2950  0.0712  0.2138
28177W        W47031   5.256   2.182   0.840 -0.1672  0.0972 -0.1654
28178W        W47032  16.904  15.268  16.965  0.2144 -0.3035 -0.1776
28179W        W47033   5.682   0.316  16.193 -0.0011  0.0082  0.2546
28180W        W47034   9.711   0.125  13.063  0.2107  0.0115 -0.1432
28181W        W47035  12.478   5.491   3.600  0.0193 -0.0481 -0.0192
28182W        W47036   2.427   2.960   0.630 -0.0308  0.2958  0.0328
28183W        W47037   7.172   1.985   1.178  0.3082 -0.0961 -0.0591
28184W        W47038  16.229   3.436  14.950  0.0884  0.0688  0.0135
28185W        W47039   4.568   3.959  16.683 -0.1111 -0.0568 -0.1444
28186W        W47040  12.906   3.708   2.966  0.1118  0.0136  0.1086
28187W        W47041  12.543   3.707  10.996  0.0898 -0.0758 -0.1505
28188W        W47042  15.885   7.926   4.565  0.3627  0.1820  0.0430
28189W        W47043  11.463  10.442  14.824  0.1193 -0.1802  0.0513
28190W        W47044   6.384   9.547  14.788  0.1313  0.0901  0.2231
28191W        W47045   2.842  16.408   0.633  0.0978 -0.2875  0.1754
28192W        W47046   1.829   8.927   3.255  0.0087 -0.0132 -0.1455
28193W        W47047   6.937   0.375   1.281  0.1655  0.0883  0.2064
28194W        W47048  15.002   7.093  16.448 -0.1618 -0.1448 -0.2271
28195W        W47049   4.536  16.700   3.349 -0.2121 -0.2412  0.0544
28196W        W47050   1.750   7.816  16.958  0.1424 -0.3474 -0.0408
28197W        W47051   4.742   6.385  14.772  0.0851 -0.0418 -0.0066
28198W        W47052  13.060   3.685  14.534  0.2433 -0.3484 -0.4589
28199W        W47053  16.259  15.653   4.162 -0.3426  0.1381 -0.0036
28200W        W47054   0.593  15.416  12.698  0.2423  0.1711 -0.0200
28201W        W47055   0.561  12.212   2.572 -0.1335 -0.0701  0.0358
28202W        W47056   7.254   7.164   2.495  0.2209 -0.2781  0.0015
28203W        W47057   4.526  15.035   1.099  0.0888  0.3235  0.0713
28204W        W47058  16.762  16.284   1.847  0.0638 -0.1005  0.1813
28205W        W47059   7.852  11.590   2.050  0.0525 -0.1088 -0.0916
28206W        W47060  11.814   3.170   1.200 -0.0970  0.1415 -0.1285
28207W        W47061   9.474   0.133  14.383 -0.1632 -0.1121  0.2764
28208W        W47062   6.791   0.522  12.490  0.0712  0.1100 -0.1181
28209W        W47063  15.432  16.825  16.454  0.2433 -0.0403 -0.0256
28210W        W47064  15.468   1.056  14.514 -0.3492  0.2902  0.2362
28211W        W47065   6.640  11.247  13.251 -0.0256 -0.0473 -0.0920
28212W        W47066   1.611   9.757  16.704 -0.0616  0.0147  0.0341
28213W        W47067   7.713  13.702  15.613 -0.1394 -0.0622  0.2392
28214W        W47068  12.823  13.251  16.979  0.2193  0.0090 -0.1095
28215W        W47069   0.458   4.733  16.968  0.4233 -0.2633 -0.4447
28216W        W47070   5.710   2.723  13.411 -0.5478  0.1316  0.1958
28217W        W47071  11.051   5.677  15.716 -0.0347 -0.2873 -0.0969
28218W        W47072  10.676   3.724   1.955  0.0051  0.1444  0.0393
28219W        W47073  15.527  15.467  15.951 -0.0254 -0.0263  0.0295
28220W        W47074   7.160   1.233  13.109 -0.3038  0.1354  0.1904
28221W        W47075   8.051   3.417  16.874 -0.2037  0.1774 -0.1258
28222W        W47076   2.912  11.690   2.151  0.0851  0.2472 -0.0784
28223W        W47077  15.749   4.136  16.179 -0.0530 -0.0812  0.0552
28224W        W47078   3.258   7.212   1.556 -0.3133 -0.2146  0.1393
28225W        W47079   0.296   4.932  16.541  0.0927  0.3193 -0.2115
28226W        W47080  11.601  13.818   5.576  0.1464  0.2001  0.0330
28227W        W47081  11.319   6.221  15.046 -0.0698  0.3294  0.2353
28228W        W47082   0.994   3.045  13.642  0.0658 -0.0264 -0.0870
28229W        W47083   9.432   5.811   3.153  0.2759  0.0520 -0.0965
28230W        W47084   1.479  10.957   1.921  0.1858  0.0041  0.1620
28231W        W47085   8.623  10.617   4.126  0.3225 -0.1795 -0.4560
28232W        W47086   4.181   5.712  16.265  0.0195 -0.1123  0.1733
28233W        W47087  13.104  10.332   3.488  0.2715  0.1243 -0.1481
28234W        W47088   8.342   2.659   0.489  0.0481  0.0103 -0.2578
28235W        W47089   2.635   2.429  14.566 -0.0013  0.1052 -0.1429
28236W        W47090   7.722  13.777  12.319  0.0217 -0.3649  0.1754
28237W        W47091  13.227   5.188  15.739 -0.1395 -0.0310 -0.0723
28238W        W47092   9.322  11.123   4.358 -0.0209 -0.0539  0.0616
28239W        W47093  10.580   5.946   2.895 -0.1582 -0.2254 -0.1589
28240W        W47094  15.636  13.479   2.964  0.1962 -0.2466 -0.2946
28241W        W47095   8.380   9.063  16.458 -0.3499  0.0575 -0.2360
28242W        W47096   5.455   9.109  14.944  0.1082 -0.2018  0.0558
28243W        W47097  16.910  11.970  15.973 -0.0110 -0.0991 -0.1708
28244W        W47098  13.976  11.164  14.450 -0.2313 -0.1330  0.1305
28245W        W47099  14.628   3.211   3.958 -0.2926 -0.1320  0.0839
28246W        W47100  14.438   3.977   4.939  0.0651 -0.1707 -0.1986
28247W        W47101   1.921   9.930  14.454 -0.0396 -0.0869 -0.5127
28248W        W47102   3.264  16.344  16.949  0.1836  0.1609 -0.1495
28249W        W47103  10.539   8.244  12.825  0.0879 -0.0845 -0.1034
28250W        W47104  14.905   9.952  14.578  0.0840 -0.0504  0.3315
28251W        W47105  17.016  10.021  13.548 -0.2358 -0.2310  0.3589
28252W        W47106   4.207   0.075   4.345 -0.1612  0.1034  0.2326
28253W        W47107  14.699  14.802   3.228 -0.0279 -0.2817  0.2108
28254W        W47108   6.458   1.283   1.022  0.1790  0.0314  0.1092
28255W        W47109   1.160   4.718  15.218  0.0010 -0.1565 -0.2153
28256W        W47110  14.901   5.507   1.966  0.2303  0.0394  0.0077
28257W        W47111  15.761   3.900  13.171  0.2036 -0.1746  0.1630
28258W        W47112   9.635  17.590   0.091  0.1620  0.2698 -0.0616
28259W        W47113   0.128  16.324   3.638 -0.1198 -0.0108 -0.4511
28260W        W47114  10.687  13.671  13.753  0.2428  0.0913 -0.3111
28261W        W47115  14.699  16.824  12.339  0.3606  0.0147  0.1018
28262W        W47116  14.031  13.066  14.913 -0.1548 -0.3527  0.2479
28263W        W47117  12.717   0.302   3.103 -0.0010 -0.2552  0.0809
28264W        W47118   9.429   6.945   1.047  0.1323 -0.3426 -0.0702
28265W        W47119  16.506   1.219   1.674 -0.1043 -0.1926  0.3565
28266W        W47120  11.136   2.039  16.499 -0.0467  0.1623 -0.1103
28267W        W47121  16.932  12.156   1.681  0.1198  0.1846 -0.0110
28268W        W47122   1.907  16.077   2.496  0.4729 -0.3717 -0.1710
28269W        W47123   4.751   6.777   1.687  0.1710  0.3994 -0.1438
28270W        W47124  16.571  12.774   0.955  0.0986 -0.1320 -0.0978
28271W        W47125  15.037   4.260   3.724  0.3224  0.0984 -0.1336
28272W        W47126  10.840   9.993  15.592  0.0956  0.5085 -0.1283
28273W        W47127   5.828   5.205  16.307  0.3634  0.3646 -0.0605
28274W        W47128  10.639   2.756  17.031 -0.0312  0.1157  0.1266
28275W        W47129   3.027  12.564   4.125  0.2479 -0.0921 -0.2862
28276W        W47130   7.169   4.185  14.788 -0.1807  0.0671 -0.0039
28277W        W47131   9.192  17.037   1.454 -0.2169 -0.1413  0.0714
28278W        W47132  12.241   7.303  15.487 -0.3663  0.1552 -0.1093
28279W        W47133   3.530   0.094   0.224  0.0833 -0.0255 -0.1407
28280W        W47134  14.188   0.187   2.541  0.3705 -0.3976 -0.1010
28281W        W47135   2.582   6.639   4.289 -0.3307  0.1277  0.2269
28282W        W47136   0.471  10.742  13.012 -0.1419 -0.3687  0.2560
28283W        W47137   1.565   0.833   2.733  0.1610  0.3332  0.1297
28284W        W47138   6.147  10.399   1.244  0.0311  0.1161  0.1145
28285W        W47139   2.695   2.986  16.102 -0.2626  0.3814 -0.2858
28286W        W47140   1.869  14.611   0.507 -0.0073  0.0184 -0.0631
28287W        W47141   2.564   8.736  15.544 -0.1308  0.2596 -0.2311
28288W        W47142  12.284  14.069   0.652 -0.3508  0.0373 -0.0892
28289W        W47143   9.051   1.834  16.910  0.1402 -0.0670  0.0638
28290W        W47144   3.846  16.435  14.958 -0.0060 -0.0574  0.0615
28291W        W47145  17.024   0.791  12.922 -0.1513  0.1936 -0.2988
28292W        W47146   3.604   4.468  16.773 -0.2356 -0.0286  0.1496
28293W        W47147   2.370  11.756  13.738 -0.0020  0.3848  0.1224
28294W        W47148  14.397   9.639  15.757 -0.1676  0.0405 -0.1851
28295W        W47149   5.509  14.736  15.329  0.1943 -0.1152  0.0350
28296W        W47150   0.410   9.310   5.613  0.0691 -0.1168 -0.1807
28297W        W47151   1.030  14.385  14.368  0.0747 -0.0504  0.1478
28298W        W47152   6.039   9.728  16.377 -0.1874  0.1505  0.0110
28299W        W47153   9.846   1.691  13.457 -0.2073  0.1281  0.0774
28300W        W47154  16.687   6.928   2.532 -0.0218  0.3569 -0.1663
28301W        W47155  10.346   6.254   1.451 -0.3411  0.1857  0.1956
28302W        W47156  16.908   4.111  16.867 -0.0673  0.1312  0.1832
28303W        W47157   9.709  17.045   0.193 -0.1738 -0.2583 -0.1380
28304W        W47158  10.814   3.100   2.345  0.2770 -0.0126 -0.0085
28305W        W47159  11.083  14.576   5.438 -0.0353 -0.1320 -0.0343
28306W        W47160   4.063  13.709   2.003  0.0243  0.1411 -0.3813
28307W        W47161   2.932   5.348  13.970 -0.2890 -0.0931  0.0086
28308W        W47162   2.738   6.417   0.009 -0.0037  0.0518 -0.0453
28309W        W47163   0.060   2.201  13.604 -0.1280 -0.0622  0.0388
28310W        W47164  11.324   0.557  12.200 -0.1113 -0.1681  0.1126
28311W        W47165   5.549   5.343   2.866  0.1474  0.3539 -0.0495
28312W        W47166  16.173  12.373  14.533  0.1585  0.1958  0.1844
28313W        W47167  16.450   2.231   0.985 -0.2139  0.0880  0.0178
28314W        W47168   9.136  12.176  12.273  0.1174  0.0447  0.0382
28315W        W47169   1.990  10.551   4.524 -0.3517  0.0556  0.0917
28316W        W47170   8.986  14.467   4.358  0.1772 -0.1607  0.0917
28317W        W47171  13.398   6.793   2.624 -0.0258  0.3434 -0.0242
28318W        W47172   3.831  14.746  12.649  0.1409 -0.0177  0.0257
28319W        W47173   8.285  11.311  13.883  0.2042 -0.2906 -0.2183
28320W        W47174  12.910  10.262  13.388 -0.3625  0.1201  0.1767
28321W        W47175   1.980   6.659   4.643 -0.0049 -0.0525  0.0254
28322W        W47176   6.587   4.375  12.429  0.1968  0.1559  0.0742
28323W        W47177  17.577  15.707   1.203  0.0796  0.0790  0.1398
28324W        W47178   7.016  13.239  12.298 -0.0058 -0.1747 -0.0368
28325W        W47179   0.036  15.212   3.659 -0.0192  0.0567  0.1828
28326W        W47180   4.620   0.480   0.971  0.4181 -0.1610 -0.0142
28327W        W47181  10.826   3.706  12.178 -0.1219 -0.1048  0.1931
28328W        W47182  13.835  14.996  14.911  0.2969 -0.1051  0.2570
28329W        W47183   8.120   0.584  16.404 -0.2097 -0.2021  0.2998
28330W        W47184  12.885  12.245  17.162  0.1686 -0.1828 -0.0130
28331W        W47185  12.711  13.692   0.408 -0.1239  0.0694 -0.3594
28332W        W47186  14.066  13.803  12.565 -0.2119 -0.3292  0.1310
28333W        W47187  15.680  14.770   4.454  0.2498 -0.3973 -0.1480
28334W        W47188  16.483  15.737  15.965 -0.1838  0.3156  0.2704
28335W        W47189  16.714  11.664  15.197  0.0332  0.3685  0.0047
28336W        W47190   6.879   0.510   4.956 -0.0389  0.0743  0.2926
28337W        W47191   1.452   2.420   3.671 -0.0767 -0.4080 -0.0071
28338W        W47192  14.235   2.237   0.988 -0.0658  0.1961  0.0861
28339W        W47193   6.976   0.649   0.092  0.0414 -0.1736 -0.2551
28340W        W47194  10.201  16.272   1.816 -0.0172  0.0842  0.0607
28341W        W47195  15.662  10.985   0.397 -0.0079  0.2141 -0.0842
28342W        W47196  11.363  15.588   3.352 -0.2758  0.2539  0.0787
28343W        W47197   7.048   9.683   0.663  0.1117  0.0989 -0.0762
28344W        W47198  16.296   9.423  13.332 -0.2995 -0.4111  0.2614
28345W        W47199   5.272  13.712   6.223  0.1835  0.1554 -0.6251
28346W        W47200   1.845   2.924  17.099 -0.1817 -0.1404 -0.0213
28347W        W47201   8.059   5.574  13.689  0.1428  0.5455  0.2598
28348W        W47202   3.151   7.364   4.146  0.3771  0.2306  0.1848
28349W        W47203   5.264  12.664  14.079  0.0167  0.0320  0.4371
28350W        W47204  13.383  14.945   1.657 -0.3907  0.3968 -0.4958
28351W        W47205   1.978  17.016   3.855  0.0284 -0.1979  0.0982
28352W        W47206   4.130  13.888   1.391  0.0414  0.0353 -0.0085
28353W        W47207   9.168   3.226   4.952 -0.0211 -0.0331 -0.0765
28354W        W47208   6.899   6.863  15.572  0.1129  0.2805 -0.0144
28355W        W47209  13.548  16.903   0.109 -0.0759 -0.0232  0.0800
28356W        W47210  15.469   7.679   3.860 -0.1595  0.0768  0.0400
28357W        W47211  16.453  16.704   1.675 -0.1262  0.2078 -0.0309
28358W        W47212   1.318   5.097  13.761  0.0609  0.0425  0.0785
28359W        W47213  13.391   4.871   1.445 -0.1248 -0.2337 -0.0090
28360W        W47214  10.470  10.676   0.801 -0.2700  0.3326 -0.2987
28361W        W47215  16.956   7.544   2.868  0.1346 -0.2589 -0.2041
28362W        W47216   8.631   4.808  13.572  0.2609  0.1361 -0.2535
28363W        W47217  10.025   3.253   2.251 -0.0324  0.2245 -0.0187
28364W        W47218   8.683  16.588   4.440  0.1816  0.0085  0.1845
28365W        W47219  13.933  11.582   2.873 -0.0189 -0.0604 -0.3352
28366W        W47220   6.314   9.398   2.170 -0.0651  0.0964  0.1394
28367W        W47221  14.139   9.276   3.889  0.1175 -0.1200 -0.0772
28368W        W47222   4.714  16.815  16.427 -0.0061  0.0543 -0.0469
28369W        W47223   7.024   4.471   2.335  0.1334 -0.0908  0.2364
28370W        W47224   6.531  14.847   2.230  0.0616 -0.0492 -0.1246
28371W        W47225  11.239  12.879   4.669 -0.0787  0.0948 -0.1022
28372W        W47226   9.585  12.919   5.068 -0.0142 -0.0619  0.1430
28373W        W47227   7.703   5.437   0.536  0.1197  0.1045 -0.1066
28374W        W47228  10.961   6.443   4.714  0.2136  0.3501 -0.1732
28375W        W47229  11.636  17.002   1.283 -0.2126 -0.0356 -0.1893
28376W        W47230   1.234  14.070   1.803  0.5009 -0.2572  0.0545
28377W        W47231   6.489   5.156   2.983  0.1737 -0.1024  0.0611
28378W        W47232   5.784   7.862  14.537 -0.1214 -0.1404 -0.1500
28379W        W47233   0.441   2.975  16.646  0.1776 -0.0228  0.0779
28380W        W47234   4.575   9.529  15.575  0.1203 -0.2812  0.0628
28381W        W47235   4.031   8.218  13.138  0.0134  0.0808 -0.2530
28382W        W47236   7.957  17.014   3.438  0.1669 -0.0366  0.1654
28383W        W47237   3.446  12.950   1.926  0.0344 -0.1645 -0.1257
28384W        W47238   4.504  11.556   4.081  0.0175 -0.3305 -0.0278
28385W        W47239   5.236  10.390  12.108 -0.3647 -0.0525  0.3085
28386W        W47240   9.583   9.410  14.621 -0.0342  0.2076  0.1368
28387W        W47241  12.059   4.742   0.005  0.0400 -0.1487  0.1385
28388W        W47242  17.586  13.269   4.479 -0.0942  0.2317 -0.2047
28389W        W47243  13.124   4.056   3.288 -0.0530 -0.1786 -0.0654
28390W        W47244  11.431   2.111  15.147  0.2538 -0.2342  0.1251
28391W        W47245   2.250  10.431   3.322  0.2425 -0.1703  0.2453
28392W        W47246  16.066  12.758  15.944  0.0130  0.0623  0.3237
28393W        W47247   3.651  16.823   0.510  0.0033  0.2366 -0.0878
28394W        W47248   9.852   2.175  17.115  0.0331  0.1732  0.3036
28395W        W47249   1.196   6.916  15.363 -0.1878  0.1185 -0.2426
28396W        W47250  12.919   0.740   0.680  0.0827 -0.2052 -0.2521
28397W        W47251   3.119   2.119   0.696 -0.1192 -0.0741 -0.3008
28398W        W47252   8.683   7.489   1.345  0.2210 -0.2152  0.0073
28399W        W47253  14.493   9.365  13.387  0.0345 -0.2401  0.3181
28400W        W47254   4.180  10.219   2.079  0.1915 -0.0964 -0.0370
28401W        W47255   3.411  16.828  12.392 -0.1633 -0.0242  0.0077
28402W        W47256   9.598   7.781   2.677  0.2166 -0.2777  0.3418
28403W        W47257   6.299   6.874   0.795 -0.0571 -0.2900  0.1428
28404W        W47258   4.979  14.408  13.324  0.1772  0.1042 -0.3764
28405W        W47259  10.705  11.375  12.589  0.0491  0.0460  0.0824
28406W        W47260  15.557  16.728  15.159 -0.1243 -0.1598 -0.2100
28407W        W47261   4.407  13.409   4.275 -0.1427  0.1394  0.3462
28408W        W47262   5.936  12.797   0.532  0.0048 -0.0425  0.1887
28409W        W47263   5.933   7.642  16.170 -0.0823  0.1011 -0.0934
28410W        W47264  11.476   2.278   3.460 -0.2008 -0.0957  0.0627
28411W        W47265  16.355   9.946  15.722 -0.1845 -0.1869  0.4079
28412W        W47266   9.676   6.030  15.809 -0.1809  0.0936  0.1087
28413W        W47267  16.089   5.107   2.701  0.5261 -0.0326 -0.1789
28414W        W47268  14.470  10.671   1.919  0.1725 -0.0456  0.2129
28415W        W47269  15.118   3.767  13.663 -0.0056 -0.1497  0.0579
28416W        W47270   5.007  10.906   3.912  0.2921  0.1838 -0.0381
28417W        W47271  11.577   4.097  14.012  0.1718 -0.1621 -0.0298
28418W        W47272   7.671  10.932  15.297 -0.2263 -0.3042 -0.1268
28419W        W47273  16.596   8.741   6.483 -0.1566  0.0793 -0.2245
28420W        W47274   0.619  12.875  14.259 -0.1881 -0.0939  0.1653
28421W        W47275   2.295  13.212   3.160  0.1532 -0.0083  0.1287
28422W        W47276  15.540   4.371  12.497  0.2357 -0.1361  0.2330
28423W        W47277  16.964  14.106  14.005 -0.0398 -0.1091 -0.2030
28424W        W47278  12.708   7.135  16.580  0.0312 -0.0996 -0.1328
28425W        W47279  17.127   6.494   1.638 -0.1610 -0.4317 -0.3744
28426W        W47280  12.473   1.529   2.754  0.1909  0.3806 -0.0238
28427W        W47281   8.877   3.472  14.935  0.1104  0.3046  0.1290
28428W        W47282   8.955  14.143  14.381  0.1196  0.1084  0.3644
28429W        W47283   1.293  11.121  16.946  0.1616  0.0075  0.1706
28430W        W47284  10.065   6.528   1.771  0.2380 -0.0824  0.2117
28431W        W47285  15.287   9.168   1.251 -0.1336 -0.0278 -0.2934
28432W        W47286   3.973  11.653  14.946  0.0722  0.0075  0.4542
28433W        W47287   9.113   1.232   0.842 -0.2543  0.1848  0.0019
28434W        W47288   4.949   3.957   3.333  0.1137  0.0128 -0.3196
28435W        W47289   0.337  10.726  12.372 -0.5187  0.2739 -0.1723
28436W        W47290  12.850  14.968  16.190  0.3329 -0.1286 -0.0950
28437W        W47291  14.737   4.190  16.272 -0.2206 -0.2220 -0.3530
28438W        W47292   3.075   4.872  16.208  0.0254  0.0565  0.0844
28439W        W47293   6.116  17.194   0.341 -0.1926  0.0472 -0.1585
28440W        W47294  11.488   3.939   3.106 -0.0164 -0.0541  0.2772
28441W        W47295   8.485  10.216  14.969 -0.2113 -0.1183  0.1685
28442W        W47296  16.584  15.132   4.703 -0.2404 -0.1647  0.0707
28443W        W47297  10.062   6.552  16.371 -0.3174  0.0233 -0.0607
28444W        W47298   4.669   0.821  12.833  0.1840  0.0618  0.1152
28445W        W47299  13.025  16.499  16.136  0.1824 -0.1805 -0.1243
28446W        W47300   8.325   5.205   1.957  0.0950  0.0077  0.0421
28447W        W47301  10.337  12.814  12.609  0.2585  0.0612  0.0687
28448W        W47302   0.016   4.601  14.805  0.0451  0.2581 -0.1281
28449W        W47303  15.928   5.958   4.326  0.1237  0.0908  0.1330
28450W        W47304   7.660  12.895   1.575 -0.0457 -0.4057  0.2139
28451W        W47305   2.576   8.394  16.875 -0.2109 -0.0221 -0.0045
28452W        W47306   2.408  14.283   1.188 -0.0305  0.4008  0.0076
28453W        W47307   5.570   9.542   4.522 -0.1377  0.2273  0.2597
28454W        W47308   5.425   4.802  17.179 -0.0612 -0.2247  0.4113
28455W        W47309  16.533   2.857   2.851  0.0912 -0.0293  0.1050
28456W        W47310  10.427  12.989  15.934 -0.2190 -0.1080  0.1730
28457W        W47311   9.124   6.341  16.264  0.3379  0.3828 -0.3808
28458W        W47312   7.146  16.231   1.888  0.2435 -0.1863 -0.0587
28459W        W47313   7.654   6.724   5.213 -0.2353  0.2801 -0.1568
28460W        W47314   9.001  14.205   2.655 -0.1213 -0.0974  0.0545
28461W        W47315   8.311  16.261  15.334  0.1369  0.0723 -0.1813
28462W        W47316   8.500  17.256  13.863  0.1539 -0.1103 -0.0543
28463W        W47317  10.810  17.143  16.170  0.2107  0.1069 -0.1345
28464W        W47318  17.591   0.999   2.311 -0.1413  0.0668  0.0397
28465W        W47319   3.933  11.214  12.554 -0.0021 -0.1421  0.0692
28466W        W47320  12.612  15.299  13.481  0.0944 -0.1658  0.2925
28467W        W47321  10.333   6.714  12.348 -0.2633  0.0988  0.0548
28468W        W47322  11.320  12.396  14.741  0.2090 -0.0427 -0.0710
28469W        W47323  13.355   5.390   2.815  0.1878 -0.3333  0.0500
28470W        W47324  10.043   1.871  16.562 -0.4005  0.1033 -0.2214
28471W        W47325   7.064  16.696   4.027  0.2102 -0.1141  0.1400
28472W        W47326  12.725  16.124   1.636  0.0081  0.0851  0.1203
28473W        W47327  16.491  10.516  14.043  0.0917 -0.0291  0.3039
28474W        W47328  11.248   1.267   0.150  0.0881 -0.1185 -0.1582
28475W        W47329  12.703   4.404   3.461 -0.0571 -0.0725  0.2198
28476W        W47330   6.942   5.800   2.449  0.3298 -0.1448 -0.0296
28477W        W47331  10.899  12.720  13.953  0.0193 -0.0412 -0.0187
28478W        W47332  15.094   1.964  12.956  0.0691  0.0193 -0.2038
28479W        W47333   7.750  10.280  16.010 -0.4637  0.3795 -0.1432
28480W        W47334   4.810   7.875  13.009 -0.2365  0.1412 -0.1753
28481W        W47335   5.914  16.278   2.257 -0.0353 -0.1961 -0.1405
28482W        W47336   9.960  17.469  16.276 -0.2593  0.1198 -0.0884
28483W        W47337  15.080  17.475  14.740  0.1245 -0.0253 -0.0406
28484W        W47338   8.171  12.695   1.207  0.2882 -0.1589 -0.1240
28485W        W47339   3.914  11.708  12.740 -0.1494  0.2601 -0.3499
28486W        W47340   4.182  17.575   1.244 -0.0099 -0.0666 -0.1765
28487W        W47341   9.415  15.432  14.834 -0.1718 -0.0230  0.0942
28488W        W47342   1.955   2.449   0.111  0.0425 -0.2431  0.0162
28489W        W47343   3.209  12.245   2.460 -0.1337 -0.2442  0.0396
28490W        W47344  14.731  14.247   1.306  0.1134  0.2083  0.0919
28491W        W47345   8.282   5.605   1.630  0.2288 -0.0164  0.0365
28492W        W47346  13.835  11.363   4.798 -0.3178  0.1557  0.1019
28493W        W47347   7.798  10.636  14.926 -0.1477  0.1664 -0.0978
28494W        W47348   8.953   7.524   2.663 -0.0233 -0.0429  0.1228
28495W        W47349   9.825  14.474  15.837 -0.0489  0.0605 -0.2857
28496W        W47350   5.409   9.628  16.791 -0.0150  0.2017 -0.0550
28497W        W47351  12.942  13.546   5.866  0.1167  0.2127  0.2562
28498W        W47352   0.573   8.495   2.827 -0.1264 -0.0810  0.2625
28499W        W47353   9.222   9.026  15.181 -0.1619  0.1663  0.0742
28500W        W47354  12.345  17.164   0.126 -0.0913  0.1088 -0.0559
28501W        W47355  11.985   6.484   4.230  0.0284 -0.4553  0.5258
28502W        W47356  15.048   3.857   4.626  0.1104 -0.1666  0.3064
28503W        W47357   5.493   2.242   2.381 -0.0208 -0.2032  0.1004
28504W        W47358  16.566  14.206  12.577  0.1482 -0.0740 -0.2204
28505W        W47359  13.659  10.440  13.172  0.2489  0.1995 -0.0949
28506W        W47360  15.603   5.779   1.657 -0.2740 -0.2506 -0.0112
28507W        W47361   5.809  11.557   3.149 -0.0588  0.2778 -0.1946
28508W        W47362   5.148   0.284  14.429 -0.0772 -0.1149 -0.0931
28509W        W47363  13.523   6.234  12.684 -0.3260 -0.0491  0.0063
28510W        W47364   2.426  10.532   2.733  0.1201 -0.1944  0.0194
28511W        W47365  13.793  13.352  12.124 -0.1343  0.0891 -0.1671
28512W        W47366  13.710  12.337   0.661  0.0087 -0.0109 -0.2181
28513W        W47367   0.526  12.920   3.584  0.2143 -0.0891 -0.1642
28514W        W47368   8.546  16.664  16.597  0.0926 -0.1249 -0.0677
28515W        W47369  11.269  10.711   0.862  0.1252  0.0102 -0.2266
28516W        W47370   3.726   6.939   4.717  0.1623 -0.0117 -0.0534
28517W        W47371  11.945   3.800  13.184  0.1426 -0.0931  0.0984
28518W        W47372   4.871   3.500   3.549  0.1669 -0.1148 -0.2847
28519W        W47373  13.247  11.461  12.139 -0.3327  0.0012 -0.2281
28520W        W47374   3.257   6.552  12.525 -0.0155 -0.0683 -0.3187
28521W        W47375   0.255   0.673  16.497 -0.0404  0.1646 -0.3485
28522W        W47376  14.648  11.913  15.372  0.0599  0.2870 -0.3329
28523W        W47377  17.166   7.404  12.286 -0.0980 -0.1487  0.2646
28524W        W47378  11.322  15.072   0.911  0.1474 -0.2953  0.0287
28525W        W47379   0.809  16.682  12.610 -0.0243  0.2118 -0.1357
28526W        W47380  11.092  16.499  13.604  0.1806  0.3022  0.0427
28527W        W47381  11.775   0.361   4.997 -0.0606 -0.1751 -0.1869
28528W        W47382   3.416   8.867  12.007 -0.2565  0.1144  0.0358
28529W        W47383  11.891   9.578   4.555  0.2291 -0.0686  0.1953
28530W        W47384   6.011  14.006  17.120  0.2219 -0.3246  0.2364
28531W        W47385   1.413   2.102   1.959 -0.0420  0.0899  0.1861
28532W        W47386  13.444   4.997  14.031  0.0105  0.2392 -0.0598
28533W        W47387   6.368   8.012   1.051 -0.0359  0.1484  0.0369
28534W        W47388   2.113  15.544   2.504  0.1681  0.1511 -0.1615
28535W        W47389  16.892  15.703  13.776 -0.1085  0.2102 -0.1399
28536W        W47390   4.401   6.649  13.078  0.3335  0.1248  0.1371
28537W        W47391   7.456   8.169   2.372 -0.1628  0.0798 -0.3664
28538W        W47392  14.181  12.734   5.450  0.2691 -0.0347  0.0451
28539W        W47393   2.821   5.426   5.280  0.0434 -0.1178 -0.0034
28540W        W47394  12.994   1.696   3.805 -0.1953 -0.0154  0.1546
28541W        W47395   5.557  17.530  13.417 -0.1967  0.0845 -0.0103
28542W        W47396   4.283  13.317   1.420  0.2179 -0.0887  0.0263
28543W        W47397  12.370  14.404   1.524 -0.0079 -0.0742  0.0775
28544W        W47398  15.611   6.237  14.155 -0.0441 -0.0459 -0.1300
28545W        W47399   6.087   1.604   5.034  0.0047  0.1036 -0.0533
28546W        W47400  15.637   5.115   2.971 -0.2399 -0.1829  0.0659
28547W        W47401   8.515   1.618  15.307 -0.2280  0.0471  0.1564
28548W        W47402   4.697   9.849  13.789  0.0899 -0.2236 -0.0791
28549W        W47403  15.694   3.553   2.218  0.4577  0.0049  0.4947
28550W        W47404  15.941   4.710   4.459 -0.2326 -0.1072  0.3064
28551W        W47405   3.104   0.065  14.530 -0.2027  0.1712  0.2770
28552W        W47406   8.131  15.870   1.627  0.1032 -0.0186  0.1986
28553W        W47407  15.914   0.991  14.295 -0.1311 -0.1614 -0.0779
28554W        W47408   9.325   0.039  11.746 -0.1692 -0.1318  0.1275
28555W        W47409   9.071   3.759  12.641 -0.1748 -0.1153  0.0552
28556W        W47410   6.009  16.634   2.577 -0.3454  0.1158  0.2157
28557W        W47411   1.479  14.630  14.207  0.0960  0.2514  0.0247
28558W        W47412  15.128   9.015  17.026 -0.1206 -0.3841 -0.4502
28559W        W47413  16.326   0.721  14.097  0.1687 -0.1179 -0.4228
28560W        W47414   6.637  15.393   1.603  0.0246 -0.1104  0.0110
28561W        W47415   0.290  14.698  14.823  0.1793 -0.0102  0.2021
28562W        W47416  17.244   5.987   3.960 -0.0777 -0.0979 -0.1936
28563W        W47417   3.599  14.869  13.340 -0.0923 -0.0053 -0.3769
28564W        W47418  10.202  16.976  12.651  0.1163  0.0023  0.2402
28565W        W47419   6.956   6.840  12.439 -0.1280  0.0609 -0.0638
28566W        W47420   4.684   5.933  14.045  0.0593 -0.0017 -0.2447
28567W        W47421   8.923   4.556   1.182 -0.0557 -0.1646 -0.3454
28568W        W47422  17.491   8.253   3.295 -0.1293 -0.0765  0.2606
28569W        W47423   1.781  11.134  16.188 -0.2401  0.0947  0.1419
28570W        W47424   3.186   6.099  15.263  0.1343  0.0484  0.0587
28571W        W47425   0.672   5.170  12.554  0.0324  0.0795  0.0257
28572W        W47426  16.291  12.994   0.288 -0.3062 -0.1554  0.1729
28573W        W47427  15.540   1.178  12.101 -0.0132 -0.0966 -0.1314
28574W        W47428   3.740  14.349  16.455  0.3247 -0.0096  0.1113
28575W        W47429  15.306  15.228  14.757 -0.0632  0.2570 -0.1418
28576W        W47430   4.651  16.830   4.126 -0.0025  0.0163  0.0374
28577W        W47431  15.008   5.847  15.979 -0.2111 -0.0820  0.0916
28578W        W47432   3.188  16.698  12.790  0.1765  0.2730  0.0177
28579W        W47433   6.510   1.628   1.647 -0.1417  0.2277 -0.2471
28580W        W47434   5.996  11.931   0.094 -0.2507 -0.0731  0.2179
28581W        W47435   4.801  13.313  17.114 -0.1658 -0.0988  0.1321
28582W        W47436  14.780   7.754   2.021 -0.0620  0.0654  0.0668
28583W        W47437  14.530   7.855  12.612 -0.0866  0.2603 -0.1412
28584W        W47438  13.481   6.158  13.645 -0.0160 -0.1657  0.3127
28585W        W47439   4.996  10.673  12.477  0.0479  0.3450  0.1130
28586W        W47440   6.891  12.697   1.798 -0.1397 -0.0026  0.0511
28587W        W47441  13.673  16.192  14.193  0.1699  0.2896 -0.0829
28588W        W47442  12.601  11.934  13.564 -0.1522 -0.1738  0.1624
28589W        W47443  17.436   8.574  11.839 -0.3859 -0.2596 -0.0899
28590W        W47444   8.936  10.684  16.597 -0.3304 -0.0827 -0.1408
28591W        W47445  10.622   4.296   6.330  0.0690  0.0873  0.0625
28592W        W47446  11.353  14.068  17.028  0.0021  0.0314 -0.2440
28593W        W47447   7.819  14.299   0.662 -0.1117 -0.0854  0.1887
28594W        W47448  10.320  14.370  16.031 -0.1415 -0.0987  0.0657
28595W        W47449   1.757  13.966   3.059 -0.3090 -0.2619 -0.1825
28596W        W47450  13.677   5.683  12.419  0.2280  0.0694  0.1512
28597W        W47451  12.640   2.919   0.251 -0.1650 -0.0532 -0.0384
28598W        W47452  14.771  14.948   4.277  0.1121 -0.2260  0.1293
28599W        W47453   7.338   8.413  13.357 -0.0063 -0.0532 -0.3428
28600W        W47454   9.487  16.649  13.939 -0.0175  0.3740 -0.0422
28601W        W47455  15.887   1.308   4.355 -0.1744 -0.2337  0.0772
28602W        W47456  15.386   8.504  13.829 -0.1072 -0.0797 -0.1755
28603W        W47457   5.179  16.769  15.196 -0.2618  0.1810  0.0091
28604W        W47458  10.674  16.773  17.017  0.2290 -0.0612  0.1011
28605W        W47459   1.014   7.318  12.651  0.0836  0.4530 -0.0470
28606W        W47460   6.358   2.748  15.896  0.1022  0.0153 -0.0474
28607W        W47461   1.613  17.034   2.473  0.4188 -0.0968 -0.1803
28608W        W47462   2.577  16.121  12.796  0.0522  0.0505 -0.2101
28609W        W47463   7.558   4.662   2.378 -0.0380  0.1553 -0.3900
28610W        W47464  16.171  17.468  15.450  0.0532 -0.1804 -0.0402
28611W        W47465  12.293  13.063  16.980 -0.0519  0.0357  0.0426
28612W        W47466  11.483   0.440  14.925  0.0380 -0.0988  0.1882
28613W        W47467   1.582  15.376   1.733 -0.1360 -0.2185  0.1903
28614W        W47468   9.260  13.693   3.979 -0.1018  0.1897  0.1229
28615W        W47469  12.693   9.859  13.544  0.0727 -0.1001  0.2452
28616W        W47470   1.492   7.673  11.883  0.2720 -0.1893 -0.0142
28617W        W47471   2.360   2.696  16.431 -0.1306 -0.2231  0.1911
28618W        W47472   3.407  16.017   4.842  0.0316 -0.3910  0.1872
28619W        W47473   8.762  14.822   3.381  0.0743  0.0346 -0.0783
28620W        W47474   9.668   8.841   5.022  0.1080 -0.1417  0.1817
28621W        W47475   0.871  14.511   0.753 -0.0413  0.1796  0.2434
28622W        W47476   3.170   5.935   2.853  0.0663  0.0361  0.1924
28623W        W47477   5.489  16.395  15.051  0.2077  0.0785 -0.3746
28624W        W47478   2.243  14.774   0.193  0.0327  0.0707 -0.2460
28625W        W47479  13.183   9.855  15.207  0.2681 -0.0941  0.1145
28626W        W47480   0.502   3.484  14.020  0.0090  0.0817 -0.0179
28627W        W47481  12.781   5.889  14.362 -0.0439  0.1459  0.0775
28628W        W47482   3.254   2.646  15.669  0.0225  0.3373 -0.4769
28629W        W47483  13.664  15.188  12.054  0.0576  0.2371 -0.2068
28630W        W47484  16.639   1.603   1.230  0.2168  0.4589 -0.0130
28631W        W47485  13.836  12.272   1.964  0.0975  0.3812 -0.1016
28632W        W47486  14.370   3.278   2.299 -0.2901 -0.2112  0.0947
28633W        W47487   5.110  11.773   0.577  0.0927  0.0392 -0.0057
28634W        W47488  12.885  10.655   5.163 -0.1620  0.0714 -0.0675
28635W        W47489   2.095   6.109  11.792  0.2325  0.0073 -0.2969
28636W        W47490  11.700   0.458   3.170  0.1530  0.1394 -0.1000
28637W        W47491   9.344   1.939  15.257 -0.0910  0.0641 -0.1083
28638W        W47492  17.391  15.301  17.183  0.0285 -0.2634  0.0572
28639W        W47493  14.278   4.936  13.683 -0.0504  0.0165  0.0384
28640W        W47494  17.296   4.179  11.454  0.0012 -0.3525  0.2718
28641W        W47495   3.084   9.179   1.689  0.0890 -0.2504 -0.0560
28642W        W47496  14.494  10.911  15.386 -0.0757  0.0131 -0.1249
28643W        W47497   3.005   3.884   1.646 -0.2073  0.0626 -0.0411
28644W        W47498   3.447  11.413  12.860  0.1345 -0.0913  0.0285
28645W        W47499  11.357  15.064  13.676  0.0029 -0.0849  0.0082
28646W        W47500  16.976   8.908  14.867  0.0956 -0.2569  0.1143
28647W        W47501  15.935   6.383  13.297  0.2209  0.0097  0.2826
28648W        W47502   4.096   8.388   3.336 -0.0916 -0.1045  0.3552
28649W        W47503   2.742   3.276  12.837 -0.0613  0.2061  0.2106
28650W        W47504  15.980   7.226   1.081 -0.1276  0.2117 -0.0122
28651W        W47505   6.000  13.036   1.153  0.0063  0.1337 -0.1328
28652W        W47506  12.669   0.498  14.009  0.3237 -0.0743  0.2418
28653W        W47507  16.912  13.053  13.991 -0.1537 -0.0306  0.1503
28654W        W47508   8.391   7.461  11.552  0.0736 -0.1056 -0.2261
28655W        W47509   9.454   2.093   3.028 -0.0832  0.0796  0.1552
28656W        W47510  14.691  10.056   3.988  0.0541 -0.0082  0.0075
28657W        W47511   2.634  15.851   3.265 -0.4855 -0.1757 -0.3617
28658W        W47512  11.987  15.927  14.485 -0.0667  0.0813  0.0917
28659W        W47513   3.563   1.154   5.522 -0.2258  0.0010  0.3611
28660W        W47514   7.199  16.802  14.500 -0.0525 -0.1100  0.1888
28661W        W47515  10.329  13.195  15.402 -0.3217  0.0714  0.1577
28662W        W47516   6.263  10.454   0.737  0.1858  0.0716 -0.0667
28663W        W47517   4.195  17.065  12.674  0.2497 -0.1730  0.0025
28664W        W47518  12.563   3.420  14.227 -0.1661  0.0974  0.1546
28665W        W47519  16.632  14.358   2.212 -0.0967  0.1041  0.1922
28666W        W47520  16.352  12.004  14.779 -0.1914  0.1768 -0.0173
28667W        W47521  16.986  13.951   4.676  0.2876  0.3245  0.0886
28668W        W47522  11.626   7.399   3.905  0.0631 -0.1697 -0.3275
28669W        W47523  16.613   2.760  17.116  0.1460 -0.0189 -0.2701
28670W        W47524   6.606   1.568  12.552  0.2077  0.0697 -0.0598
28671W        W47525   7.029   6.521   0.144 -0.0185  0.1004  0.1164
28672W        W47526   0.938   5.482  13.698 -0.1481 -0.0493  0.1828
28673W        W47527  13.270   9.578   3.472 -0.4547 -0.1388 -0.1038
28674W        W47528   9.959   2.710   0.487  0.4210  0.3617 -0.2363
28675W        W47529   5.877   9.922   4.709  0.0425 -0.0405 -0.2276
28676W        W47530  11.164  15.367   4.288  0.0228  0.1499  0.2817
28677W        W47531  12.505  12.006  12.181 -0.1369  0.0006 -0.4458
28678W        W47532   1.326   1.763  14.913 -0.0428 -0.3626  0.1294
28679W        W47533  11.713   8.368   4.358 -0.2403  0.0781  0.0509
28680W        W47534   1.909  15.904   3.405 -0.1713 -0.0505 -0.2176
28681W        W47535   5.043  12.664  13.273  0.3295  0.3257 -0.1775
28682W        W47536  13.772  10.217  16.486 -0.0713  0.1680 -0.2249
28683W        W47537   2.926  14.669  13.870  0.2116 -0.0003 -0.1062
28684W        W47538   1.706   4.890  12.732  0.0260 -0.1937 -0.1769
28685W        W47539  12.924  15.661   2.960  0.2279 -0.2231  0.2016
28686W        W47540   3.702   0.917  12.464  0.1307 -0.0899  0.1853
28687W        W47541   2.755  12.697  13.983 -0.0105  0.2220 -0.1247
28688W        W47542   2.145   6.770   2.804 -0.4387 -0.1559  0.1927
28689W        W47543  14.424  11.820   4.406 -0.3484  0.0229 -0.3831
28690W        W47544  11.291  13.635  13.824  0.1263  0.1216  0.1038
28691W        W47545   1.950   3.582  13.359  0.0676 -0.4747 -0.2567
28692W        W47546  10.444   5.825  12.488  0.1567  0.3852  0.2670
28693W        W47547  15.797   2.568   4.581 -0.2731  0.0232 -0.1149
28694W        W47548   5.347   9.266   2.300 -0.0530  0.0886  0.1623
28695W        W47549  10.410  12.505   2.944  0.1193 -0.2011 -0.3288
28696W        W47550  11.048  12.818  16.087  0.2872 -0.1837 -0.2691
28697W        W47551   5.923   1.308  15.420 -0.1741  0.0789 -0.1581
28698W        W47552  16.950   7.547  13.565 -0.0255 -0.2626  0.0335
28699W        W47553  16.381   0.896  16.166  0.2128 -0.1145  0.2259
28700W        W47554   9.066  16.155  12.580 -0.0761  0.1762  0.1108
28701W        W47555   4.567   7.525  14.009 -0.4645 -0.0151  0.0554
28702W        W47556  12.702   2.023  11.240 -0.0273  0.2272 -0.0511
28703W        W47557   6.699  16.406   5.687  0.2910 -0.2769  0.3791
28704W        W47558   0.267   0.775   3.382 -0.1776 -0.2589  0.2836
28705W        W47559   3.281  13.785   5.427  0.2873  0.1793  0.1269
28706W        W47560   3.449   5.807  15.671 -0.0637 -0.0760  0.2968
28707W        W47561   0.514  14.366   2.675 -0.2398 -0.0013  0.1769
28708W        W47562  15.011  11.229  12.084 -0.0924 -0.0915  0.1084
28709W        W47563  13.385  15.392   3.635  0.0989 -0.1148 -0.0665
28710W        W47564  13.557  11.804  16.794  0.0738 -0.3805 -0.0908
28711W        W47565   7.128  11.044  12.412  0.1648  0.0030  0.0044
28712W        W47566  17.527  13.385  15.355 -0.0108  0.2847 -0.0712
28713W        W47567   4.883   5.922  16.416 -0.1998 -0.1353  0.3209
28714W        W47568  10.585   1.542   4.154 -0.3176  0.0441  0.0399
28715W        W47569   6.030  14.291   2.189  0.1807 -0.1639 -0.0117
28716W        W47570   9.890   1.414  15.924 -0.1539  0.1310 -0.2276
28717W        W47571  11.544   3.211   0.028  0.2939 -0.4051 -0.1034
28718W        W47572  10.759   7.248  13.985  0.1684 -0.0698  0.4379
28719W        W47573   9.785   6.022   1.751  0.1237  0.0528  0.1253
28720W        W47574   2.389   2.145   1.401 -0.0090  0.4847 -0.2477
28721W        W47575  15.202  10.175   1.454 -0.1036 -0.0950  0.3031
28722W        W47576  15.951  15.322  13.235 -0.1791  0.1416 -0.1560
28723W        W47577   7.965  15.977  17.067 -0.1449 -0.0066  0.0889
28724W        W47578  15.249  12.185   4.425 -0.3733  0.0230  0.2090
28725W        W47579   2.934  13.132   3.690  0.0175  0.1760  0.5333
28726W        W47580   0.769   5.745  11.506 -0.2747 -0.1874 -0.2001
28727W        W47581   7.974   8.992  13.811  0.0200  0.3366 -0.0127
28728W        W47582  12.812   0.764   4.218 -0.1660 -0.1300  0.2002
28729W        W47583   2.157  15.284  16.068  0.0720 -0.1267 -0.2042
28730W        W47584  12.627  16.709  12.655 -0.2932  0.0558 -0.0814
28731W        W47585  13.064   1.191  13.720  0.2396 -0.1525  0.4006
28732W        W47586   3.443   0.473  12.361  0.0274 -0.0433 -0.0313
28733W        W47587  10.919  15.106   1.729  0.2158  0.1261  0.2321
28734W        W47588   2.893   8.446   0.136 -0.0405 -0.1817 -0.0497
28735W        W47589   3.608   7.831   5.538 -0.0486 -0.1627 -0.3621
28736W        W47590   2.068   8.171  10.667 -0.0233 -0.0817 -0.0550
28737W        W47591   0.657   6.674   3.047  0.2009 -0.0895 -0.0555
28738W        W47592  10.092  10.807   1.358 -0.2340 -0.1585  0.2984
28739W        W47593   2.499   5.579   2.304  0.1455  0.0690 -0.0946
28740W        W47594   3.869  11.215   0.500  0.2085 -0.0599  0.0701
28741W        W47595  17.346  15.493  14.011 -0.2495 -0.0944 -0.1632
28742W        W47596  17.331   0.332  17.213  0.1829 -0.3626  0.0270
28743W        W47597  16.434  14.700   3.806 -0.2144  0.1611  0.0726
28744W        W47598   8.729   0.505   2.268  0.2269 -0.2002  0.1078
28745W        W47599   8.182   4.727   4.178 -0.0962  0.1257 -0.0566
28746W        W47600  11.599  15.719  15.567  0.0276 -0.2406 -0.0490
28747W        W47601  12.587  12.077   3.861 -0.3469  0.0637  0.0972
28748W        W47602   5.025  10.193   2.045 -0.2402 -0.0343 -0.1712
28749W        W47603   0.647  14.749   0.334  0.5068 -0.0172  0.0226
28750W        W47604   4.846  17.374   5.109 -0.5957 -0.1981  0.1069
28751W        W47605   1.381   5.265   2.339 -0.0324 -0.0629 -0.1430
28752W        W47606   4.440   7.368  12.311 -0.1673 -0.0453  0.0032
28753W        W47607  16.898  15.206  16.308 -0.2291 -0.1572  0.1403
28754W        W47608   0.166   1.993  12.771 -0.3039  0.6054  0.1039
28755W        W47609   0.630   0.738   0.198  0.0619 -0.2777  0.3243
28756W        W47610   9.297  11.640  14.873 -0.1091  0.0033  0.0999
28757W        W47611   5.840  14.028   5.470 -0.0050 -0.1207 -0.3638
28758W        W47612  13.895   9.528   1.757 -0.1368  0.1463 -0.0045
28759W        W47613   9.232   1.888   2.543  0.0415 -0.0245 -0.0643
28760W        W47614  14.369   3.902  13.889  0.1743 -0.0511 -0.0852
28761W        W47615   8.316  13.555   1.236  0.4333  0.0035  0.2109
28762W        W47616   0.874   3.431   3.959 -0.0223  0.2790  0.4014
28763W        W47617  15.794   6.109   2.942 -0.1762 -0.0046 -0.1117
28764W        W47618  15.560   4.009  16.903  0.3324  0.1636 -0.0255
28765W        W47619  12.614  10.198  12.525  0.3464 -0.3026 -0.3422
28766W        W47620   7.012   1.173  14.300 -0.2120 -0.0522  0.0726
28767W        W47621   7.522   5.571  14.146 -0.0821  0.0986 -0.0101
28768W        W47622  14.334  16.154   1.007  0.0659  0.1018 -0.3893
28769W        W47623  10.937   1.778  15.367 -0.0952 -0.1940 -0.1867
28770W        W47624  14.236  12.197  12.182  0.1625 -0.0960  0.0452
28771W        W47625  15.658  11.460   3.868 -0.2378  0.2080  0.1397
28772W        W47626   4.902  16.845  12.332  0.1500  0.0776 -0.1913
28773W        W47627  16.929  14.879  15.100  0.1490  0.0853  0.2542
28774W        W47628  10.480   3.997   2.717  0.2429 -0.0683 -0.1059
28775W        W47629  12.464   7.824   4.170  0.1119 -0.1656  0.1931
28776W        W47630  16.731   2.217  13.204  0.1016  0.1152  0.0526
28777W        W47631   7.573  15.131  14.080  0.0096 -0.1149  0.1834
28778W        W47632  17.418   9.938  13.332  0.0407  0.0079 -0.0473
28779W        W47633  12.369  15.233  16.225 -0.0035  0.0208  0.0173
28780W        W47634   3.228  10.375  17.007  0.1460  0.1195 -0.0503
28781W        W47635  16.957  17.084  15.510 -0.3818 -0.1840  0.2041
28782W        W47636   7.418   7.266  16.559 -0.1280 -0.0867  0.1061
28783W        W47637  11.050   5.570  16.245  0.0982  0.0260  0.0129
28784W        W47638   3.231  15.121   3.877  0.1676  0.1525  0.4042
28785W        W47639   4.024  13.667   0.286  0.0060 -0.0199 -0.0864
28786W        W47640  11.861  14.679  16.231 -0.1984  0.1921  0.2320
28787W        W47641   8.518  14.168   2.683 -0.0797  0.4486 -0.1734
28788W        W47642   7.187  11.869   3.341 -0.0994 -0.2170 -0.1311
28789W        W47643  10.098  16.061   0.460 -0.1346 -0.1177  0.1231
28790W        W47644   3.174  16.791   0.477  0.2433  0.2596 -0.2528
28791W        W47645   2.304   5.717  14.260  0.2663  0.2960 -0.2135
28792W        W47646  11.312  15.499   2.063  0.0345 -0.1947 -0.1401
28793W        W47647  15.845   3.304  13.649 -0.4284  0.2353 -0.0950
28794W        W47648   5.009  10.616   0.722 -0.3585 -0.1116  0.0632
28795W        W47649  12.235   3.267  17.229  0.0561  0.2897 -0.2101
28796W        W47650   9.154   4.791   0.760  0.0586  0.0223 -0.2266
28797W        W47651   1.995  13.298  14.568 -0.0449  0.1275  0.1463
28798W        W47652   9.610  16.352   2.027 -0.0053 -0.1575 -0.4612
28799W        W47653   3.624   4.527   2.870 -0.1790 -0.0027  0.3392
28800W        W47654  12.019  10.903   5.862  0.0387 -0.0651  0.0618
28801W        W47655   0.713   1.372   2.890  0.1105 -0.0472 -0.0608
28802W        W47656   6.387  12.000  15.809  0.0543 -0.3003 -0.2187
28803W        W47657  10.689   5.059   3.427  0.1179  0.1960 -0.1090
28804W        W47658   7.293   0.857   5.142 -0.3527  0.1718  0.3641
28805W        W47659   7.893   8.795   0.076  0.0191  0.1670  0.3935
28806W        W47660   6.873  12.630   3.919 -0.0631  0.1763  0.0015
28807W        W47661   0.488  12.557  15.040 -0.0162 -0.0385  0.0025
28808W        W47662   5.300   3.383   1.608 -0.1401 -0.0917 -0.0615
28809W        W47663   2.323  16.470   2.730  0.2975  0.0908  0.2497
28810W        W47664  15.970   4.124   2.404  0.1969 -0.2475 -0.0024
28811W        W47665   1.697   1.300  14.054  0.1225 -0.0306  0.0915
28812W        W47666  15.880   6.010  16.583 -0.0072 -0.0546  0.0019
28813W        W47667   7.300   7.277  12.732 -0.0442  0.0060 -0.3171
28814W        W47668   6.103   2.421  13.613  0.2727  0.2369 -0.1352
28815W        W47669  11.533  10.731   1.299  0.1204 -0.1477 -0.0482
28816W        W47670  14.697  14.982  16.405  0.1810 -0.0583 -0.0768
28817W        W47671   2.934  10.741   4.574 -0.0198 -0.0146  0.0904
28818W        W47672   1.794   9.877   6.404 -0.0581  0.1285  0.0759
28819W        W47673  10.699  17.176   4.049  0.0366  0.2173  0.0837
28820W        W47674  17.352  16.682  15.307 -0.0053  0.2243 -0.0547
28821W        W47675   1.545  11.447  12.471  0.0177  0.1865 -0.0930
28822W        W47676   2.922  11.529   3.629 -0.2323 -0.0039 -0.0330
28823W        W47677  15.857  12.938   3.737  0.1927 -0.1675 -0.1992
28824W        W47678  16.790   9.675  16.400  0.2001  0.1465  0.0781
28825W        W47679   6.380   4.040  16.503  0.0212  0.2159 -0.2168
28826W        W47680   3.463   7.320   0.329  0.0050 -0.0150 -0.2169
28827W        W47681   7.515  13.411  12.128  0.0544 -0.1407  0.1264
28828W        W47682  15.035   3.721  11.857 -0.1996  0.1965  0.0563
28829W        W47683   4.683   0.501  14.410  0.0248  0.1960  0.2500
28830W        W47684   0.539   6.003   5.130  0.1156 -0.3633  0.0346
28831W        W47685  16.193  10.871   2.175  0.1950 -0.0544 -0.0456
28832W        W47686   4.325   2.556   2.555 -0.0391  0.0505  0.0846
28833W        W47687  10.729  11.549   2.581  0.0899  0.0895  0.0901
28834W        W47688   4.472   6.651   2.684  0.2269 -0.0914 -0.0431
28835W        W47689  12.895   2.726  13.987 -0.1244  0.0805 -0.0196
28836W        W47690  11.194   6.546   1.845 -0.1677  0.1948 -0.1113
28837W        W47691   0.557  13.194   2.322 -0.3929  0.1781  0.0608
28838W        W47692  11.436   4.956   0.452 -0.0381  0.1435 -0.1201
28839W        W47693  11.945  12.039  12.989  0.0955 -0.0155 -0.1805
28840W        W47694   9.967   8.351   0.535  0.0916 -0.1931  0.2564
28841W        W47695  11.928   9.418   0.834 -0.0883 -0.1683 -0.0376
28842W        W47696   0.929  13.099  13.224 -0.1310  0.0206  0.0107
28843W        W47697  15.905   2.307   2.623  0.0850  0.0577 -0.1242
28844W        W47698   9.317  16.911   3.303  0.0816 -0.0727 -0.0367
28845W        W47699  10.812   6.297  16.929  0.1054 -0.0663 -0.1014
28846W        W47700   6.121  16.666  13.515 -0.2029  0.1402  0.0994
28847W        W47701   2.033   8.842   3.995  0.3410  0.1077  0.0925
28848W        W47702  10.229   1.469   2.355 -0.0625 -0.0047 -0.0166
28849W        W47703   4.916   3.365  15.268 -0.0742 -0.2171 -0.3025
28850W        W47704  16.192  16.581   0.706  0.1392 -0.1436  0.0218
28851W        W47705   0.052   4.689  16.089  0.1975 -0.2343  0.0109
28852W        W47706   1.831  14.860   5.345 -0.3277  0.2140  0.2067
28853W        W47707   6.404   6.956   3.602 -0.3430 -0.2386  0.0044
28854W        W47708  15.749  16.498  15.730 -0.3466  0.0437  0.2431
28855W        W47709   5.638   7.903  11.055 -0.0650 -0.1237  0.1019
28856W        W47710   2.213   0.173  16.996 -0.0031 -0.0513  0.0254
28857W        W47711  12.011   7.350   2.432  0.2261 -0.2963  0.0839
28858W        W47712  12.123   5.240  12.332  0.0563 -0.0533  0.1000
28859W        W47713  10.397  15.827   2.008 -0.1890 -0.4180 -0.0585
28860W        W47714   9.287   9.340   1.770  0.0145 -0.2023 -0.0359
28861W        W47715   8.775   6.175  15.757  0.3035 -0.0162  0.1603
28862W        W47716   3.776   8.197  14.985  0.0736  0.1222  0.2025
28863W        W47717  16.430   8.018   3.385 -0.2742  0.0427 -0.0163
28864W        W47718   1.974   0.148   1.503  0.0217  0.0161  0.1013
28865W        W47719   9.620  12.579   1.877 -0.0256  0.0236  0.0604
28866W        W47720   8.677  12.412   2.475 -0.2158  0.1508  0.0805
28867W        W47721   9.656   7.840  17.074 -0.0870  0.1721  0.0704
28868W        W47722   7.286  12.390  14.708  0.1446 -0.0599 -0.1073
28869W        W47723   1.743   8.131   0.142 -0.0629  0.2191  0.1968
28870W        W47724  13.814   0.661  13.478 -0.0958 -0.0913  0.0385
28871W        W47725   5.505  16.841   0.259 -0.0071  0.0514  0.4937
28872W        W47726   2.861  12.057   3.677  0.0986 -0.1660  0.0252
28873W        W47727   2.353  15.679   1.553 -0.0204 -0.0539  0.1006
28874W        W47728  17.388  14.639  12.930 -0.1152  0.0490 -0.4700
28875W        W47729   3.170   1.485   2.153  0.2772 -0.0490 -0.1238
28876W        W47730   0.938   0.764   5.447  0.0366 -0.1347 -0.2241
28877W        W47731  11.125   4.622  12.577  0.1831  0.2258  0.0450
28878W        W47732  17.098   4.495  11.082 -0.0283  0.0222 -0.3572
28879W        W47733   5.278   6.370  15.910  0.0259 -0.0429  0.3174
28880W        W47734   4.114  11.639   0.744  0.0040 -0.0739  0.2072
28881W        W47735   1.941   7.464  11.994 -0.1405 -0.0135 -0.0574
28882W        W47736   2.579   5.869  15.167  0.0112  0.0796  0.0788
28883W        W47737  10.339  10.724  14.004  0.0434 -0.2771  0.1852
28884W        W47738   1.226  16.162  15.265  0.0135 -0.0552 -0.3872
28885W        W47739   9.764   2.231   0.340 -0.3099 -0.0084  0.2761
28886W        W47740  16.231   9.982   4.855  0.1751  0.1075 -0.2713
28887W        W47741   2.413  11.218   0.903 -0.0688  0.2133  0.0018
28888W        W47742  14.381   6.386   0.336 -0.0048 -0.0225  0.1339
28889W        W47743   3.533  11.401   4.308  0.0589 -0.2184 -0.1740
28890W        W47744   9.509  15.712   2.847 -0.0230  0.1428  0.0655
28891W        W47745  14.545  12.107   1.544  0.1847 -0.0049  0.1670
28892W        W47746   9.571   4.264  16.672 -0.1684 -0.4027  0.0716
28893W        W47747   4.742   7.026  13.232 -0.2762  0.1473  0.0118
28894W        W47748   2.822  10.331   4.237  0.0199 -0.1198  0.2944
28895W        W47749  10.601   5.807   3.512 -0.0477  0.0382  0.2271
28896W        W47750  17.464   6.637  16.211  0.1490  0.1906  0.3344
28897W        W47751   5.105  15.591   1.567 -0.0251 -0.2040 -0.1224
28898W        W47752  10.522   1.825   0.862 -0.2366 -0.1315  0.0779
28899W        W47753   8.514  11.244  12.661 -0.2135 -0.0727  0.0686
28900W        W47754   6.710  13.226   3.050 -0.1147 -0.0219  0.1228
28901W        W47755   6.445   9.254   3.332 -0.1358  0.1190  0.4073
28902W        W47756   6.613   9.032   1.367 -0.1493 -0.2116  0.3645
28903W        W47757   1.630   0.728   2.253 -0.0960 -0.0491 -0.2309
28904W        W47758  16.407  10.483   2.961  0.1251  0.0527 -0.0483
28905W        W47759   8.395   1.603   5.257 -0.2373  0.1257  0.0549
28906W        W47760   8.778   7.281   2.213 -0.4127 -0.0299  0.2765
28907W        W47761   1.956   1.197   5.940 -0.2588  0.3818 -0.3368
28908W        W47762  10.339  15.911   4.658  0.1482  0.1486 -0.1518
28909W        W47763  14.758   0.091   0.530  0.2880 -0.2630 -0.3738
28910W        W47764   3.306  12.476  15.046  0.3278 -0.1912 -0.1645
28911W        W47765   2.152   7.424  16.926 -0.0315  0.1001  0.0572
28912W        W47766   4.110  13.520  14.363  0.1455 -0.2109 -0.2756
28913W        W47767  10.570  10.030   1.367 -0.0295 -0.2833 -0.0820
28914W        W47768  10.907   1.864   1.830 -0.0925  0.1503 -0.0724
28915W        W47769   3.756   3.306   4.100 -0.0307 -0.2263 -0.0813
28916W        W47770  16.810   7.006  16.773 -0.0032 -0.1802  0.0677
28917W        W47771   5.845  17.509   3.688  0.1212  0.1010  0.1446
28918W        W47772   8.686  10.164  16.351  0.2148 -0.0211  0.2047
28919W        W47773  14.695  12.586  14.667  0.0740 -0.2465  0.1872
28920W        W47774   9.769  11.257   4.642 -0.0671 -0.1532 -0.1381
28921W        W47775  16.465   8.623   1.314 -0.0316  0.1262 -0.1435
28922W        W47776   5.872   7.808   1.267  0.0009  0.2294 -0.1124
28923W        W47777  13.044   0.024  15.868 -0.1152  0.1163  0.0022
28924W        W47778  13.347   7.955  13.949 -0.5911 -0.3738 -0.0470
28925W        W47779  13.287  14.930   1.194  0.1180 -0.1840  0.4804
28926W        W47780  10.526  11.130  16.136 -0.0971 -0.2364  0.2519
28927W        W47781  14.278   7.729  16.684 -0.2731 -0.0821  0.2812
28928W        W47782   0.655   7.103  15.581 -0.0378 -0.1000 -0.0319
28929W        W47783   4.799   7.747  14.972 -0.0891 -0.2838  0.2858
28930W        W47784   2.202   1.296  14.745 -0.1103  0.3494  0.2146
28931W        W47785  10.401  13.306  14.016  0.1248 -0.0678  0.0929
28932W        W47786  10.073  11.028   3.827 -0.0199 -0.0595 -0.1528
28933W        W47787  15.010  13.373  14.564  0.0041 -0.0340 -0.0476
28934W        W47788   2.523  12.012  13.319 -0.0412  0.1516  0.2465
28935W        W47789   7.512  17.054  15.256  0.2177  0.1099  0.1289
28936W        W47790  10.515   2.803  14.605  0.2079  0.1496  0.0816
28937W        W47791   8.026   4.151   4.797  0.0566 -0.0508  0.0925
28938W        W47792   0.957   0.107  14.867  0.5374  0.0182 -0.1842
28939W        W47793   1.946   3.844  14.375  0.0252 -0.2250 -0.0033
28940W        W47794   6.645  12.742  16.256 -0.1901  0.1096  0.2242
28941W        W47795   6.648   4.833  12.836  0.0003  0.4553  0.1106
28942W        W47796  11.671   8.320  14.188 -0.0452 -0.0306 -0.1130
28943W        W47797  17.149   2.290  15.319 -0.2030 -0.0813 -0.2079
28944W        W47798   7.497   6.597   3.213 -0.0987  0.0743  0.1856
28945W        W47799   9.831   8.471   2.043  0.0194  0.2515  0.2671
28946W        W47800  11.715   5.004  16.008  0.1827 -0.3065  0.2351
28947W        W47801  16.845   6.256  14.963 -0.0036  0.1416 -0.2110
28948W        W47802  10.726  14.260   2.667 -0.1902 -0.3006  0.4771
28949W        W47803  13.125   7.933   2.391 -0.0523  0.3161  0.0365
28950W        W47804   5.474  17.486   2.392  0.1268  0.2538 -0.2309
28951W        W47805  16.599   7.802  13.873  0.0911  0.2645 -0.0714
28952W        W47806   9.387   1.252   2.671 -0.1833  0.0537 -0.1040
28953W        W47807   2.429  12.540  12.975 -0.0949 -0.0585  0.1525
28954ION     NA47808  14.572  10.017   6.158 -0.0330  0.3826  0.0754
28955ION     NA47809   1.041  16.146   5.843 -0.0821  0.0563 -0.1698
28956ION     NA47810  10.220   6.542   6.124 -0.0605 -0.2465  0.1633
28957ION     NA47811   9.170   7.358   6.298  0.2329 -0.2908 -0.1493
28958ION     NA47812   6.784   6.421   5.623  0.0620  0.2185 -0.1087
28959ION     NA47813  16.569  12.836   2.354  0.1364  0.1752  0.2258
28960ION     NA47814   3.050   0.223   6.034 -0.0120 -0.0720  0.3953
28961ION     NA47815   6.948   5.557  11.188 -0.3479  0.0511 -0.0931
28962ION     NA47816  16.777   4.677   2.337 -0.1865 -0.0016 -0.1026
28963ION     NA47817  16.583   9.688  11.364 -0.1231  0.1679 -0.2250
28964ION     NA47818   9.690   2.787   4.255 -0.3013  0.3634 -0.1214
28965ION     NA47819  13.283   5.918  11.524 -0.0568 -0.1144  0.2021
28966ION     NA47820  16.912   3.013  14.425 -0.0283 -0.1005 -0.0982
28967ION     NA47821   2.341   5.565  12.491  0.3430 -0.1211 -0.0173
28968ION     NA47822   9.248   8.768  11.442 -0.0919 -0.0640  0.1652
28969ION     NA47823  10.645   2.702  11.472  0.1296 -0.0256  0.0598
28970ION     NA47824   5.763  17.307  15.308 -0.2527  0.0309  0.4272
28971ION     NA47825  16.175   9.357  11.297  0.0768 -0.0412  0.0152
28972ION     NA47826   4.774   9.441  16.533  0.1519 -0.3478 -0.3304
28973ION     NA47827   1.937  14.254   2.689 -0.3743 -0.0051  0.0035
28974ION     NA47828   2.686   9.698  16.742 -0.0304 -0.1059  0.0425
28975ION     NA47829  13.708   5.211  16.587  0.1809  0.0117  0.1362
28976ION     NA47830   7.829   8.169  11.360 -0.2296 -0.2339 -0.2724
28977ION     NA47831  15.657  13.406  11.262  0.1943  0.1431  0.0671
28978ION     NA47832   0.894   8.030   6.297 -0.2516  0.1895  0.0701
28979ION     NA47833  14.310   7.471   6.235  0.2812  0.1027  0.4998
28980ION     NA47834  14.565   1.017   5.704  0.2026  0.0047  0.0348
28981ION     NA47835  13.943  12.136  11.283  0.1389 -0.0976  0.1936
28982ION     NA47836  10.668   9.680  11.356  0.0520 -0.3787 -0.0138
28983ION     NA47837   9.221   9.558  15.912  0.2956  0.3206 -0.1595
28984ION     NA47838   1.699   5.043   5.457  0.1326 -0.0956 -0.1752
28985ION     NA47839   3.012   6.805   6.531  0.0670 -0.2313  0.0305
28986ION     NA47840  10.816   1.884  11.305  0.1819  0.1335  0.1328
28987ION     NA47841   6.914  14.807   5.936 -0.1136 -0.0751 -0.0106
28988ION     NA47842  13.213   9.964  11.226  0.1839 -0.2427 -0.1500
28989ION     NA47843   8.142  13.419  11.039 -0.1798  0.4802 -0.1242
28990ION     NA47844  10.931   1.428   6.102  0.1056  0.0606 -0.1550
28991ION     NA47845   1.798  10.720  11.442  0.1248  0.3172 -0.2974
28992ION     NA47846   0.591   1.428  11.251 -0.3419 -0.2686  0.1062
28993ION     NA47847   7.974   9.035   5.917  0.1781  0.1472 -0.1325
28994ION     NA47848  17.580   2.978  15.629  0.1369 -0.1867  0.0212
28995ION     NA47849   6.941   6.975  12.919 -0.1984  0.0119  0.0202
28996ION     NA47850   1.609   0.527   5.922  0.2305 -0.0397  0.0687
28997ION     NA47851   3.505  16.320  13.156 -0.1224  0.0853  0.1714
28998ION     NA47852   6.320   2.991  11.249  0.1267 -0.2835 -0.0139
28999ION     NA47853  12.458  15.024  11.190 -0.1015  0.0010  0.1029
29000ION     NA47854   5.933  11.297   0.171 -0.4302  0.0395  0.1056
29001ION     NA47855   8.129  15.853  11.358 -0.0002  0.2382 -0.0907
29002ION     NA47856   1.079  10.606   6.041  0.0640  0.2227  0.0302
29003ION     NA47857  11.607   6.677   0.454  0.0247  0.3441 -0.1553
29004ION     NA47858   5.353  10.148  11.411  0.0990 -0.0514  0.0129
29005ION     NA47859   4.988   2.636  11.240 -0.1223  0.0468  0.2581
29006ION     NA47860   2.659   5.328   5.734 -0.1867 -0.0496  0.2829
29007ION     NA47861  17.499  16.679  11.386  0.2356 -0.1927 -0.1337
29008ION     NA47862   2.681   1.844  11.457  0.0464 -0.0975  0.0638
29009ION     NA47863   2.540  15.135   2.375  0.0510  0.0907 -0.2068
29010ION     NA47864   8.879   9.683   5.894 -0.1381  0.2719  0.0165
29011ION     NA47865   9.463   2.758   6.040 -0.0408  0.0131 -0.1117
29012ION     NA47866   7.515  10.405  17.180  0.0498  0.0871  0.1834
29013ION     NA47867  10.158   7.356   6.258  0.0270 -0.0866  0.3817
29014ION     NA47868  14.531   6.285   2.237  0.0975 -0.1383  0.0037
29015ION     NA47869  15.107   9.734  17.086  0.4232  0.1889 -0.0323
29016ION     NA47870  15.791  13.128  12.006 -0.1688  0.0776 -0.1050
29017ION     NA47871  16.549  10.640  11.325 -0.0511  0.2457 -0.2091
29018ION     NA47872   3.181   4.555  11.158  0.0498 -0.1826 -0.0970
29019ION     NA47873   0.481  12.319  11.942 -0.0877  0.0881  0.2051
29020ION     NA47874   3.711  15.499   5.977 -0.1153 -0.3465 -0.1779
29021ION     NA47875  11.288   7.976   6.287  0.2255  0.1265  0.2819
29022ION     NA47876  17.593  16.464  13.455 -0.1426  0.0407  0.1725
29023ION     NA47877  14.437   5.760   5.992 -0.1470  0.0274  0.1249
29024ION     NA47878   5.772   6.486  15.784  0.1390  0.0950 -0.4937
29025ION     NA47879   0.620   2.365  11.277  0.3062 -0.0674  0.0128
29026ION     NA47880   6.349  15.683  11.650  0.0034  0.1248 -0.0702
29027ION     NA47881  15.809   9.560  13.679 -0.3082  0.0632 -0.0349
29028ION     NA47882  16.936  15.826   5.579  0.4345 -0.1870 -0.2154
29029ION     NA47883   4.321   9.092   0.789  0.1320 -0.0921  0.0790
29030ION     NA47884   6.419  11.332  13.710  0.1721 -0.0849 -0.0599
29031ION     NA47885   2.044   8.518  11.072 -0.1317 -0.2622 -0.0712
29032ION     NA47886   0.358  11.812  15.630  0.3916 -0.0229  0.1888
29033ION     NA47887  13.110  14.134   5.900  0.3580 -0.2169  0.0428
29034ION     NA47888   2.164  11.490   4.130  0.0248 -0.1167 -0.1191
29035ION     NA47889  14.577  15.724   5.649  0.0587  0.1590  0.2513
29036ION     NA47890  15.422   4.168  11.219  0.0146 -0.2325  0.1839
29037ION     NA47891  15.395   2.850   3.105  0.3454 -0.1112 -0.1096
29038ION     NA47892  14.207  16.077  11.316  0.3070  0.2086 -0.1982
29039ION     NA47893  15.783  14.780  10.999  0.3647  0.3526  0.2606
29040ION     NA47894  10.818   8.433  11.984  0.0721  0.0670  0.3098
29041ION     NA47895   0.643   6.398   6.159 -0.0437 -0.0761 -0.1908
29042ION     NA47896   7.354  14.472  15.254  0.2712  0.1220 -0.3742
29043ION     NA47897  11.979  14.689   4.091  0.0281 -0.3414 -0.2803
29044ION     NA47898   5.216   3.210   6.068 -0.0692 -0.0611  0.0722
29045ION     NA47899  15.397  11.096  11.247  0.0426 -0.3459 -0.0424
29046ION     NA47900  10.316   0.709   6.077  0.0610 -0.0515  0.0049
29047ION     NA47901   8.060  12.203   5.457 -0.2216 -0.1742 -0.0711
29048ION     NA47902   7.883   1.693  11.573 -0.1823 -0.1802 -0.3057
29049ION     NA47903   4.872   4.174  11.168 -0.3102  0.2877 -0.2202
29050ION     NA47904  10.919  10.676  15.459 -0.3033  0.0240 -0.1388
29051ION     NA47905   3.460   8.391   6.234 -0.1800 -0.2548 -0.2205
29052ION     NA47906  16.239  13.226  16.094 -0.1107  0.2146 -0.0138
29053ION     NA47907  12.868  15.037   5.829 -0.1541 -0.0493 -0.0709
29054ION     NA47908  11.318   2.384   6.141 -0.0561  0.0415  0.0976
29055ION     NA47909   0.690   9.692  11.154  0.0641  0.2819 -0.1939
29056ION     NA47910   5.871  10.889  11.570  0.1238 -0.1595 -0.0457
29057ION     NA47911  12.773   8.257   5.195  0.0005 -0.1041 -0.0044
29058ION     NA47912   5.883  11.740   4.017 -0.2357  0.4068 -0.0852
29059ION     NA47913  12.450   6.239  11.541 -0.0430 -0.0015  0.0807
29060ION     NA47914   1.085   4.139  11.167 -0.0796 -0.0100  0.1895
29061ION     NA47915  11.347  10.201   5.887 -0.0255  0.1183 -0.0771
29062ION     NA47916   7.820  16.624  13.099 -0.0329 -0.2080  0.1992
29063ION     NA47917   3.417   0.169   1.550  0.2669 -0.3262 -0.0667
29064ION     NA47918   5.031  14.493   6.012 -0.1927  0.0386  0.0228
29065ION     NA47919   3.128   3.596   2.579 -0.0615 -0.5508 -0.0230
29066ION     NA47920  13.472   7.384   1.479  0.0921 -0.0450  0.3651
29067ION     NA47921   9.359  17.173  13.914  0.0727 -0.3993 -0.3191
29068ION     NA47922  10.852  12.663  11.116  0.3774 -0.3112  0.2170
29069ION     NA47923   2.974  16.837  14.951  0.2768 -0.1014  0.2107
29070ION     NA47924  11.030   7.076   6.132 -0.1202 -0.0707  0.2376
29071ION     NA47925   9.010  15.652  11.318  0.4032  0.0375  0.4383
29072ION     NA47926   8.270   8.327   4.960  0.1764 -0.2886  0.0207
29073ION     NA47927   4.943  11.525  11.510 -0.1789 -0.0387  0.3511
29074ION     NA47928   4.429   5.769   5.892 -0.0180  0.2447  0.3399
29075ION     NA47929   4.990   8.751   6.100 -0.0620  0.0381  0.0244
29076ION     NA47930  13.101   6.393   6.111 -0.0510 -0.1451 -0.0219
29077ION     NA47931  16.560   0.222  11.495 -0.0997 -0.1657  0.0584
29078ION     NA47932   8.568   7.185   6.051  0.0030  0.1377 -0.1036
29079ION     NA47933   0.019  14.413   5.792  0.0301 -0.1023 -0.0928
29080ION     NA47934   0.273   3.255   5.483 -0.0477 -0.0090 -0.2360
29081ION     NA47935  16.865   9.433   1.175  0.0458 -0.1002  0.0967
29082ION     NA47936   8.667   8.118  11.476 -0.2813 -0.0081 -0.2194
29083ION     NA47937   5.770   0.480  11.474  0.2283 -0.0146 -0.0638
29084ION     NA47938   2.951  10.227  11.439 -0.2941  0.1910 -0.1962
29085ION     NA47939   6.053  17.094  11.485  0.2843  0.0733 -0.1935
29086ION     NA47940   6.508   0.314  11.712 -0.1177  0.3490  0.2689
29087ION     NA47941   8.017   3.863  11.534 -0.2521 -0.1533 -0.4019
29088ION     NA47942   2.249   2.369  11.139 -0.2133  0.1175 -0.2547
29089ION     NA47943   8.821   1.773  11.734  0.2739  0.0132 -0.0182
29090ION     NA47944   9.807   7.047  11.609  0.2733  0.2284 -0.0634
29091ION     NA47945   5.981  16.526  11.606 -0.0478 -0.0767  0.0904
29092ION     NA47946  11.460   6.055  11.517 -0.1422 -0.1617  0.0475
29093ION     NA47947   5.263   1.001  11.394  0.2540 -0.1573  0.0001
29094ION     NA47948  14.457  12.896   2.384  0.0607 -0.3286 -0.1547
29095ION     NA47949   8.355  13.097   5.706  0.0940 -0.4246  0.1365
29096ION     NA47950   7.208  17.565   2.993 -0.1017  0.2556  0.0819
29097ION     NA47951  16.064   8.838   6.327  0.0334 -0.1609 -0.0669
29098ION     NA47952   0.416   4.358   3.622  0.0091 -0.1408 -0.1634
29099ION     NA47953   3.182   9.405   6.131 -0.0169 -0.1291  0.0510
29100ION     NA47954   2.261  12.908  11.525  0.0830 -0.0468 -0.1011
29101ION     NA47955  14.710  13.336  11.262 -0.2064  0.1129 -0.0162
29102ION     NA47956  15.737   3.529   5.690 -0.0146 -0.0514  0.0982
29103ION     NA47957  11.071  10.317  11.334  0.0701  0.4409  0.2535
29104ION     NA47958   9.657   5.858   6.030 -0.3439 -0.0323  0.0033
29105ION     NA47959  11.133  15.519   6.001 -0.2335  0.1336  0.2071
29106ION     NA47960   6.165   2.194  11.264 -0.0618  0.2357 -0.1565
29107ION     NA47961  14.618   1.757   5.313  0.0134  0.0590  0.1398
29108ION     NA47962   3.297  16.660  11.439  0.2296 -0.1888 -0.3039
29109ION     NA47963   9.040  11.883  11.005  0.1876 -0.2094  0.2301
29110ION     NA47964   4.171   5.536  11.171 -0.2484 -0.1505  0.0026
29111ION     NA47965   6.841   2.866   1.802  0.1361 -0.4293  0.1573
29112ION     NA47966   9.156  13.667  11.071 -0.0507  0.0722 -0.1644
29113ION     NA47967  14.223  10.780  12.266  0.0509 -0.0274 -0.1944
29114ION     NA47968  14.217   2.142  11.330 -0.0186 -0.1986 -0.0565
29115ION     NA47969  13.475  15.626  11.374 -0.0611  0.0817  0.1540
29116ION     NA47970   6.616   7.027  11.223  0.2813  0.0479 -0.2169
29117ION     NA47971  15.181   0.886   1.822  0.0686  0.1310 -0.1405
29118ION     NA47972   4.260   3.605   6.057 -0.2230 -0.2386  0.1895
29119ION     NA47973   1.054  14.593  11.367 -0.2714 -0.0682 -0.1441
29120ION     NA47974  12.264   8.285  13.524 -0.0001  0.0033  0.1016
29121ION     NA47975   4.352   8.183   6.266  0.1070  0.1705 -0.1407
29122ION     NA47976  14.854   3.488   5.917 -0.2201 -0.0223 -0.2276
29123ION     NA47977  17.224  12.853  11.530 -0.0191  0.0097  0.2548
29124ION     NA47978  10.382   2.491   6.155  0.2120  0.0735 -0.1841
29125ION     NA47979   3.611  13.268  11.233  0.1120 -0.0537 -0.0772
29126ION     NA47980  12.256   3.627  12.750 -0.1210 -0.2430  0.1627
29127ION     NA47981  12.140  16.317  11.421 -0.2371  0.1807  0.1149
29128ION     NA47982   8.121   5.866   6.128  0.1680 -0.1345 -0.1297
29129ION     NA47983   4.551   4.483   6.144  0.1800  0.2361  0.0856
29130ION     NA47984  10.072   0.734  13.895  0.0575 -0.0868 -0.0677
29131ION     NA47985  13.827   8.350  11.690 -0.3508  0.0657  0.2187
29132ION     NA47986  14.545   9.347   6.484  0.2525 -0.3200  0.0124
29133ION     NA47987   2.902   8.702  11.191 -0.1120  0.2502  0.2912
29134ION     NA47988  16.597   0.515   5.836 -0.0669 -0.0648 -0.0145
29135ION     NA47989   0.212  14.504  11.509 -0.2758  0.0195  0.0106
29136ION     NA47990   2.103  14.882   6.098  0.1505  0.1140  0.1089
29137ION     NA47991  16.632   9.198   5.905  0.1279  0.3368 -0.2113
29138ION     NA47992  16.996  13.941   5.888  0.5637 -0.2056 -0.0986
29139ION     NA47993   1.895  11.895   6.305 -0.1152  0.4520  0.0592
29140ION     NA47994   7.454  13.885   5.918 -0.0133  0.1407 -0.0506
29141ION     NA47995   6.796  11.145  11.415  0.3091  0.0844  0.3437
29142ION     NA47996  13.520   1.581   5.923  0.2443 -0.3816 -0.3001
29143ION     NA47997   0.438   4.287   5.460 -0.0643 -0.2255 -0.0847
29144ION     NA47998  13.017  16.479  11.711  0.0753 -0.0259  0.1868
29145ION     NA47999  16.308  16.791   4.983 -0.3886 -0.1783  0.0956
29146ION     NA48000  13.470  11.008  16.588 -0.0642 -0.2429  0.3364
29147ION     NA48001  11.880   1.098   5.543 -0.2658 -0.2583 -0.0875
29148ION     NA48002   3.607   7.740  11.260 -0.1489  0.2146 -0.1055
29149ION     NA48003  11.428   4.989  11.428  0.1412  0.0048  0.0070
29150ION     NA48004   8.616  13.144  16.831  0.2578  0.0022 -0.2357
29151ION     NA48005  12.320   0.442   2.516 -0.2589  0.2170  0.0095
29152ION     NA48006  10.529  17.247  16.796  0.1616  0.1090  0.1386
29153ION     NA48007  10.342  14.990   6.008 -0.1390 -0.0132  0.0079
29154ION     NA48008  16.457  12.932   4.670 -0.1727 -0.3100  0.0129
29155ION     NA48009   7.125   8.639  12.858 -0.0591  0.1821 -0.2933
29156ION     NA48010   3.985  14.777   5.065 -0.0290 -0.3030  0.1538
29157ION     NA48011  11.752  10.639  11.528  0.0809 -0.0930 -0.0410
29158ION     NA48012   3.121  16.195   5.812  0.0009  0.2657 -0.0514
29159ION     NA48013   1.593  15.609   6.056 -0.1296  0.0296 -0.1507
29160ION     NA48014   4.221   7.383   6.417  0.0159  0.1682  0.1720
29161ION     NA48015  13.554  15.556   5.631  0.1062 -0.2490  0.1954
29162ION     NA48016  12.621   8.612  14.451  0.0499  0.2284 -0.0260
29163ION     NA48017  15.007  14.794  11.022  0.1313 -0.1544  0.2334
29164ION     NA48018   0.451   4.982  11.201  0.2724 -0.1042 -0.0111
29165ION     NA48019   3.407  14.079   5.791 -0.1449  0.0454  0.1331
29166ION     NA48020   6.545   7.448  14.307  0.0510 -0.2535 -0.2992
29167ION     NA48021   0.294  13.834   1.158 -0.1722 -0.0617  0.0243
29168ION     NA48022  16.768   5.798   2.902 -0.0626 -0.0561  0.0424
29169ION     NA48023   0.661  16.092   3.966  0.2815  0.2645 -0.3309
29170ION     NA48024  14.978   2.680  15.746 -0.0133 -0.1301 -0.0657
29171ION     NA48025  12.317   2.305  11.368 -0.0327  0.0511 -0.0432
29172ION     NA48026  17.257   0.330  12.055 -0.1311 -0.1410 -0.3256
29173ION     NA48027  10.940   4.086   2.805  0.2363  0.0549 -0.1421
29174ION     NA48028   0.613  13.406  14.655 -0.0080 -0.0301  0.0279
29175ION     NA48029   8.676   8.743   1.298  0.3210 -0.0197  0.1502
29176ION     NA48030   7.488   5.287  11.200  0.1209  0.2693  0.0640
29177ION     NA48031  14.984   9.576  11.197 -0.2744 -0.1586 -0.0506
29178ION     NA48032  17.097  12.061   4.793 -0.0724 -0.2318 -0.2519
29179ION     NA48033   6.070   5.170   4.799  0.0111 -0.2471 -0.0864
29180ION     NA48034   5.148  16.647  11.274  0.2502 -0.4579  0.1836
29181ION     NA48035   9.341  12.869   5.836  0.0058 -0.0614  0.1370
29182ION     NA48036   7.612  16.680   6.150  0.1633  0.0171  0.0612
29183ION     NA48037   5.609   9.384   5.897 -0.3210 -0.0230 -0.1475
29184ION     NA48038   5.731   7.267  11.191  0.0015 -0.1643 -0.0160
29185ION     NA48039   3.342   1.017  15.463  0.1430 -0.0047 -0.1541
29186ION     NA48040   4.745  13.610   6.051 -0.2539  0.2422  0.2284
29187ION     NA48041  11.085  11.316  11.227 -0.1697  0.2426 -0.2687
29188ION     NA48042  14.171  14.309   5.780  0.0661  0.0493  0.1147
29189ION     NA48043   1.632  15.994  15.569  0.2516  0.2806 -0.1846
29190ION     NA48044   5.585  13.844   5.860  0.1382 -0.0249 -0.3367
29191ION     NA48045  11.126  10.359   1.961 -0.2336 -0.1890 -0.1605
29192ION     NA48046   2.725   7.877  10.992  0.1113 -0.0491 -0.2129
29193ION     NA48047  11.618  13.829   6.049  0.1770  0.0075 -0.1009
29194ION     NA48048   7.630  10.503  14.091 -0.0056 -0.0236  0.3515
29195ION     NA48049   1.427   7.376   6.094 -0.0772  0.0372  0.2587
29196ION     NA48050  12.935   1.665   5.993  0.3204  0.0415 -0.1534
29197ION     NA48051  13.100   4.095   6.113  0.2239 -0.3153  0.2847
29198ION     NA48052   9.606   3.875  11.473 -0.0095 -0.1010 -0.3557
29199ION     NA48053   4.475  10.460   5.803  0.1428  0.3403  0.1468
29200ION     NA48054   2.935   6.114   6.090  0.2269  0.0583 -0.2016
29201ION     NA48055   8.445   8.867  11.332  0.0679 -0.1472 -0.2981
29202ION     NA48056   0.128  11.213  12.296  0.1696  0.0337 -0.2438
29203ION     NA48057   4.905   4.976  16.001  0.3958  0.1398  0.0603
29204ION     NA48058   2.910   1.411   4.004 -0.2305  0.4179  0.0316
29205ION     NA48059   6.695  12.384  12.325  0.0485  0.0467  0.0004
29206ION     NA48060   2.718  17.541  13.599 -0.0967 -0.2268  0.0988
29207ION     NA48061  12.129   1.066   6.013 -0.1065  0.3862 -0.0742
29208ION     NA48062   9.970   4.583   3.570  0.0400  0.0724 -0.1294
29209ION     NA48063   8.187  17.232   5.961  0.4230  0.2619  0.3592
29210ION     NA48064  15.088  16.012  11.235  0.0333 -0.4965 -0.2369
29211ION     NA48065   5.104   5.103  11.248  0.0424 -0.0676 -0.0591
29212ION     NA48066  16.184   4.343   5.564 -0.1319 -0.0077 -0.0261
29213ION     NA48067   8.941   5.511  14.009  0.2950 -0.2239  0.5671
29214ION     NA48068   2.549   8.678   6.095  0.5375 -0.1045  0.1526
29215ION     NA48069  16.533  10.487   4.547 -0.1429 -0.1836 -0.1097
29216ION     NA48070  11.892  12.688   5.721  0.4613  0.1658 -0.3190
29217ION     NA48071   6.055  14.018  11.500 -0.1114 -0.2452  0.2189
29218ION     NA48072   2.931  14.289   1.169 -0.0183  0.3325 -0.0257
29219ION     NA48073  14.087   6.547   6.009 -0.1327 -0.1280  0.0925
29220ION     NA48074  10.736  15.389  11.176  0.0092  0.1076  0.1132
29221ION     NA48075   3.951   6.288   0.127 -0.1211 -0.0923 -0.5722
29222ION     NA48076  12.082  13.188  11.463 -0.0084  0.1066  0.0184
29223ION     NA48077  17.169   2.712   5.687 -0.2268  0.1320 -0.2720
29224ION     NA48078   3.573  12.001  16.110  0.0953  0.2790 -0.1070
29225ION     NA48079  15.230   7.544   2.194  0.0081 -0.0163  0.0423
29226ION     NA48080   8.416  16.375   5.924 -0.0487  0.2019  0.4301
29227ION     NA48081   1.713   9.619   2.403  0.1504  0.3484  0.2206
29228ION     NA48082   2.825  10.927   6.042  0.0882 -0.1932 -0.1228
29229ION     NA48083  13.163  16.668  17.017  0.0620 -0.1765  0.0810
29230ION     NA48084  10.827   5.218  11.768 -0.0873 -0.1950  0.2102
29231ION     NA48085   7.426   5.972  16.475 -0.3712  0.1433  0.0526
29232ION     NA48086   6.699  16.988   5.956  0.1874  0.1080  0.0505
29233ION     NA48087  13.718  16.585   5.569  0.0307 -0.4295  0.0333
29234ION     NA48088  16.967   6.967  11.249 -0.2344  0.2571 -0.1685
29235ION     NA48089   3.783  11.229   5.711  0.1784  0.1002 -0.1713
29236ION     NA48090   3.212   6.233  15.891  0.1717 -0.2971 -0.0397
29237ION     NA48091  12.844   1.322   1.861 -0.0538 -0.1537 -0.0673
29238ION     NA48092   3.936  10.105  11.347 -0.1832  0.0473 -0.1578
29239ION     NA48093   9.509   0.991   5.977 -0.1043  0.1629 -0.0195
29240ION     NA48094  10.195   8.902  11.488 -0.0991 -0.0636 -0.2127
29241ION     NA48095  15.945  17.383   5.595  0.4612 -0.2855 -0.1053
29242ION     NA48096   6.830  11.373   6.087 -0.2724  0.2016  0.0309
29243ION     NA48097  12.146   2.503   6.236  0.1104 -0.0310 -0.0156
29244ION     NA48098   1.792   8.156   6.105 -0.1179 -0.2697 -0.1256
29245ION     NA48099   1.330   4.945  11.422 -0.3450 -0.3448 -0.1860
29246ION     NA48100   2.257   9.317  11.292 -0.2104  0.1267  0.2251
29247ION     NA48101   3.971   6.465  11.208 -0.0348 -0.0231  0.2307
29248ION     NA48102  12.806   4.498  11.263  0.0539  0.4458 -0.3754
29249ION     NA48103  12.342   9.197  11.794  0.0786 -0.0650  0.0148
29250ION     NA48104   3.449   1.014   6.017  0.0923  0.0686  0.2861
29251ION     NA48105   9.964   8.471   1.478 -0.1239  0.4317 -0.0482
29252ION     NA48106   8.329   5.092  11.336  0.3377  0.1040 -0.1160
29253ION     NA48107  11.705  16.094   5.892  0.0106  0.1299 -0.0811
29254ION     NA48108  11.322   9.271   6.203  0.2532 -0.0248 -0.0610
29255ION     NA48109   5.181  17.149  11.536  0.0682 -0.1432  0.1699
29256ION     NA48110  16.098   0.882   4.014  0.0087  0.4235  0.2937
29257ION     NA48111   3.699   1.508  11.685  0.1769 -0.1861 -0.1657
29258ION     NA48112   1.263  15.204   5.939  0.2570 -0.1882 -0.3114
29259ION     NA48113  12.493  13.391   5.765  0.0912 -0.0982 -0.4428
29260ION     NA48114   4.566   8.106  11.209 -0.0312  0.0024 -0.0244
29261ION     NA48115   1.377   7.898   6.101 -0.0439 -0.0144  0.0904
29262ION     NA48116   9.004  11.204   5.724  0.2089 -0.0556  0.1938
29263ION     NA48117   6.078   3.531   6.181 -0.0342  0.0264 -0.0060
29264ION     NA48118  10.490  17.319   6.150 -0.1273  0.1094 -0.0735
29265ION     NA48119   7.111   9.608   5.929  0.3491  0.0139  0.3745
29266ION     NA48120   8.387   6.536  11.348  0.1442  0.0255  0.1699
29267ION     NA48121   9.417   8.900   6.073 -0.1129 -0.0860 -0.1100
29268ION     NA48122   7.519   2.568  11.439  0.1226 -0.1028  0.0805
29269ION     NA48123  11.722   1.798  11.700  0.0200 -0.2225  0.0243
29270ION     NA48124   9.250  17.104  11.726  0.1000  0.1729  0.1133
29271ION     NA48125   5.528   5.532  11.887  0.0340 -0.0529 -0.0417
29272ION     NA48126  10.057  12.480   1.610 -0.0999  0.1895  0.0962
29273ION     NA48127   7.452  11.799   6.049  0.1049  0.2918  0.1220
29274ION     NA48128  12.852   8.946   6.126 -0.0579  0.2316 -0.1591
29275ION     NA48129  10.067   1.586   6.219 -0.0754  0.1029 -0.0656
29276ION     NA48130   7.852   0.553   5.899  0.3776 -0.0965 -0.0983
29277ION     NA48131  16.552   1.837   3.149 -0.1605 -0.4674  0.0196
29278ION     NA48132   5.315  12.716   6.046 -0.0358  0.2473  0.0697
29279ION     NA48133   4.381  10.277  11.503  0.0476  0.2505 -0.1376
29280ION     NA48134  14.317   2.645  14.708  0.3751 -0.0378 -0.0224
29281ION     NA48135  15.546  16.804  11.442  0.0589  0.3433 -0.0202
29282ION     NA48136   5.328   1.255   5.968 -0.0634 -0.0342  0.0851
29283ION     NA48137   8.015   4.245   5.942  0.4042 -0.1092 -0.0950
29284ION     NA48138  10.683  16.463  11.367  0.2954 -0.1592  0.1265
29285ION     NA48139   3.126   5.600  11.179  0.0272 -0.1204  0.1641
29286ION     NA48140  17.458  13.624  11.418 -0.0567 -0.2291  0.2444
29287ION     NA48141  12.974  14.846  11.246  0.0554 -0.2765  0.2072
29288ION     NA48142  17.555   5.697  11.641  0.1176  0.0660  0.1062
29289ION     NA48143   0.563   9.444  16.760  0.0211 -0.0265  0.1668
29290ION     NA48144  11.982  13.850   1.796 -0.2209  0.2545  0.0837
29291ION     NA48145   5.393   3.282  11.238 -0.2672  0.0245 -0.0731
29292ION     NA48146  13.922  10.715  11.087  0.0178 -0.2615 -0.0288
29293ION     NA48147  10.853   2.240  15.224  0.0306 -0.0527  0.0399
29294ION     NA48148   6.123  12.273  12.612 -0.1866  0.0540  0.1359
29295ION     NA48149   3.605  12.423  11.416 -0.3538 -0.0442 -0.0237
29296ION     NA48150   6.134   8.644  11.536 -0.2245 -0.2253 -0.5549
29297ION     NA48151   5.255  10.466   6.250 -0.1932  0.0269 -0.2760
29298ION     NA48152  11.889  15.900  12.365 -0.2787 -0.0344 -0.0601
29299ION     NA48153   1.759   7.754  10.795  0.0084 -0.1585 -0.0122
29300ION     NA48154  13.068  14.103  13.041 -0.0604  0.1248 -0.2017
29301ION     NA48155  11.334   1.820   3.739 -0.0631 -0.0754 -0.1586
29302ION     NA48156  14.902  12.651   5.892  0.0243 -0.0574 -0.0464
29303ION     NA48157   4.278  16.475  11.463  0.0051 -0.1387 -0.1017
29304ION     NA48158  12.741  17.127   3.873  0.0008 -0.1907 -0.0669
29305ION     NA48159   6.938  14.055  11.289 -0.1459  0.0926  0.1798
29306ION     NA48160   3.233  12.663  14.158 -0.2657  0.1718 -0.1444
29307ION     NA48161  11.570   3.292   6.229  0.0684  0.2645  0.0117
29308ION     NA48162  14.664  11.061   4.706 -0.0014  0.1842 -0.0963
29309ION     NA48163  16.727  10.280   3.245 -0.2299 -0.1835  0.1490
29310ION     NA48164  10.339   3.553  11.366  0.0370 -0.2787 -0.4093
29311ION     NA48165   4.288   2.336  11.159 -0.0654  0.1978 -0.1342
29312ION     NA48166   6.223  11.875   4.679 -0.1662 -0.0923  0.3289
29313ION     NA48167   4.963   3.722  13.371 -0.1594  0.1357 -0.2987
29314ION     NA48168   2.687  13.785  11.401 -0.0482  0.0163  0.1994
29315ION     NA48169  10.028  11.900  16.746  0.0233 -0.1066 -0.2192
29316ION     NA48170   0.973  12.179   6.069 -0.1326 -0.1253 -0.1769
29317ION     NA48171   3.142  15.207   5.928 -0.0122  0.1838 -0.1483
29318ION     NA48172   0.814  15.142   6.138 -0.0112  0.0003  0.0414
29319ION     NA48173  12.905  10.982   6.057  0.1538 -0.0671 -0.0419
29320ION     NA48174   5.816   1.104  12.370  0.0750  0.2532  0.1521
29321ION     NA48175   4.443   8.885   5.445  0.2202  0.4203  0.0019
29322ION     NA48176  11.961   4.624   2.128 -0.4129  0.0550  0.2225
29323ION     NA48177   8.782  15.187   3.868  0.0904  0.3233 -0.2069
29324ION     NA48178  14.564   9.772   3.481 -0.3449  0.1795 -0.0496
29325ION     NA48179   4.094  14.147  13.784  0.1941  0.0758  0.2170
29326ION     NA48180   2.619   9.381   2.376  0.0860 -0.1359 -0.2676
29327ION     NA48181  14.024   0.021   0.637  0.2979 -0.0428  0.1052
29328ION     NA48182  13.716   3.495  11.069 -0.0246 -0.0874  0.2049
29329ION     NA48183   2.552   1.965  15.915 -0.3710 -0.0005 -0.0548
29330ION     NA48184  13.065  10.840  11.109  0.0241 -0.3434 -0.0458
29331ION     NA48185   0.103   1.490   5.885 -0.3120 -0.1747  0.3665
29332ION     NA48186  16.233   6.568  11.141  0.0857 -0.1143 -0.1711
29333ION     NA48187   5.861   8.589  15.887 -0.1182 -0.2895 -0.2192
29334ION     NA48188   5.465  13.173  11.492  0.0900 -0.2856 -0.1911
29335ION     NA48189   7.666  11.781  11.454  0.1852 -0.0364 -0.0900
29336ION     NA48190   2.651  11.322  11.408  0.1801  0.0396  0.2133
29337ION     NA48191   3.632  15.940  11.549 -0.1487 -0.2852 -0.1345
29338ION     NA48192   4.559   6.798   6.098 -0.1651  0.2202  0.1370
29339ION     NA48193   7.550  15.344   5.776  0.0973  0.0923  0.1520
29340ION     NA48194   4.840   0.681  11.416 -0.1147  0.2827 -0.1871
29341ION     NA48195  16.846   6.020  10.893 -0.0870 -0.0025 -0.1767
29342ION     NA48196  10.161   9.942  16.170 -0.0670 -0.0860 -0.2156
29343ION     NA48197  16.247  11.726   6.018  0.0390  0.0249 -0.1713
29344ION     NA48198  16.165   6.327   3.686 -0.0243  0.0221 -0.0517
29345ION     NA48199   3.937  12.759   3.722 -0.1579 -0.3533 -0.0759
29346ION     NA48200  15.891  16.530  11.108  0.2002  0.3446  0.1911
29347ION     NA48201   4.086  16.397   6.080  0.1601  0.0614 -0.0150
29348ION     NA48202   4.305   0.021  11.174 -0.0385  0.0294  0.2080
29349ION     NA48203   9.648   4.758  11.353 -0.1344  0.1391  0.1440
29350ION     NA48204   2.169   0.363  11.070  0.0633  0.0068  0.1516
29351ION     NA48205   5.321   8.054   6.236 -0.1875  0.3747  0.1108
29352ION     NA48206  10.372  14.160   2.330  0.3083  0.2313 -0.0933
29353ION     NA48207  12.890   0.565  16.631  0.0316  0.0731 -0.2652
29354ION     NA48208  12.357   4.572   6.305 -0.1170  0.0555  0.1575
29355ION     NA48209   7.892  10.177  15.043 -0.1937 -0.4207  0.1722
29356ION     NA48210   8.994   0.280  11.503  0.1771 -0.0121 -0.1105
29357ION     NA48211   7.542   9.148  11.450 -0.1567  0.0600  0.3157
29358ION     NA48212  13.659  10.505   6.139 -0.0538 -0.2034 -0.3911
29359ION     NA48213  13.649   4.783  12.984  0.2318  0.0784 -0.0459
29360ION     NA48214  14.095  12.086   5.924 -0.1314 -0.1061 -0.1306
29361ION     NA48215   2.370   3.921   6.020 -0.1603 -0.0180  0.3824
29362ION     NA48216   9.547  16.376  11.357 -0.1718  0.0185  0.0052
29363ION     NA48217   0.072   6.477  11.037 -0.0070  0.0118  0.2063
29364ION     NA48218  10.849   4.344  11.397  0.0456 -0.0780  0.1616
29365ION     NA48219   6.425   8.114   5.165 -0.0130  0.1242  0.0602
29366ION     NA48220  16.472   6.363  13.123  0.0390  0.0019  0.3554
29367ION     NA48221   4.444   3.296  11.121  0.0620 -0.1822  0.1815
29368ION     NA48222   7.399   0.972   6.118  0.0936  0.1935  0.0743
29369ION     NA48223  17.047   6.953  17.199  0.2047 -0.1075 -0.1631
29370ION     NA48224  12.723  10.361  11.706 -0.0399 -0.0999  0.0302
29371ION     NA48225  16.121   7.423   1.930 -0.2205 -0.0551  0.1341
29372ION     NA48226  11.963   5.459   6.222 -0.3600  0.1794  0.3592
29373ION     NA48227   6.896   0.205   6.237 -0.2177 -0.1873 -0.2426
29374ION     NA48228  16.847  14.838   5.661  0.0143  0.0685 -0.1412
29375ION     NA48229   3.349   9.558  11.422 -0.0295  0.1705  0.1257
29376ION     NA48230   9.873  10.149  11.484  0.1453  0.1739 -0.0976
29377ION     NA48231  10.603  13.360  11.320 -0.3035 -0.3672  0.1662
29378ION     NA48232   6.414  13.159  11.322  0.1847 -0.0724 -0.0590
29379ION     NA48233   4.346   7.468  11.069  0.1356  0.1019  0.0473
29380ION     NA48234  14.773  17.303   1.461  0.0429 -0.0424  0.1787
29381ION     NA48235   9.823   8.246   6.003 -0.1909  0.1849  0.3290
29382ION     NA48236  11.377  13.909   3.886  0.0889 -0.1015 -0.1928
29383ION     NA48237   2.561   6.348  11.049  0.2412 -0.1531 -0.0531
29384ION     NA48238  14.788   7.203  17.246  0.0314 -0.0783  0.0457
29385ION     NA48239   1.416   2.736  11.094  0.0388 -0.1666 -0.3336
29386ION     NA48240  12.605  15.992   3.802 -0.0716  0.0119  0.1827
29387ION     NA48241  15.033  17.011   0.523 -0.4452  0.1061 -0.4974
29388ION     NA48242   7.241  10.987   2.239  0.2491  0.2031  0.1656
29389ION     NA48243  12.764  17.274   0.730 -0.0745 -0.0914 -0.0818
29390ION     NA48244   5.049  15.859   2.526 -0.2753  0.0641 -0.2562
29391ION     NA48245   5.473  13.485  15.403 -0.3753  0.1053  0.2339
29392ION     NA48246  14.328  14.222  11.343  0.1895  0.0505 -0.1227
29393ION     NA48247   2.882  12.921  11.387 -0.2007  0.0967 -0.1612
29394ION     NA48248  15.107   4.829   6.002  0.2795 -0.0784 -0.4424
29395ION     NA48249   9.770   3.751   2.402 -0.0742 -0.0288  0.0638
29396ION     NA48250   9.240  10.958  11.350 -0.0089  0.1657  0.0811
29397ION     NA48251   7.625  10.859   5.956 -0.0101  0.2778  0.1811
29398ION     NA48252  14.726   4.697  11.044  0.0982 -0.0322 -0.0500
29399ION     NA48253   0.830   5.753  11.015  0.0541 -0.0193  0.1932
29400ION     NA48254   2.042   1.247  11.166 -0.1163  0.0893  0.1057
29401ION     NA48255  13.987  10.382   4.510  0.0521  0.1542 -0.1653
29402ION     NA48256   1.852   3.530  11.276  0.0156  0.0440  0.1778
29403ION     NA48257   3.044  12.458  11.250 -0.2776 -0.0082  0.0055
29404ION     NA48258  14.120   0.613  11.339  0.1742  0.3252 -0.1496
29405ION     NA48259   4.462  15.413  17.214  0.1150 -0.1052  0.1179
29406ION     NA48260   7.769   2.625   6.030 -0.1601  0.0405 -0.1330
29407ION     NA48261   3.562  10.561   6.209 -0.0073 -0.1024  0.1476
29408ION     NA48262   5.663   4.524  10.965  0.0572  0.0348  0.3085
29409ION     NA48263   1.515   9.831   5.977  0.0058 -0.1529  0.0910
29410ION     NA48264  16.723  12.942  11.608  0.2252 -0.2311 -0.1806
29411ION     NA48265   7.144   0.307   5.334 -0.0413  0.0562 -0.0128
29412ION     NA48266   0.495   3.248   1.135  0.1768  0.1343 -0.2940
29413ION     NA48267  17.522   0.417   5.950 -0.3303 -0.1093 -0.1447
29414ION     NA48268   1.034   5.276   4.751 -0.2130  0.1661 -0.3102
29415ION     NA48269   5.804   8.600   6.241  0.0848 -0.0787  0.2282
29416ION     NA48270  15.323   0.083  11.312  0.1906  0.1805  0.0254
29417ION     NA48271  13.901   1.732  13.497 -0.4126 -0.2457  0.2002
29418ION     NA48272   3.264  12.555   5.936  0.3110  0.2781  0.0774
29419ION     NA48273   4.951   9.013  14.942  0.1377  0.1452 -0.3162
29420ION     NA48274   9.571  12.320  11.323  0.3704  0.1769 -0.5512
29421ION     NA48275  12.598  15.052  15.757  0.1655  0.2863 -0.4368
29422ION     NA48276   8.803   3.065   6.016 -0.0708  0.1338 -0.1127
29423ION     NA48277   0.080   0.252  13.900 -0.1405  0.0795 -0.0664
29424ION     NA48278   5.321  13.936   3.272  0.0766 -0.0421 -0.2636
29425ION     NA48279   1.007   4.914   5.872  0.2523 -0.0535  0.1697
29426ION     NA48280   0.142   8.990   0.645  0.3010 -0.1366 -0.0237
29427ION     NA48281  16.091   3.766  11.105 -0.1448  0.0585 -0.0408
29428ION     NA48282   7.365   8.366  11.433  0.3099  0.1979 -0.0636
29429ION     NA48283  15.228  11.854  11.362 -0.1205  0.1416  0.0515
29430ION     NA48284   6.836  13.323   2.210 -0.1513 -0.0754  0.1743
29431ION     NA48285   7.265  12.695  11.231  0.0332 -0.2833  0.0075
29432ION     NA48286  10.135  10.875  11.311 -0.1317  0.3295 -0.1803
29433ION     NA48287   8.693   4.976   5.886 -0.0444  0.2117 -0.3668
29434ION     NA48288   1.012   7.462   3.579  0.0652 -0.3207 -0.2091
29435ION     NA48289  16.185  13.501   5.846  0.0348 -0.2199  0.0505
29436ION     NA48290  11.250  10.838   6.005  0.2162 -0.2255  0.0718
29437ION     NA48291  15.221   5.537   5.969  0.3655 -0.0206  0.1502
29438ION     NA48292   9.797  15.537  11.521 -0.1339  0.2148  0.0216
29439ION     NA48293   8.740  12.012   5.888  0.2061  0.1045 -0.1856
29440ION     NA48294  16.534  12.010   2.116 -0.0138  0.1953 -0.1446
29441ION     NA48295   1.216   5.675  15.366  0.2101 -0.1132 -0.0212
29442ION     NA48296   8.167   0.691  11.470  0.0368  0.0833 -0.2183
29443ION     NA48297   2.233  15.363   0.077 -0.0867 -0.1792  0.0973
29444ION     NA48298  11.712  14.608   2.023 -0.1074 -0.2810 -0.2654
29445ION     NA48299   8.397  12.671  12.794  0.1399 -0.2628 -0.0331
29446ION     NA48300  14.290   8.361   6.273 -0.1849  0.0622 -0.3414
29447ION     NA48301   8.681  16.512  11.444 -0.2840 -0.0778  0.0949
29448ION     NA48302  16.506   6.283   6.060  0.0376 -0.4167 -0.2921
29449ION     NA48303  15.138   7.369   5.974 -0.0522 -0.1346  0.1671
29450ION     NA48304   3.571   3.905  11.599 -0.2190 -0.2771 -0.0912
29451ION     NA48305  13.810   6.994   5.683  0.0238  0.0514 -0.1966
29452ION     NA48306  11.551   6.815   6.136  0.0920  0.3478  0.0301
29453ION     NA48307   5.748  10.425   4.998  0.2412  0.0749 -0.1828
29454ION     NA48308  11.290  11.625   5.890  0.0830  0.0251 -0.1774
29455ION     NA48309   0.274  17.293   5.844 -0.0927 -0.0341 -0.3501
29456ION     NA48310  11.518   2.143  16.847 -0.0298 -0.0671  0.0219
29457ION     NA48311   4.025   8.801  11.268 -0.3825 -0.0362  0.0762
29458ION     NA48312  15.225  11.459   2.982 -0.1459 -0.1134 -0.1550
29459ION     NA48313  15.971   8.827  15.863  0.0135 -0.0980  0.0363
29460ION     NA48314  13.294  10.202   1.502 -0.3964 -0.1604  0.1629
29461ION     NA48315  11.397  16.477   6.050 -0.1517 -0.3230  0.0654
29462ION     NA48316  14.262   2.847  16.066 -0.1690  0.2096 -0.0933
29463ION     NA48317   1.341  11.490   6.142 -0.2357  0.2143 -0.2809
29464ION     NA48318   1.753   6.821  11.009  0.1711 -0.0866 -0.0467
29465ION     NA48319   8.400  14.439   3.320  0.2496 -0.1313 -0.0453
29466ION     NA48320   1.119  17.093   2.384  0.0217  0.0340 -0.1848
29467ION     NA48321   9.325   1.087  11.666  0.1297 -0.0208  0.0387
29468ION     NA48322  12.394  11.615   5.690  0.1999  0.1289  0.0875
29469ION     NA48323   2.223   7.845   6.402 -0.1962  0.2942 -0.2848
29470ION     NA48324  12.889   8.845   0.964 -0.1564 -0.1724 -0.4192
29471ION     NA48325   4.803  14.366   5.549 -0.1440 -0.1742 -0.2237
29472ION     NA48326   6.632   7.598   4.306 -0.0490 -0.1273 -0.0569
29473ION     NA48327   1.249   4.070   5.645  0.3406 -0.1666 -0.1495
29474ION     NA48328  14.424  11.606   2.321  0.0659 -0.0752  0.1108
29475ION     NA48329  16.811   5.172  16.337 -0.1133 -0.1398  0.3208
29476ION     NA48330   8.167  11.093  15.547 -0.0735 -0.1182  0.0665
29477ION     NA48331  13.228   9.793  16.168  0.1858 -0.0763  0.1032
29478ION     NA48332   7.210   1.957   6.086  0.0054  0.3551  0.0963
29479ION     NA48333   7.243  13.243  11.233  0.1183 -0.0758 -0.0766
29480ION     NA48334   3.288   3.608   6.026  0.0428  0.1943  0.0291
29481ION     NA48335   2.528   2.983   5.991 -0.1104  0.0834  0.0558
29482ION     NA48336   8.572  10.508   5.881  0.1893  0.0304  0.0053
29483ION     NA48337  16.017   5.158  14.317 -0.0798  0.0843  0.1415
29484ION     NA48338   1.469  13.067   6.129  0.0945  0.2366  0.2333
29485ION     NA48339   7.791  15.791   5.985  0.2391  0.0620 -0.1561
29486ION     NA48340  15.697   4.695  11.062 -0.0584  0.1547 -0.0557
29487ION     NA48341   3.457   3.581  13.931 -0.2694 -0.0856  0.0522
29488ION     NA48342  11.081  14.357  11.167  0.1381 -0.0823 -0.1532
29489ION     NA48343  13.544   5.374   6.114  0.1401  0.0569  0.0140
29490ION     NA48344  10.142  14.824  11.213 -0.2069  0.3099 -0.1902
29491ION     NA48345   0.120  17.243   5.340 -0.1682  0.2236  0.1128
29492ION     NA48346  15.863   5.830  11.045  0.1565 -0.1977  0.0730
29493ION     NA48347   2.237  12.065  11.498  0.2222 -0.0536 -0.1285
29494ION     NA48348   0.173   8.358   6.078  0.2577 -0.1625 -0.2016
29495ION     NA48349   0.167   5.586   1.063  0.0342  0.1142 -0.0060
29496ION     NA48350   2.033   4.614  11.446 -0.1403 -0.1294  0.1052
29497ION     NA48351   4.342   9.252   4.211 -0.2420  0.0224  0.0955
29498ION     NA48352  17.135  13.176   5.989  0.3576  0.0456 -0.0988
29499ION     NA48353  17.166   0.682   4.448 -0.1675  0.2693 -0.0640
29500ION     NA48354   9.226  14.015  15.291 -0.0783  0.2853  0.2472
29501ION     NA48355  15.635   8.198  11.344  0.1583  0.3610  0.1583
29502ION     NA48356   4.277  12.237  11.540 -0.1572 -0.0791 -0.2933
29503ION     NA48357  16.890  17.309   5.828  0.0136 -0.1309 -0.1580
29504ION     NA48358   7.834  16.619  11.300  0.3258  0.1730  0.0377
29505ION     NA48359  11.102  13.612  11.497 -0.2258  0.0744 -0.2327
29506ION     NA48360   2.294  16.321  11.487  0.1842  0.1214 -0.2197
29507ION     NA48361  17.369  12.302  11.341  0.0360 -0.0771  0.1741
29508ION     NA48362   7.972   1.125  13.770 -0.2133 -0.2153 -0.0525
29509ION     NA48363  13.927  11.300  15.385 -0.0835  0.1634  0.0043
29510ION     NA48364   7.844   6.672   6.005  0.1807 -0.1422  0.3622
29511ION     NA48365   2.763  13.339   5.989  0.1276  0.2402  0.1090
29512ION     NA48366   2.874   1.079  11.230 -0.0649  0.0657 -0.0778
29513ION     NA48367  15.060   4.058   1.294 -0.2164 -0.1497 -0.1148
29514ION     NA48368   0.439  15.629   4.735  0.2516 -0.0567 -0.1286
29515ION     NA48369   9.151   9.119   3.296 -0.1697 -0.1229 -0.1015
29516ION     NA48370   3.659   6.291   1.590  0.1865 -0.0624  0.1439
29517ION     NA48371   5.150   4.862   5.970 -0.3211  0.0323 -0.2198
29518ION     NA48372  13.995  12.889  11.499 -0.1723 -0.0272  0.0245
29519ION     NA48373  14.559   4.930   6.077 -0.0272 -0.0038  0.0199
29520ION     NA48374   6.606   6.357  11.159 -0.0056 -0.0131 -0.1206
29521ION     NA48375   4.316   0.996   5.925  0.3564  0.0372 -0.0914
29522ION     NA48376   5.626  15.014  11.519  0.0538  0.1302  0.0040
29523ION     NA48377   2.387   9.527   5.942  0.2365  0.1671 -0.0460
29524ION     NA48378  16.701   5.125   6.085 -0.2552 -0.0537 -0.0741
29525ION     NA48379  10.683   5.329   2.561  0.4247 -0.0621 -0.1734
29526ION     NA48380   6.511   9.042   6.055  0.2334 -0.1321  0.1129
29527ION     NA48381   4.934  14.462   4.597 -0.0198 -0.0507 -0.0867
29528ION     NA48382   3.177   7.393   6.352  0.0863  0.2260 -0.1011
29529ION     NA48383   0.610  15.449  11.344  0.0809 -0.2701 -0.1514
29530ION     NA48384   2.691  14.870   5.065  0.1300 -0.2160  0.1345
29531ION     NA48385  14.362  17.168   5.575 -0.2489 -0.0010 -0.0059
29532ION     NA48386   0.843   7.714  10.865 -0.0488 -0.0168 -0.1475
29533ION     NA48387  13.782   2.833   5.121 -0.0676 -0.0039 -0.0077
29534ION     NA48388  17.168  11.348   6.058  0.1253 -0.2415 -0.2242
29535ION     NA48389  12.593   2.999  11.217 -0.0467 -0.0771 -0.1734
29536ION     NA48390   9.953  12.710  11.247  0.0989  0.1637  0.1718
29537ION     NA48391  10.043   9.782   5.852 -0.0808 -0.2906  0.1617
29538ION     NA48392   7.328  15.429  11.220 -0.0159  0.3437  0.2925
29539ION     NA48393   6.724  10.745   2.053 -0.0181  0.3116 -0.2467
29540ION     NA48394   0.999  13.299   5.938  0.1251 -0.1170  0.0595
29541ION     NA48395   2.450  10.391  12.131  0.2879 -0.1500  0.3267
29542ION     NA48396   0.266  10.580  11.341 -0.2809 -0.0458 -0.3507
29543ION     NA48397   9.893  10.989  17.091  0.0752  0.0887 -0.0633
29544ION     NA48398  15.865  13.430  14.628  0.0513  0.0593  0.1804
29545ION     NA48399  11.564  16.679  11.332  0.1395 -0.0431  0.0799
29546ION     NA48400   6.182   4.459   6.064 -0.2316 -0.0145  0.1844
29547ION     NA48401  12.589  10.700  11.276  0.1601  0.0498 -0.1402
29548ION     NA48402   0.496   8.695  16.293 -0.1272 -0.1618 -0.2434
29549ION     NA48403  11.616  14.942  11.227 -0.2352  0.1176  0.1258
29550ION     NA48404   4.447   7.719   6.103  0.2080  0.1825  0.1406
29551ION     NA48405  16.553  15.070  11.260 -0.1642  0.1591 -0.1673
29552ION     NA48406   7.222   5.693   6.133 -0.2757 -0.0485  0.4272
29553ION     NA48407   0.912  15.928   0.555  0.1642  0.0943  0.1802
29554ION     NA48408   0.565  10.038   6.338  0.0249 -0.0907 -0.1346
29555ION     NA48409   8.336  17.389  11.415  0.1161  0.4047 -0.0456
29556ION     NA48410  16.483   2.948  11.020 -0.0991  0.0004  0.2017
29557ION     NA48411  10.802   3.857   6.173 -0.2632  0.0529  0.1601
29558ION     NA48412  14.567  11.366  11.113 -0.1816 -0.0456 -0.0372
29559ION     NA48413   1.440  12.418  11.507  0.2091  0.1847  0.1211
29560ION     NA48414  14.947   6.036  10.965 -0.1708  0.0849 -0.1012
29561ION     NA48415   7.044   2.847   6.173 -0.0143  0.1831  0.0119
29562ION     NA48416   4.080   6.468  14.808 -0.0953  0.3762 -0.2757
29563ION     NA48417   6.524  15.200   5.930 -0.1870  0.0806 -0.0910
29564ION     NA48418   2.202   3.192  11.315  0.3242 -0.0907 -0.1441
29565ION     NA48419  14.639  16.820   5.787  0.2717 -0.3816  0.0845
29566ION     NA48420   4.959   5.897  11.274 -0.2433  0.1388  0.2308
29567ION     NA48421  12.674   1.557  11.567  0.1639 -0.0357 -0.1667
29568ION     NA48422  16.770   9.355   2.754  0.1099 -0.2743 -0.0411
29569ION     NA48423   6.533   4.866  11.126  0.0472  0.0959 -0.1609
29570ION     NA48424  13.642   3.680  12.578  0.0193  0.2767 -0.4013
29571ION     NA48425   5.715   6.440  11.302 -0.0073  0.4201  0.0385
29572ION     NA48426   7.756  11.441   3.329 -0.1404 -0.1424  0.1252
29573ION     NA48427  15.859   2.038  10.999 -0.1147  0.2118  0.1377
29574ION     NA48428  10.250   1.175  11.428 -0.0706  0.3040  0.0463
29575ION     NA48429  10.277   7.733  12.699 -0.0721 -0.0533 -0.1562
29576ION     NA48430  14.509   3.967  11.112 -0.0334  0.3490 -0.4207
29577ION     NA48431  13.192   7.397   5.513 -0.0074 -0.0646 -0.0521
29578ION     NA48432  15.142   0.962  11.262 -0.0404 -0.0668 -0.0330
29579ION     NA48433  15.880  15.624  11.180  0.0482 -0.0317  0.4428
29580ION     NA48434  11.181   3.723   5.154  0.1901  0.1672 -0.0754
29581ION     NA48435   2.541   0.908   6.120  0.0529  0.0299 -0.0592
29582ION     NA48436  12.956   6.796  11.533 -0.0240  0.0388  0.1068
29583ION     NA48437  12.196   5.563  11.441 -0.4711  0.0141 -0.1498
29584ION     NA48438   0.270  13.644   5.842  0.0737  0.2874  0.1205
29585ION     NA48439   6.393  12.128   6.042 -0.0767  0.1291 -0.0229
29586ION     NA48440  14.168   4.716  12.141 -0.1429 -0.0873  0.3338
29587ION     NA48441  13.005   5.972  15.572  0.0060  0.2224  0.0383
29588ION     NA48442  15.104   1.199  15.289 -0.0554  0.2743 -0.1498
29589ION     NA48443  10.904   9.918   5.898  0.0546  0.0185 -0.2286
29590ION     NA48444   4.161   2.673   5.953 -0.0334 -0.0671  0.1473
29591ION     NA48445   1.513   9.055   6.011  0.0458 -0.1706 -0.2021
29592ION     NA48446  12.641   5.259  11.342  0.3044 -0.4161 -0.2151
29593ION     NA48447  10.157  11.498  11.060  0.0180  0.5644  0.0862
29594ION     NA48448  16.639   8.615  11.017 -0.1333 -0.1745  0.0464
29595ION     NA48449  14.756  16.811  11.326 -0.0163  0.2260 -0.0903
29596ION     NA48450   8.410  14.070   5.958 -0.1648  0.2004  0.5195
29597ION     NA48451  13.973  17.188  11.168 -0.2464  0.2752 -0.0038
29598ION     NA48452  15.461  12.052   6.179  0.0686 -0.1072  0.0881
29599ION     NA48453  17.098   1.578   4.698 -0.0681 -0.0672  0.0976
29600ION     NA48454   2.146  16.461   5.978  0.0733 -0.0872  0.0648
29601ION     NA48455  15.324   8.855   4.248 -0.1865  0.2723 -0.0937
29602ION     NA48456   6.878   6.073   1.060  0.0453  0.0926  0.3366
29603ION     NA48457  10.026  12.127   5.760 -0.3520  0.1369  0.2239
29604ION     NA48458   4.341   4.853   2.273  0.2225 -0.0064  0.1354
29605ION     NA48459  14.924   7.616  11.347 -0.3098 -0.0157 -0.1268
29606ION     NA48460   3.914   0.533  11.433  0.1849  0.2818 -0.3765
29607ION     NA48461   1.273  17.200   5.883 -0.0960  0.0045  0.0505
29608ION     NA48462   9.699   4.039   1.113  0.1308 -0.0193  0.0556
29609ION     NA48463   8.769   8.362  13.618  0.0638  0.1593  0.2123
29610ION     NA48464   0.652   9.050   6.434  0.1332  0.1450 -0.3726
29611ION     NA48465  16.788   0.372  11.055  0.3613  0.0530  0.0875
29612ION     NA48466  11.410   7.842  12.613 -0.1045  0.1539  0.2753
29613ION     NA48467   0.062   4.263  11.160  0.0854 -0.0861 -0.1305
29614ION     NA48468   4.577  16.944   1.218 -0.1403 -0.0414  0.1199
29615ION     NA48469  10.811  13.361   5.722 -0.2520 -0.0238  0.0261
29616ION     NA48470  11.836   4.214  11.222 -0.2016  0.0636  0.0424
29617ION     NA48471  12.630  12.476   5.569 -0.0807  0.0834  0.3777
29618ION     NA48472  10.460   4.647  11.506 -0.1999  0.1441 -0.1904
29619ION     NA48473   6.277   2.225   5.772 -0.4615 -0.2916  0.4330
29620ION     NA48474   1.392   0.832  11.119 -0.3210  0.2095 -0.2337
29621ION     NA48475   1.535   6.396   6.104  0.1355 -0.1742 -0.1955
29622ION     NA48476  16.970   7.712  13.050  0.1410  0.2228  0.0844
29623ION     NA48477   8.092   3.310  11.568  0.0609  0.0944  0.0616
29624ION     NA48478  15.269  14.011  11.199  0.3176 -0.2897  0.2027
29625ION     NA48479  15.347  15.625  11.098  0.1609 -0.0868  0.0195
29626ION     NA48480  13.101   4.660  16.989  0.2508  0.4508 -0.0515
29627ION     NA48481  14.533  10.881   6.085  0.0948 -0.2406 -0.1300
29628ION     NA48482  11.697   7.609   1.611  0.0623 -0.1583 -0.1342
29629ION     NA48483  12.904   5.207   6.106  0.1583  0.0556  0.4048
29630ION     NA48484  17.425  16.551   5.690  0.0136 -0.3239  0.0053
29631ION     NA48485   5.787   9.359  11.632 -0.0287 -0.2082 -0.2822
29632ION     NA48486  10.036  15.236  16.908 -0.0087  0.3033  0.0050
29633ION     NA48487   7.262   7.527   6.047  0.0703 -0.1625 -0.0616
29634ION     NA48488  13.659  11.443  11.413 -0.1893  0.3675  0.0239
29635ION     NA48489   7.723   4.126   1.688 -0.1343 -0.0470 -0.1701
29636ION     NA48490  12.351   6.169   5.991  0.1150 -0.0041  0.1114
29637ION     NA48491   8.273   0.465  15.937 -0.0418 -0.1778  0.0091
29638ION     NA48492  17.127  12.758  14.428 -0.2499 -0.2994 -0.0582
29639ION     NA48493   3.313   2.355  13.894  0.0364  0.0010 -0.0508
29640ION     NA48494  11.321  16.883  12.203 -0.1002 -0.1779  0.1691
29641ION     NA48495   9.603   4.938   6.096 -0.0374 -0.3715 -0.5317
29642ION     NA48496  13.806   4.381  11.288  0.1215  0.0560  0.3376
29643ION     NA48497   2.774   3.897  11.466  0.0750 -0.0472 -0.2124
29644ION     NA48498   8.669   8.365   6.069  0.1323 -0.2011  0.2784
29645ION     NA48499  15.676   6.617   5.973 -0.2819 -0.1497  0.1801
29646ION     NA48500  10.948  12.530   5.965  0.3554 -0.0213  0.3196
29647ION     NA48501   7.231  12.177   6.255 -0.2477  0.0141  0.2989
29648ION     NA48502   1.776   4.818   0.925 -0.1439 -0.0340 -0.0919
29649ION     NA48503  13.325   9.068  11.634 -0.0067 -0.2177 -0.4975
29650ION     NA48504   7.350   7.410   5.553  0.0433  0.0708 -0.2052
29651ION     NA48505   9.177   1.792   5.841 -0.1981  0.6154  0.0396
29652ION     NA48506   9.261  16.099   5.952 -0.0530 -0.3100  0.2496
29653ION     NA48507   5.035  14.295  11.499 -0.0083  0.0299  0.1867
29654ION     NA48508   9.500  15.211   6.106  0.0367 -0.0389  0.4193
29655ION     NA48509  16.140  14.124  11.230  0.3890 -0.0196 -0.0577
29656ION     NA48510  12.875  13.948  11.412  0.2248 -0.3457 -0.1465
29657ION     NA48511   2.830   2.213   5.647  0.1742  0.0664  0.1334
29658ION     NA48512   3.715   4.384   5.971 -0.0417  0.1681  0.0904
29659ION     NA48513   1.548   0.284  11.255  0.1715  0.2731  0.0716
29660ION     NA48514   8.905   6.431   5.958  0.0092  0.1401 -0.0833
29661ION     NA48515   7.385   6.614  11.279 -0.0682 -0.1998  0.0709
29662ION     NA48516   6.505   3.574  11.479  0.0165 -0.0872  0.2776
29663ION     NA48517  10.036   6.167  11.442  0.2633  0.0814 -0.1034
29664ION     NA48518   5.466  15.862  11.409  0.1191  0.0656  0.0029
29665ION     NA48519   8.230   2.283   5.977 -0.0491  0.3176  0.2722
29666ION     NA48520   9.448  10.419   5.890  0.2966  0.2523  0.1882
29667ION     NA48521   1.251   1.654  11.111  0.0559  0.3303 -0.0403
29668ION     NA48522   8.684   0.365   6.061 -0.0284 -0.0071 -0.2305
29669ION     NA48523  16.610  15.231  14.458 -0.2254  0.0138  0.1718
29670ION     NA48524   8.031  16.227   2.549 -0.0039  0.2700 -0.0000
29671ION     NA48525   5.871   4.946   4.213 -0.2615  0.0189  0.1679
29672ION     NA48526  15.200  10.341  15.963 -0.2321  0.2349 -0.1104
29673ION     NA48527  14.990  10.428  11.081  0.1970 -0.0104  0.2118
29674ION     NA48528   8.189   6.044  11.373 -0.2072  0.0400 -0.0716
29675ION     NA48529   4.105   4.583  11.232  0.1132  0.0482 -0.0308
29676ION     NA48530   4.836   9.740   6.199 -0.1286  0.1081 -0.2247
29677ION     NA48531   4.161  14.723  11.810  0.0932  0.1768  0.1590
29678ION     NA48532   4.506  15.558  11.436 -0.3399 -0.0039  0.0905
29679ION     NA48533   8.950   7.193  11.577 -0.0380 -0.0385  0.1131
29680ION     NA48534   6.169   9.884   1.864 -0.0897 -0.3005  0.0730
29681ION     NA48535   4.459  13.087  11.212  0.1889 -0.0075  0.0955
29682ION     NA48536   8.464   9.384  11.333 -0.0184  0.1643  0.0775
29683ION     NA48537   6.169   7.640   6.021 -0.4039  0.0438 -0.1271
29684ION     NA48538   1.562   9.861  11.303  0.0605 -0.0561  0.1131
29685ION     NA48539  13.736   4.195   5.982 -0.0065 -0.1810  0.1861
29686ION     NA48540  10.906   7.005  13.061 -0.1085  0.0199 -0.0346
29687ION     NA48541  13.873  15.133   5.680  0.4073  0.4707 -0.3338
29688ION     NA48542  15.076   0.180   5.752  0.2569 -0.3696  0.1507
29689ION     NA48543   0.385  11.087   5.977 -0.0246 -0.1316  0.3057
29690ION     NA48544   2.604  10.673  13.223 -0.1466 -0.1775  0.1420
29691ION     NA48545  13.014   2.595   6.145 -0.2086  0.0200 -0.0892
29692ION     NA48546   0.738  16.986   5.813  0.1635 -0.0590 -0.0571
29693ION     NA48547   8.240  11.090  11.522 -0.0386 -0.1243  0.2858
29694ION     NA48548   9.512   7.739  11.355 -0.0904  0.1342  0.2601
29695ION     NA48549   6.261   8.552  15.116  0.2718 -0.4354 -0.1027
29696ION     NA48550   4.876  16.011   6.174  0.0306  0.0897  0.0838
29697ION     NA48551   0.546   7.217   6.023 -0.3478  0.0389 -0.0498
29698ION     NA48552   0.848   6.664  10.717  0.1004  0.2901 -0.1308
29699ION     NA48553  15.157   2.547   5.681 -0.4202  0.2353  0.1419
29700ION     NA48554  16.393  15.146   5.851 -0.1862  0.2566 -0.3057
29701ION     NA48555   4.287   5.137   5.801 -0.2268  0.0040 -0.1591
29702ION     NA48556  10.053   2.404  15.845 -0.0287  0.1704  0.0274
29703ION     NA48557   6.574   9.433  11.488 -0.2323  0.3910  0.2230
29704ION     NA48558   5.003   2.840   1.537 -0.2587 -0.0697  0.0532
29705ION     NA48559   6.333  10.045   2.809  0.1771 -0.0232 -0.1339
29706ION     NA48560  14.106   8.115  13.450 -0.2434 -0.2293  0.1168
29707ION     NA48561  16.373   9.842   6.487  0.0898  0.2672 -0.1415
29708ION     NA48562  12.947  17.317   5.889  0.0994 -0.1466  0.0867
29709ION     NA48563   0.433   3.423  11.172  0.0930 -0.0097 -0.2346
29710ION     NA48564  12.915  15.367  16.916  0.0476  0.2247  0.1033
29711ION     NA48565  14.682  12.503  11.498  0.0707 -0.1395  0.1129
29712ION     NA48566   9.092  13.748   5.899  0.1779 -0.1820 -0.2290
29713ION     NA48567   7.545  10.266   5.154  0.3190 -0.2038  0.1871
29714ION     NA48568  10.599   9.696  11.847 -0.3885 -0.0483 -0.1717
29715ION     NA48569  14.089   7.687  11.909 -0.2772 -0.2435 -0.1929
29716ION     NA48570   3.743   6.560   6.216 -0.2842 -0.1683 -0.0130
29717ION     NA48571  12.372  13.030  15.557 -0.1670 -0.1234 -0.1855
29718ION     NA48572   3.545   1.752  14.545 -0.1886 -0.1873 -0.0869
29719ION     NA48573   5.824   9.962  15.948  0.1361  0.1529 -0.0238
29720ION     NA48574  12.546   9.317  15.741  0.0089 -0.0447 -0.1464
29721ION     NA48575  11.190  11.899  11.170  0.1106 -0.1444 -0.2495
29722ION     NA48576  16.624  10.634   6.183 -0.1207  0.0377  0.1374
29723ION     NA48577   0.314  12.841   5.815  0.0353 -0.0060 -0.2237
29724ION     NA48578   6.037   0.602   1.005  0.2497  0.2340  0.2356
29725ION     NA48579   1.795   5.749  10.847 -0.0194 -0.0825 -0.2131
29726ION     NA48580   6.063  14.624   6.161 -0.0790  0.0257  0.2307
29727ION     NA48581  13.741  16.653  12.031 -0.2219  0.2356  0.5103
29728ION     NA48582   1.479   5.209   1.857  0.2205  0.0384 -0.1746
29729ION     NA48583  13.280  16.472   5.875 -0.1086  0.1179 -0.3131
29730ION     NA48584   3.503   4.714  12.732 -0.2491  0.0485 -0.1507
29731ION     NA48585  13.506   5.080  11.300  0.0663 -0.1687 -0.3335
29732ION     NA48586   1.398  15.882  14.471 -0.4814 -0.4199  0.0007
29733ION     NA48587   1.356   9.075  11.222 -0.1644 -0.0286 -0.2857
29734ION     NA48588   1.659   6.256  10.977 -0.4406  0.2555  0.3389
29735ION     NA48589  12.152  11.440  11.214  0.1505  0.1146 -0.4032
29736ION     NA48590   9.729   6.548   0.862 -0.0031  0.2300  0.0275
29737ION     NA48591   0.102  13.173  11.563  0.1937  0.0418 -0.2119
29738ION     NA48592  14.009  10.012  11.453 -0.0298 -0.0520  0.1737
29739ION     NA48593  16.624  16.265  14.973 -0.1416 -0.0443 -0.0378
29740ION     NA48594  12.594   4.820  16.389  0.2404 -0.0837 -0.1260
29741ION     NA48595  10.419  10.121   0.880 -0.2697 -0.2154 -0.1160
29742ION     NA48596  14.913   4.057   2.311  0.0402  0.0231 -0.1806
29743ION     NA48597  13.346  13.182   5.832  0.1511 -0.2090 -0.3882
29744ION     NA48598  15.668  14.444   5.942 -0.1794 -0.0760 -0.4494
29745ION     NA48599  16.546  14.250   1.222  0.1650  0.2111  0.1464
29746ION     NA48600   5.101   3.771   6.271  0.3786  0.0366  0.2703
29747ION     NA48601   2.192   4.945   3.954 -0.1927 -0.0033 -0.1459
29748ION     NA48602   1.750   3.320   5.680 -0.0263  0.2128  0.3350
29749ION     NA48603   6.763  14.344   5.160 -0.2184 -0.3669 -0.1601
29750ION     NA48604   0.198  16.264   5.844  0.1389  0.0069  0.0045
29751ION     NA48605  11.335   0.623   6.126 -0.2034 -0.0599 -0.1460
29752ION     NA48606  16.460  11.103  11.532  0.0477  0.1578 -0.1404
29753ION     NA48607  13.171   9.663   6.438  0.2605  0.2504  0.2307
29754ION     NA48608   1.644  13.853  11.303  0.3106  0.3351 -0.0468
29755ION     NA48609   4.356   7.325   3.873 -0.1644 -0.0175 -0.0702
29756ION     NA48610   6.937  15.848   0.781  0.0000  0.0880 -0.1514
29757ION     NA48611   5.442  11.942   6.067 -0.1001  0.2396  0.2222
29758ION     NA48612   7.640  10.499  11.241  0.0909  0.2463 -0.0306
29759ION     NA48613   6.899   5.106   5.998  0.0604 -0.0212  0.2959
29760ION     NA48614   3.991  11.118  15.114  0.0452  0.0887 -0.0369
29761ION     NA48615  10.468   9.015   5.942 -0.2557  0.0669  0.2381
29762ION     NA48616   8.778  16.563  15.370 -0.1522  0.0097 -0.0542
29763ION     NA48617   1.334  14.939   3.187 -0.1002 -0.0078  0.1432
29764ION     NA48618   1.279   5.756   6.046  0.0918  0.0245  0.0132
29765ION     NA48619  10.972   0.752  16.250 -0.0784 -0.1668 -0.0745
29766ION     NA48620   9.511  10.699  16.139 -0.1162  0.0652 -0.1747
29767ION     NA48621  16.316   8.946   4.820 -0.1384  0.0129  0.1826
29768ION     NA48622  14.232   6.538  11.153  0.0974 -0.2683  0.0481
29769ION     NA48623   2.322   7.411   6.144  0.0330  0.0292 -0.0197
29770ION     NA48624  12.240   0.012   6.122  0.5771 -0.0078 -0.3467
29771ION     NA48625   7.160   4.307   5.766 -0.2596  0.1344 -0.0858
29772ION     NA48626   6.537  13.533   5.932 -0.3060  0.1120  0.1395
29773ION     NA48627   3.819   8.674  11.755 -0.2881 -0.6280 -0.1485
29774ION     NA48628   8.409   2.472  11.502 -0.1944  0.3379 -0.0986
29775ION     NA48629  15.942   0.963  11.233 -0.2892 -0.0166  0.1441
29776ION     NA48630  11.127   1.046  11.425  0.2722  0.3055  0.0430
29777ION     NA48631  10.139  12.813   5.830 -0.0223 -0.0208 -0.0367
29778ION     NA48632   4.021   9.867   6.088 -0.0830 -0.1053  0.2152
29779ION     NA48633   7.814   7.075   3.785 -0.1308 -0.1172 -0.0594
29780ION     NA48634   3.259  13.678  17.018 -0.1245 -0.1681 -0.0772
29781ION     NA48635   9.471  16.395  16.857  0.1845  0.2144  0.2796
29782ION     NA48636  13.842  11.232   5.802  0.0709  0.0150 -0.1528
29783ION     NA48637   6.552   3.685   6.033 -0.0056  0.1031  0.1225
29784ION     NA48638  16.921   3.538   5.472 -0.2334  0.0108 -0.0914
29785ION     NA48639   9.137   0.426   1.772 -0.0013 -0.0617  0.1814
29786ION     NA48640   4.094  14.800   6.067 -0.1068 -0.0420 -0.0810
29787ION     NA48641   6.401   3.985  11.147 -0.0011  0.0465 -0.3504
29788ION     NA48642   4.866  16.802  13.224 -0.0788  0.2991  0.2393
29789ION     NA48643   4.591   4.061   0.407 -0.2550  0.1690 -0.3311
29790ION     NA48644  12.301  12.440   4.456  0.0460 -0.4228 -0.0839
29791ION     NA48645  16.961  11.448  11.302  0.0975  0.0192  0.2280
29792ION     NA48646  17.357  14.963  13.964  0.3159  0.0837  0.3562
29793ION     NA48647  13.275   5.815   2.229 -0.2433 -0.1312 -0.0997
29794ION     NA48648   0.794  11.476  11.402 -0.3904  0.1212  0.0749
29795ION     NA48649  17.292  10.066   6.501 -0.0783  0.0363 -0.2539
29796ION     NA48650  10.388   7.870  11.440 -0.2301  0.0131 -0.0879
29797ION     NA48651  12.153  10.425   5.721  0.1204 -0.2324 -0.3689
29798ION     NA48652   5.364   6.078   6.018  0.0478 -0.1343  0.1996
29799ION     NA48653  13.049  12.071  11.268 -0.0763 -0.1472 -0.0274
29800ION     NA48654   6.970   0.440  15.994  0.0847 -0.0539  0.2398
29801ION     NA48655   5.012   1.847  12.238  0.3174 -0.3343  0.0199
29802ION     NA48656  12.997   4.231   4.323 -0.3522 -0.0987  0.1983
29803ION     NA48657   6.580  10.735   5.671 -0.0576  0.1524  0.1369
29804ION     NA48658   4.249  13.860  11.367  0.0404 -0.1184  0.1994
29805ION     NA48659   1.526  17.446  15.180  0.1303 -0.3948  0.3393
29806ION     NA48660  17.430   2.812  11.054  0.0953 -0.1027  0.3930
29807ION     NA48661  10.707   8.230  11.266 -0.1256 -0.3235 -0.0067
29808ION     NA48662   5.764  15.723   6.111 -0.0299 -0.0784  0.1360
29809ION     NA48663  14.231   2.805   2.369 -0.1278  0.1214 -0.2019
29810ION     NA48664   5.829  16.502   5.904  0.3342  0.0313  0.0110
29811ION     NA48665   3.795  13.958   6.079 -0.1724  0.2347  0.1550
29812ION     NA48666   3.475   5.366   6.026 -0.0827  0.2973 -0.1436
29813ION     NA48667  16.553   2.389   5.739 -0.1871 -0.2135  0.3936
29814ION     NA48668   2.726   3.558   5.984  0.0810 -0.1227 -0.0691
29815ION     NA48669   8.850   4.070   6.127  0.1430 -0.2517 -0.1771
29816ION     NA48670  13.682  14.427  11.286 -0.0656  0.0008 -0.1394
29817ION     NA48671  14.697   2.957  11.186 -0.1035 -0.2592  0.2181
29818ION     NA48672  12.219   7.183  11.558  0.1529  0.2959  0.0861
29819ION     NA48673  17.131   5.028  11.112 -0.0451 -0.3824  0.0448
29820ION     NA48674  13.391   3.697   0.941 -0.1767  0.0455 -0.2417
29821ION     NA48675   7.300  15.944  11.565  0.2889 -0.0326 -0.1331
29822ION     NA48676   0.604   0.337  11.265 -0.1630  0.2525  0.0120
29823ION     NA48677   5.078  16.505   5.986  0.2300 -0.1896 -0.2586
29824ION     NA48678  16.761  12.340   5.837 -0.0388  0.0440  0.0353
29825ION     NA48679  10.267  10.475   3.651 -0.0697 -0.1856  0.1386
29826ION     NA48680  12.988  12.957  11.555 -0.4485 -0.0228  0.1819
29827ION     NA48681   8.904  16.695   4.011  0.2276 -0.0589 -0.0272
29828ION     NA48682   2.702   4.749   2.412  0.1905  0.1663  0.1575
29829ION     NA48683  14.285   2.784   5.922 -0.1856  0.1885  0.2142
29830ION     NA48684  17.160   3.709  11.220  0.1868 -0.1110  0.2483
29831ION     NA48685  17.580   5.262   5.984  0.0964 -0.0405  0.1555
29832ION     NA48686  12.105   5.967   5.099 -0.0122  0.0082  0.0858
29833ION     NA48687   9.999  15.643  12.462  0.2114 -0.0116 -0.1030
29834ION     NA48688  15.181   2.262   0.826  0.0360 -0.1105  0.0426
29835ION     NA48689   2.719  11.928   6.082 -0.1061  0.0899 -0.0502
29836ION     NA48690   3.918   9.879  14.232  0.0567  0.1341  0.1798
29837ION     NA48691  16.208  13.248   3.881  0.1355 -0.2766  0.2045
29838ION     NA48692  15.802  10.112   4.940 -0.1058 -0.1713  0.1358
29839ION     NA48693   5.161  15.524  12.353  0.0925 -0.0723  0.3242
29840ION     NA48694   8.790  14.617   6.034  0.1379 -0.0025  0.0729
29841ION     NA48695   5.602   6.520  11.904  0.0395 -0.1578 -0.1412
29842ION     NA48696  14.268   8.981  11.260  0.1267  0.1110  0.1015
29843ION     NA48697   3.217   2.267  11.384 -0.1537  0.1843 -0.4420
29844ION     NA48698   0.121  15.316   5.963 -0.2234 -0.1504 -0.0202
29845ION     NA48699  10.326  10.687   5.934 -0.0953 -0.0083  0.1507
29846ION     NA48700  11.447   4.729   4.671 -0.0958  0.1304  0.0684
29847ION     NA48701   0.631  11.931   5.579  0.1259  0.2506  0.1980
29848ION     NA48702  12.077   8.505  11.500  0.0617 -0.1149  0.0253
29849ION     NA48703  12.074   8.821   6.252 -0.1539 -0.0651 -0.4322
29850ION     NA48704   0.130   1.022  11.439  0.0772 -0.2296  0.2047
29851ION     NA48705   6.317   0.882   5.908  0.0371  0.1051  0.2854
29852ION     NA48706   2.037  14.742  11.383 -0.1007  0.2169  0.1266
29853ION     NA48707   9.788  17.016   4.090 -0.0832  0.2185 -0.2884
29854ION     NA48708  14.309  13.458   5.951 -0.4461  0.2074 -0.2377
29855ION     NA48709  11.539   7.225  11.651 -0.0468  0.0345 -0.1132
29856ION     NA48710   5.830   1.488  11.414 -0.1313 -0.0888  0.1764
29857ION     NA48711  16.821   8.308   6.418  0.0421  0.2062  0.0968
29858ION     NA48712   6.263  12.193  11.402 -0.0807 -0.0569 -0.2037
29859ION     NA48713  13.666   2.241   5.877 -0.1367  0.0034  0.3873
29860ION     NA48714  11.627   4.169   6.277  0.0928 -0.0519 -0.0618
29861ION     NA48715   3.387  17.127   5.930  0.0028  0.0884 -0.3857
29862ION     NA48716   5.051  17.237   5.968  0.1257 -0.2624  0.1925
29863ION     NA48717  15.908   2.876  16.142  0.3731 -0.1689  0.0932
29864ION     NA48718   6.314  10.046  11.377  0.0485 -0.4753  0.3699
29865ION     NA48719   2.411   5.045  10.955 -0.2459 -0.0710  0.0163
29866ION     NA48720   3.570   2.057   6.037 -0.5478  0.0792  0.2445
29867ION     NA48721   5.208   7.441   6.197 -0.2593 -0.0777 -0.0037
29868ION     NA48722   2.616  14.586   6.038  0.0796 -0.1766  0.0818
29869ION     NA48723  17.129   4.175   1.159  0.0299  0.2825 -0.2415
29870ION     NA48724  15.257  10.520   6.173  0.1207  0.1294 -0.2277
29871ION     NA48725  14.184   7.926   5.433  0.0378  0.0941  0.0048
29872ION     NA48726  15.206   4.274   5.937  0.0969 -0.2333  0.1281
29873ION     NA48727  10.094   8.511   4.813 -0.1353 -0.1467 -0.0708
29874ION     NA48728   3.663  13.073   1.500  0.2625  0.1257 -0.0320
29875ION     NA48729   5.851  17.433  16.166  0.1635  0.0080 -0.1495
29876ION     NA48730   6.567   8.471   2.765  0.2615 -0.1148 -0.2671
29877ION     NA48731  14.921   0.692   4.703 -0.2328  0.0821  0.1304
29878ION     NA48732   7.641   8.099   5.829  0.1148 -0.2131  0.3057
29879ION     NA48733  16.916   1.714   5.739  0.1379 -0.0416  0.0138
29880ION     NA48734   0.035   6.564   3.543 -0.0345  0.2641  0.0651
29881ION     NA48735   0.508   8.254  11.179  0.1346 -0.3200 -0.0005
29882ION     NA48736   6.209  13.987  12.732  0.1851  0.2652 -0.0328
29883ION     NA48737   7.826   5.055   6.170 -0.1912  0.1551 -0.0091
29884ION     NA48738   4.592   1.917   5.800 -0.2848 -0.1529 -0.1759
29885ION     NA48739   8.901  12.819  11.223  0.2029 -0.0275  0.0472
29886ION     NA48740  10.688   6.311   6.009 -0.1574  0.2008  0.0799
29887ION     NA48741   7.044  12.835   5.984 -0.0513  0.2077 -0.1284
29888ION     NA48742   7.775  14.376   6.157  0.1410 -0.2971  0.1454
29889ION     NA48743   2.191   7.380  14.422  0.2287 -0.0856  0.0661
29890ION     NA48744   6.813   1.308   4.214  0.4459 -0.1491  0.0301
29891ION     NA48745  16.617   6.933   5.913  0.0561 -0.3364 -0.1342
29892ION     NA48746   2.227   2.816  12.321 -0.1307  0.3167 -0.1903
29893ION     NA48747  14.083   9.638  14.272 -0.0843  0.1006  0.0821
29894ION     NA48748   3.956   7.797  15.913 -0.0312 -0.0423  0.2008
29895ION     NA48749  13.956   7.922  11.443 -0.1058  0.3608 -0.1589
29896ION     NA48750  11.725   2.884   5.248  0.2024  0.1682 -0.4196
29897ION     NA48751  10.096   7.269   2.327  0.2937  0.0166 -0.4648
29898ION     NA48752  13.164   7.494  11.423 -0.0678 -0.1792  0.3005
29899ION     NA48753   8.240   7.531   6.140 -0.0401 -0.1630 -0.0235
29900ION     NA48754  11.480   7.858  11.581 -0.2862  0.1781 -0.2105
29901ION     NA48755  15.750  12.554   6.057  0.2014 -0.3209 -0.1956
29902ION     NA48756   6.747   1.551  11.653 -0.0177  0.1392 -0.0452
29903ION     NA48757   0.704   7.760   5.109 -0.0570 -0.2300 -0.2629
29904ION     NA48758  11.650  14.181  12.365 -0.0080 -0.0914 -0.1975
29905ION     NA48759   9.607  13.428  11.150  0.0127 -0.4373  0.2320
29906ION     NA48760  15.481   7.095  11.036  0.1477  0.0436 -0.1512
29907ION     NA48761   0.828   0.388   5.778 -0.2300 -0.0624  0.0160
29908ION     NA48762  14.677  14.914   5.877  0.1966 -0.2217  0.0738
29909ION     NA48763   3.084  14.698  11.401  0.0976  0.0191 -0.0282
29910ION     NA48764   0.536  12.993  12.856  0.0636  0.1105 -0.2505
29911ION     NA48765  16.311  16.981  16.227 -0.1221  0.0404  0.1042
29912ION     NA48766   6.225   5.943   6.031 -0.1082  0.1960  0.0706
29913ION     NA48767   0.756  16.880  11.315  0.0296 -0.2679 -0.4633
29914ION     NA48768   3.412  11.455  11.385 -0.2186  0.0317 -0.1261
29915ION     NA48769   9.811   0.363  11.602  0.0159 -0.0591 -0.2744
29916ION     NA48770   9.308  14.346  11.197  0.1813  0.0739 -0.0050
29917ION     NA48771   8.095  12.544  11.355 -0.1632 -0.1209  0.0526
29918ION     NA48772   0.054   0.956   5.898 -0.2373  0.1419 -0.0459
29919ION     NA48773   6.796   8.337   6.072  0.0563 -0.3632 -0.2595
29920ION     NA48774   9.545   5.623  11.913 -0.2961 -0.1470  0.3321
29921ION     NA48775  11.834   8.927  12.665 -0.0501 -0.1774  0.1366
29922ION     NA48776  17.181  16.111  11.277  0.0617 -0.0779 -0.2993
29923ION     NA48777   0.353  14.294  13.513  0.1356  0.4662 -0.2249
29924ION     NA48778  16.158   5.680   6.020 -0.0800 -0.0035 -0.1116
29925ION     NA48779   8.372   1.198   6.017  0.1741 -0.1917 -0.1654
29926ION     NA48780   4.414  13.065  16.944 -0.0060  0.0045 -0.3302
29927ION     NA48781  11.845  13.830  11.407 -0.1414 -0.1114  0.1622
29928ION     NA48782  16.379   7.026  14.263  0.2846  0.2735  0.1092
29929ION     NA48783   1.492   2.403   5.686  0.1689  0.1220 -0.1032
29930ION     NA48784  14.909  13.961   5.895  0.1016  0.0559  0.0948
29931ION     NA48785   6.567  14.831  11.360 -0.1159 -0.1932  0.1115
29932ION     NA48786   7.331  17.390  11.580  0.1473  0.0230 -0.1816
29933ION     NA48787  10.306   5.503   6.127  0.0275  0.0193  0.0853
29934ION     NA48788   6.232   7.779  11.701 -0.1285  0.0043 -0.0930
29935ION     NA48789  12.205   9.898  11.626  0.1496 -0.0074  0.4075
29936ION     NA48790  12.514   3.439   6.177  0.0109 -0.2553 -0.2199
29937ION     NA48791  12.021  15.259   5.839  0.1434  0.2250 -0.1544
29938ION     NA48792  14.119   3.926  13.449 -0.0861  0.3704 -0.0811
29939ION     NA48793  10.189   4.481   5.975 -0.0392  0.0199  0.0886
29940ION     NA48794  13.715   0.277   5.919 -0.3004 -0.0323  0.2314
29941ION     NA48795   2.551  15.447  11.320 -0.2787 -0.1245  0.0464
29942ION     NA48796   5.737  14.528  14.526  0.0683  0.2144  0.0863
29943ION     NA48797   2.681  16.995  12.191  0.0909 -0.1469 -0.1823
29944ION     NA48798   0.083  11.774   0.387 -0.1890 -0.1671  0.1936
29945ION     NA48799   5.015  10.402   3.749 -0.0867 -0.1245  0.1446
29946ION     NA48800   5.744   0.360   5.904  0.4582  0.0530  0.2233
29947ION     NA48801  11.239  14.598   5.962 -0.0482  0.0819  0.1538
29948ION     NA48802   8.845   2.767  11.334  0.0275  0.1513 -0.4581
29949ION     NA48803  15.617   3.781  13.650 -0.0787  0.1659 -0.2538
29950ION     NA48804  14.545  11.491  11.660  0.1924 -0.0104  0.1965
29951ION     NA48805  13.005   0.794   5.931  0.0034  0.0227 -0.1435
29952ION     NA48806  14.754  11.427   6.151  0.2965  0.1243 -0.2607
29953ION     NA48807  10.568   3.397   5.965  0.0628  0.1109 -0.2439
29954ION     NA48808   7.360  15.787  12.465  0.2953  0.3840  0.1020
29955ION     NA48809  13.083   8.500   6.202 -0.4174  0.0855  0.3131
29956ION     NA48810  10.802   6.576  11.515 -0.3373 -0.1607 -0.0994
29957ION     NA48811  14.815   8.104  11.510 -0.0952 -0.2210 -0.0684
29958ION     NA48812  13.140   2.289  11.375 -0.0291 -0.0389 -0.2404
29959ION     NA48813  11.364   3.423  12.455  0.0533  0.1627  0.1664
29960ION     NA48814  10.389  14.168   5.757 -0.0806  0.2036 -0.1348
29961ION     NA48815  17.290   9.887  11.244 -0.1633  0.1519  0.0512
29962ION     NA48816  10.044   2.098  11.637 -0.1253 -0.0998 -0.0227
29963ION     NA48817   7.518   3.496   5.951 -0.0277 -0.2813 -0.2184
29964ION     NA48818   7.543   0.400  12.920  0.1435  0.0927  0.2079
29965ION     NA48819   1.539  16.785  11.334 -0.0551 -0.0439 -0.1908
29966ION     NA48820   5.867  11.148   6.189 -0.1653  0.2169 -0.2109
29967ION     NA48821   1.678  15.690  11.327  0.0951  0.1065  0.1827
29968ION     NA48822  11.743   0.165  11.192  0.3480 -0.0074 -0.1129
29969ION     NA48823   5.496  15.258   6.243  0.3344  0.0270 -0.0157
29970ION     NA48824   1.196  16.229  11.818 -0.2590  0.5501  0.0077
29971ION     NA48825  16.780  14.258  11.256 -0.1253  0.3541 -0.1137
29972ION     NA48826   9.281  13.135  14.780  0.3295 -0.1378  0.0113
29973ION     NA48827   4.613  12.144   6.093 -0.2648 -0.0065  0.0227
29974ION     NA48828   9.158   9.746   3.875 -0.0832 -0.0005  0.2064
29975ION     NA48829  13.952   4.332  16.952  0.0811 -0.2053 -0.0183
29976ION     NA48830   1.863  10.853   6.291 -0.1450 -0.0850 -0.2582
29977ION     NA48831  13.610   0.411  11.352 -0.3770  0.1085  0.3093
29978ION     NA48832   2.369  12.665   6.033 -0.3298  0.0054 -0.1405
29979ION     NA48833   9.562   3.484   5.941 -0.5147 -0.2108 -0.0771
29980ION     NA48834   1.980  13.756   5.906 -0.1745 -0.0888  0.1628
29981ION     NA48835  10.799   8.085   6.177 -0.2045  0.5385  0.0440
29982ION     NA48836   6.197   5.335  11.181  0.2579 -0.0578 -0.0271
29983ION     NA48837  10.712  13.379   3.754 -0.1787 -0.3187 -0.1513
29984ION     NA48838   2.966   0.263  11.372  0.0602  0.1397 -0.3187
29985ION     NA48839   6.893   3.626  15.893  0.0018  0.2128 -0.0562
29986ION     NA48840   3.956  13.146   5.924  0.0505 -0.5477  0.0233
29987ION     NA48841   1.222   1.644   5.822  0.0951 -0.0513 -0.2356
29988ION     NA48842   8.878   4.276  11.494  0.0020 -0.0366 -0.1476
29989ION     NA48843  10.580   5.642  11.515  0.2370  0.1184  0.0882
29990ION     NA48844   8.260  11.842   1.844  0.0784  0.1372  0.0749
29991ION     NA48845   2.215   5.681   5.933 -0.0785 -0.0247  0.0777
29992ION     NA48846  15.988   2.044  16.708 -0.2457 -0.0187 -0.1770
29993ION     NA48847  15.520  15.650  16.881 -0.0820 -0.2382  0.0611
29994ION     NA48848   9.404   6.618   6.070 -0.0931 -0.0840 -0.2824
29995ION     NA48849   2.837  17.030   1.760 -0.0168 -0.0553  0.1097
29996ION     NA48850   2.093   1.705   5.652 -0.1266  0.1272  0.0079
29997ION     NA48851  11.547  11.707   3.898 -0.0361  0.2114 -0.1555
29998ION     NA48852  15.582  16.643   5.586  0.0187  0.1142  0.0244
29999ION     NA48853   6.505   3.257  12.315  0.1435 -0.1342 -0.1074
30000ION     NA48854  12.261   9.715   6.159  0.2285  0.0049  0.0955
30001ION     NA48855  10.661   5.847   1.211 -0.2791 -0.5055 -0.0369
30002ION     NA48856  17.464  17.475  11.323 -0.1029 -0.0983 -0.1696
30003ION     NA48857  12.531  14.812   0.777  0.2527  0.1449  0.0395
30004ION     NA48858  10.165  13.277   2.729  0.0585 -0.2795  0.0248
30005ION     NA48859  11.451   4.692   6.118  0.3142  0.0521  0.1275
30006ION     NA48860   4.559  10.788  12.750  0.2267 -0.1123  0.2608
30007ION     NA48861   8.258  15.585   5.019 -0.1144 -0.1759  0.0109
30008ION     NA48862  14.935   6.312   6.210 -0.0829 -0.0258  0.2089
30009ION     NA48863  15.251   8.275   6.290  0.1676  0.2823 -0.1575
30010ION     NA48864   5.825   7.737   3.925  0.3132  0.0549 -0.1381
30011ION     NA48865   4.404   0.544   6.024 -0.2564 -0.1651 -0.1469
30012ION     NA48866   7.308  10.516   6.165 -0.1455 -0.1204  0.1241
30013ION     NA48867  12.653   7.454  17.100  0.3383  0.0787 -0.0040
30014ION     NA48868   9.409   3.348  11.546  0.1488 -0.2183 -0.3717
30015ION     NA48869  13.047  10.711   1.485  0.3390  0.0118  0.1064
30016ION     NA48870  13.210  11.932   5.913  0.0007 -0.0503 -0.0806
30017ION     NA48871   4.938   9.443  11.259 -0.3005 -0.2101 -0.0338
30018ION     NA48872  14.151  12.979   5.925 -0.0581 -0.1042 -0.0331
30019ION     NA48873   1.173  17.529  11.307 -0.0968  0.0974 -0.1904
30020ION     NA48874   2.037  10.207   2.813  0.0126 -0.1862  0.0561
30021ION     NA48875   6.017  16.944   6.165 -0.1948 -0.0455 -0.1943
30022ION     NA48876   2.943  17.392  11.206 -0.0017  0.0995  0.3761
30023ION     NA48877   9.213   5.575   6.169 -0.0375  0.0993 -0.0100
30024ION     NA48878   6.250  15.746  17.242 -0.1315 -0.0648 -0.0689
30025ION     NA48879  13.121   1.595   3.209 -0.1053  0.1240  0.1834
30026ION     NA48880  16.498   4.445  10.976  0.0491 -0.1490 -0.1319
30027ION     NA48881  10.887  17.329  11.226 -0.2785 -0.2272 -0.1795
30028ION     NA48882   7.003   8.742   2.854 -0.1165  0.0189  0.0458
30029ION     NA48883   7.101  14.762  16.736  0.1929  0.2897  0.2450
30030ION     NA48884  14.066   1.896  11.762 -0.3955 -0.0734 -0.1117
30031ION     NA48885   3.005   4.481   5.987  0.1229  0.0598  0.2077
30032ION     NA48886  13.340  12.167  16.328  0.2156 -0.1961 -0.1318
30033ION     NA48887   5.139  12.509  11.391  0.0155  0.0959 -0.4158
30034ION     NA48888   1.864   8.322  12.457  0.0910 -0.1244 -0.1757
30035ION     NA48889  11.249   8.820  11.460 -0.2943 -0.0980 -0.0768
30036ION     NA48890   3.047  15.680  11.433  0.0508  0.2380 -0.1787
30037ION     NA48891   3.934   0.296   5.937 -0.2206  0.1377 -0.1646
30038ION     NA48892   5.068   7.155  11.457  0.1030  0.1429 -0.1639
30039ION     NA48893  11.232  17.269   6.092  0.0294  0.0943 -0.2041
30040ION     NA48894   6.913  12.195   5.093 -0.2545  0.0344  0.0254
30041ION     NA48895   8.438  15.121   5.884  0.1167  0.1785  0.2350
30042ION     NA48896  16.018  15.863   5.680  0.2969 -0.3809 -0.0272
30043ION     NA48897  15.466   1.693   5.564 -0.0752  0.1143 -0.0378
30044ION     NA48898   7.760  12.419  14.919 -0.1285 -0.0437 -0.0406
30045ION     NA48899   0.789  14.296   5.776 -0.2900  0.1907 -0.2284
30046ION     NA48900   8.126  14.383  14.068 -0.0567 -0.2327 -0.1690
30047ION     NA48901   9.642   1.577   4.631  0.0754  0.5895 -0.0184
30048ION     NA48902  17.200   4.501   5.741 -0.2144 -0.1370  0.5530
30049ION     NA48903   1.705  11.633  11.338  0.1295  0.0457 -0.1170
30050ION     NA48904   2.876  17.501  15.722  0.0940  0.0925 -0.1720
30051ION     NA48905   3.561   2.900  11.346 -0.2975  0.2342  0.0170
30052ION     NA48906   7.971  14.222  11.407  0.5032  0.3326  0.2185
30053ION     NA48907  17.506   5.345   1.957 -0.1460 -0.0362  0.0857
30054ION     NA48908  16.569   0.365   1.498  0.1483 -0.1442 -0.0394
30055ION     NA48909   1.508  14.066  11.846 -0.0094 -0.1644 -0.2297
30056ION     NA48910   9.788  17.474   6.154  0.1241  0.1308 -0.0462
30057ION     NA48911  15.246   3.622   2.621 -0.0379  0.1451  0.1076
30058ION     NA48912   1.516  14.672   5.999  0.0206 -0.0253  0.0797
30059ION     NA48913  13.131   3.571   3.460 -0.1895 -0.0677 -0.1834
30060ION     NA48914   5.525  11.724  11.334 -0.0328  0.0762  0.0463
30061ION     NA48915  11.991   0.799  11.658 -0.0604 -0.1290 -0.0592
30062ION     NA48916  12.589  11.745  11.772  0.0218  0.3573  0.1862
30063ION     NA48917  12.469   7.768   6.225 -0.1190  0.2629  0.0771
30064ION     NA48918  16.341   2.856   5.640  0.0150  0.0381 -0.0159
30065ION     NA48919   3.067   7.148  11.584  0.3707 -0.0852  0.1026
30066ION     NA48920   1.668   9.277  15.581 -0.1277 -0.1660 -0.0055
30067ION     NA48921  17.277  15.202  11.210  0.1028  0.2936  0.2625
30068ION     NA48922   9.546   8.137   0.264 -0.0038 -0.1521 -0.1079
30069ION     NA48923  11.034   3.299   4.154 -0.0266  0.2285  0.3177
30070ION     NA48924   0.208   1.181  12.528  0.0520  0.0454  0.0943
30071ION     NA48925   0.455   2.503   5.492 -0.2967  0.2006 -0.2875
30072ION     NA48926   2.293  17.317   5.804  0.2657 -0.1710  0.0124
30073ION     NA48927  16.020   7.945   6.154  0.0172 -0.1030  0.2365
30074ION     NA48928   6.396   1.155  11.291  0.2884  0.1613  0.1969
30075ION     NA48929   9.697   2.472  11.598  0.1902  0.2514 -0.0772
30076ION     NA48930  17.047   5.495   6.066 -0.1238 -0.1209 -0.1691
30077ION     NA48931   8.485  14.980  11.183  0.0474  0.2448 -0.2474
30078ION     NA48932   5.358  10.661  11.678 -0.1515  0.1638  0.2495
30079ION     NA48933  12.801  16.795   5.939 -0.2406  0.1906  0.0093
30080ION     NA48934  14.468   1.977   5.760 -0.1230  0.1355 -0.1024
30081ION     NA48935   3.658  12.190   5.892 -0.0951 -0.0178  0.3283
30082ION     NA48936   9.145   6.246  11.560  0.2118 -0.0119  0.1026
30083ION     NA48937  12.969  15.804  11.410  0.0053 -0.0473  0.2668
30084ION     NA48938   0.922  10.479  11.437 -0.1305  0.0077 -0.2938
30085ION     NA48939  13.050  17.123  11.355 -0.0122  0.2245  0.0309
30086ION     NA48940   9.953  16.630   6.101  0.0611 -0.2104  0.0194
30087ION     NA48941  12.698   0.328  11.484  0.1242 -0.0914 -0.1016
30088ION     NA48942   4.596   8.353  12.926 -0.3907  0.1159 -0.0564
30089ION     NA48943  16.729  17.000  11.171  0.2037  0.0472  0.0416
30090ION     NA48944   0.773  16.160  11.442  0.2530 -0.0110 -0.0527
30091ION     NA48945   5.483   2.296   6.003 -0.0616 -0.1165  0.0997
30092ION     NA48946  13.644   3.254   5.992 -0.2732 -0.2313  0.1126
30093ION     NA48947  15.899   7.171   5.834  0.0362 -0.0080 -0.1973
30094ION     NA48948   0.729   9.370  14.713 -0.0299  0.1536 -0.2324
30095ION     NA48949  12.265  14.367   5.814 -0.2453 -0.0420 -0.3179
30096ION     NA48950   4.035  13.176  11.986  0.1017  0.1082 -0.0836
30097ION     NA48951  11.511   9.682  11.544  0.1425  0.2539 -0.3314
30098ION     NA48952   3.409  17.393  11.370 -0.4179  0.0918 -0.1706
30099ION     NA48953  15.816   0.638   5.639 -0.0960  0.1326  0.1147
30100ION     NA48954  11.171   5.532   5.948 -0.0231  0.0187  0.0844
30101ION     NA48955   5.938   6.612   6.174 -0.4176 -0.0318 -0.0652
30102ION     NA48956  11.390   9.749   0.048  0.0519 -0.1959  0.0977
30103ION     NA48957   8.193  11.253   5.960  0.1131  0.1612  0.2010
30104ION     NA48958   0.098   7.398  10.889  0.5353  0.2200  0.0963
30105ION     NA48959  17.449   8.256  14.119 -0.2517  0.0980  0.3242
30106ION     NA48960   8.693  10.385  11.233 -0.0046  0.1270 -0.0193
30107ION     NA48961  10.941  14.601   4.830 -0.0756  0.2165 -0.2459
30108ION     NA48962  14.286  15.227  11.296  0.1542 -0.2830 -0.0025
30109ION     NA48963   7.808   6.298   2.323 -0.0308  0.3324  0.2356
30110ION     NA48964  11.156  16.256  11.490 -0.0992  0.2597  0.0649
30111ION     NA48965   7.426  16.170   5.956 -0.2614 -0.3876 -0.2401
30112ION     NA48966  16.126  11.867  15.310 -0.4738  0.0167 -0.1959
30113ION     NA48967  15.971   4.859   5.761 -0.1069  0.0512  0.3354
30114ION     NA48968   6.899  16.682  11.436 -0.1901 -0.2932  0.0355
30115ION     NA48969   4.940  11.288   6.108 -0.0485  0.1604  0.2176
30116ION     NA48970   2.242   6.495   5.574 -0.1181 -0.0223  0.1318
30117ION     NA48971   9.904  11.233   5.541 -0.0516 -0.1109  0.1551
30118ION     NA48972  16.958   7.749  11.050  0.0604 -0.0805 -0.1478
30119ION     NA48973   6.438  15.883  11.233  0.2453  0.1369 -0.4097
30120ION     NA48974   6.570  16.100   6.173  0.0996  0.0073 -0.0438
30121ION     NA48975   1.390  12.257  12.081  0.0463  0.0573 -0.1368
30122ION     NA48976  15.655   3.086  11.131 -0.1356  0.2774 -0.0162
30123ION     NA48977  16.448  12.194  11.477  0.0685  0.1251 -0.0740
30124ION     NA48978  15.231  14.350   5.043 -0.0295 -0.0477 -0.0172
30125ION     NA48979  13.267   1.220  11.273  0.0958 -0.0750  0.1678
30126ION     NA48980  12.087  11.388   6.049 -0.0159  0.0380  0.2561
30127ION     NA48981  11.501   6.848  12.095  0.1470 -0.1855 -0.1144
30128ION     NA48982   4.152   9.034   6.357  0.1040 -0.0328 -0.1775
30129ION     NA48983   6.657   7.582  16.057  0.1766 -0.0796  0.0906
30130ION     NA48984   0.365  12.282  11.479  0.2140  0.0657 -0.2258
30131ION     NA48985   7.351   7.482  11.341 -0.0646  0.4134  0.0510
30132ION     NA48986  10.182  17.474  11.332  0.1227  0.0084  0.1813
30133ION     NA48987  15.654  14.866  12.460 -0.1896 -0.0033  0.0410
30134ION     NA48988   9.639  15.124  13.162 -0.1548  0.4869 -0.0714
30135ION     NA48989   8.108   4.722  11.723 -0.2802 -0.0380  0.2349
30136ION     NA48990   3.787   4.284  14.538 -0.0883  0.3208  0.1119
30137ION     NA48991   6.024   2.747  16.704  0.0462  0.3114  0.2483
30138ION     NA48992   7.201   0.683  11.648 -0.3595 -0.1650 -0.5126
30139ION     NA48993  12.923   2.048  15.034  0.1085 -0.2846  0.0131
30140ION     NA48994   2.597  15.410  16.420  0.1036  0.2158  0.0548
30141ION     NA48995  11.698   2.766  11.435 -0.2713  0.1833 -0.1076
30142ION     NA48996   9.080  16.631   1.218  0.1230  0.0610  0.0441
30143ION     NA48997  17.354   8.027  11.229  0.1117  0.0740  0.2251
30144ION     NA48998  15.439  11.025   6.162  0.0300 -0.0822 -0.3465
30145ION     NA48999   2.868   7.716   0.774  0.2821  0.1770 -0.1436
30146ION     NA49000   0.932  13.616  11.243  0.0583  0.1559 -0.2128
30147ION     NA49001   5.611   6.537   0.404 -0.1039  0.1081  0.0246
30148ION     NA49002   2.152  17.240  11.444 -0.2698  0.1162  0.0433
30149ION     NA49003   3.362   2.790   5.911  0.2939 -0.0824 -0.1127
30150ION     NA49004   0.413   9.115  10.894  0.2927 -0.3066 -0.2258
30151ION     NA49005  12.500  17.114  11.317 -0.2351 -0.1959 -0.0229
30152ION     NA49006  11.684   8.383   6.288  0.1081 -0.2270 -0.1790
30153ION     NA49007  12.251   3.465  11.356 -0.1462 -0.1464 -0.2187
30154ION     NA49008  17.049   1.512  15.803 -0.0843  0.0423 -0.0151
30155ION     NA49009  15.098  10.352  14.404  0.2042  0.0301 -0.0926
30156ION     NA49010  17.386   1.891  11.116 -0.1560 -0.2285 -0.1242
30157ION     NA49011   7.308   3.440  11.380  0.2567  0.0501 -0.0515
30158ION     NA49012   8.726  15.539   6.070  0.0300 -0.1427 -0.2161
30159ION     NA49013   4.580   1.464  11.270 -0.1313 -0.2814  0.1031
30160ION     NA49014  12.289  12.399  11.261 -0.0063  0.0115  0.2063
30161ION     NA49015  10.206  13.992  11.234 -0.0818  0.0496 -0.0027
30162ION     NA49016  16.102  15.604  15.603 -0.2951  0.5405 -0.0723
30163ION     NA49017   7.216   9.831  11.228 -0.0298  0.4876  0.1645
30164ION     NA49018   4.263  12.742   5.871  0.1412 -0.2600  0.1099
30165ION     NA49019  14.895   1.849  11.041  0.0290  0.2025  0.2522
  17.60064  17.60064  17.24720
