INSANE! Membrane UpperLeaflet>loPI:POPI:DPPI:PYPI:ERGO=80.0:5.0:3.0:2.0:10.0 LowerLeaflet>loPI:POPI:DPPI:PYPI:ERGO=80.0:5.0:3.0:2.0:10.0
49019
    1loPI    C1    1   8.742  15.420  11.684  0.0067 -0.0363  0.2185
    1loPI    C2    2   8.718  15.630  12.023 -0.0396  0.1890  0.0776
    1loPI    C3    3   8.744  15.820  11.672 -0.1012 -0.0420 -0.0536
    1loPI   PO4    4   8.939  15.351  11.562  0.1424  0.1839  0.1827
    1loPI   GL1    5   8.968  15.232  11.149  0.2245  0.2237 -0.0452
    1loPI   GL2    6   8.672  15.102  11.024 -0.1661  0.0934  0.1017
    1loPI   C1A    7   9.161  15.060  10.807  0.2744 -0.2010 -0.0799
    1loPI   C2A    8   9.115  15.060  10.404 -0.0036  0.0628 -0.1062
    1loPI   C3A    9   9.092  15.066   9.995 -0.0335  0.0464  0.2685
    1loPI   C4A   10   9.124  15.073   9.485 -0.0319 -0.2211 -0.2821
    1loPI   C5A   11   9.178  14.857   9.092  0.2547 -0.0576  0.0310
    1loPI   C6A   12   9.073  14.672   8.675  0.5120  0.0764 -0.3030
    1loPI   C1B   13   8.604  14.912  10.643 -0.1399  0.0605 -0.2012
    1loPI   C2B   14   8.613  14.955  10.197 -0.2145 -0.0084  0.3219
    1loPI   C3B   15   8.504  14.931   9.742  0.2090  0.2126 -0.1177
    1loPI   C4B   16   8.542  14.826   9.277  0.0413 -0.1648  0.0479
    2loPI    C1   17  15.671  14.780  11.522  0.1143 -0.0752 -0.0047
    2loPI    C2   18  15.433  14.501  11.682 -0.0858 -0.0047 -0.1736
    2loPI    C3   19  15.509  14.839  11.883 -0.0135 -0.0879 -0.0594
    2loPI   PO4   20  15.609  14.786  11.203  0.1116 -0.0500  0.0036
    2loPI   GL1   21  15.683  15.026  10.853 -0.1412  0.2455  0.1376
    2loPI   GL2   22  15.660  15.380  10.862  0.1297 -0.0018  0.2671
    2loPI   C1A   23  15.562  14.817  10.437  0.0412 -0.2032  0.1855
    2loPI   C2A   24  15.444  14.770  10.017 -0.2838  0.1544  0.0593
    2loPI   C3A   25  15.552  14.720   9.700 -0.1400  0.1220  0.0680
    2loPI   C4A   26  15.538  14.712   9.233  0.2232 -0.1115 -0.1809
    2loPI   C5A   27  15.343  14.829   8.823 -0.0050  0.0436  0.0666
    2loPI   C6A   28  15.149  14.742   8.409  0.0634 -0.0416  0.1973
    2loPI   C1B   29  15.791  15.254  10.434  0.0564  0.0670 -0.0998
    2loPI   C2B   30  15.709  15.251   9.984 -0.1118  0.1470  0.0393
    2loPI   C3B   31  15.680  15.225   9.572 -0.2390 -0.2720 -0.2666
    2loPI   C4B   32  15.713  15.224   9.192  0.2267  0.2220 -0.0301
    3loPI    C1   33   9.969   1.868  11.731  0.0572  0.0371 -0.0620
    3loPI    C2   34  10.227   1.641  11.526  0.2381  0.0389  0.1589
    3loPI    C3   35  10.106   1.526  11.889  0.0369  0.1099  0.1155
    3loPI   PO4   36   9.814   1.914  11.523  0.0806  0.1146  0.0118
    3loPI   GL1   37   9.905   1.791  11.148 -0.1900 -0.1738  0.0043
    3loPI   GL2   38   9.892   1.535  10.876  0.1596  0.0662  0.1617
    3loPI   C1A   39   9.878   2.011  10.743  0.0192  0.1388  0.0096
    3loPI   C2A   40   9.878   1.989  10.327 -0.1845 -0.1632 -0.1385
    3loPI   C3A   41   9.930   2.067   9.945  0.0473 -0.1545 -0.0200
    3loPI   C4A   42   9.949   2.050   9.582 -0.2251 -0.0708  0.0670
    3loPI   C5A   43   9.930   2.082   9.141 -0.0466  0.1493 -0.0923
    3loPI   C6A   44   9.854   2.383   8.907 -0.2140  0.0959 -0.2222
    3loPI   C1B   45   9.833   1.541  10.471  0.0987  0.1806 -0.1331
    3loPI   C2B   46   9.784   1.572  10.035 -0.0204  0.2767 -0.0217
    3loPI   C3B   47   9.747   1.477   9.641 -0.1267 -0.1907  0.1961
    3loPI   C4B   48   9.723   1.653   9.274 -0.1271 -0.1570  0.2663
    4loPI    C1   49   1.907   9.897  11.922 -0.0846  0.1539 -0.0532
    4loPI    C2   50   2.141   9.622  12.094 -0.1348  0.1179 -0.0420
    4loPI    C3   51   2.065   9.966  12.283 -0.2086  0.0686  0.0184
    4loPI   PO4   52   1.985   9.784  11.655 -0.1765 -0.0284 -0.0603
    4loPI   GL1   53   2.026   9.659  11.212 -0.1426 -0.0871  0.0849
    4loPI   GL2   54   1.796   9.680  11.009  0.0729 -0.1143 -0.0146
    4loPI   C1A   55   2.294   9.747  10.815  0.0268 -0.2606 -0.1440
    4loPI   C2A   56   2.322   9.587  10.459  0.2128  0.0956  0.2320
    4loPI   C3A   57   2.278   9.668  10.034  0.3128 -0.0110 -0.0356
    4loPI   C4A   58   2.236   9.587   9.545 -0.0992  0.3246 -0.0452
    4loPI   C5A   59   2.398   9.750   9.073 -0.3517 -0.1272 -0.0972
    4loPI   C6A   60   2.308   9.618   8.537  0.0583 -0.0102 -0.3481
    4loPI   C1B   61   1.772   9.527  10.662 -0.1751  0.4174  0.0823
    4loPI   C2B   62   1.762   9.615  10.260 -0.1317  0.3499  0.0471
    4loPI   C3B   63   1.764   9.501   9.821  0.0019  0.1916  0.1977
    4loPI   C4B   64   1.782   9.392   9.357  0.1714 -0.0864 -0.2872
    5loPI    C1   65  12.134   7.176  11.918  0.2869 -0.1884  0.2592
    5loPI    C2   66  12.143   7.508  12.141  0.0799  0.1755 -0.2553
    5loPI    C3   67  11.843   7.246  12.183  0.3022 -0.0135  0.2308
    5loPI   PO4   68  12.262   7.406  11.563  0.3523  0.1004 -0.1805
    5loPI   GL1   69  12.236   7.304  11.169 -0.5573 -0.4212 -0.2971
    5loPI   GL2   70  12.359   7.554  11.078 -0.0405 -0.1111 -0.3410
    5loPI   C1A   71  12.269   7.262  10.669 -0.0449  0.0619  0.0668
    5loPI   C2A   72  12.238   7.211  10.228  0.1519 -0.1903  0.3389
    5loPI   C3A   73  12.284   7.134   9.770 -0.1651 -0.2358  0.2965
    5loPI   C4A   74  12.344   7.113   9.308 -0.2902 -0.0089 -0.3132
    5loPI   C5A   75  12.264   6.964   8.922 -0.2665  0.0429  0.1331
    5loPI   C6A   76  12.344   6.592   8.902 -0.1512 -0.3358 -0.1541
    5loPI   C1B   77  12.473   7.672  10.565 -0.0030  0.0358 -0.2567
    5loPI   C2B   78  12.480   7.658  10.037 -0.0427 -0.2511 -0.1157
    5loPI   C3B   79  12.488   7.586   9.611 -0.1803  0.2614  0.2294
    5loPI   C4B   80  12.566   7.675   9.209 -0.0934 -0.0469 -0.0432
    6loPI    C1   81  14.517   6.054  11.417  0.1109  0.1764 -0.1068
    6loPI    C2   82  14.443   5.973  11.802 -0.1654  0.1031 -0.1735
    6loPI    C3   83  14.778   6.166  11.699 -0.0120 -0.0192  0.0878
    6loPI   PO4   84  14.285   6.113  11.353  0.3435  0.5120 -0.1231
    6loPI   GL1   85  13.822   6.003  11.192  0.1093 -0.2447  0.1025
    6loPI   GL2   86  13.658   5.762  11.223  0.0829 -0.2153  0.0630
    6loPI   C1A   87  13.778   6.202  10.708 -0.0275  0.1115 -0.0999
    6loPI   C2A   88  13.915   6.141  10.343  0.3670  0.0246 -0.3068
    6loPI   C3A   89  13.927   6.105   9.789  0.2914  0.3222 -0.1898
    6loPI   C4A   90  13.848   6.210   9.315  0.3758  0.1938 -0.2340
    6loPI   C5A   91  14.011   6.006   8.922 -0.1953  0.0432  0.2215
    6loPI   C6A   92  14.092   5.678   8.800  0.1361 -0.1881 -0.0535
    6loPI   C1B   93  13.705   5.699  10.777 -0.1193  0.1769 -0.0443
    6loPI   C2B   94  13.640   5.674  10.395 -0.3101 -0.1208 -0.1153
    6loPI   C3B   95  13.629   5.686   9.870 -0.1344  0.3538 -0.0005
    6loPI   C4B   96  13.731   5.705   9.391  0.0243 -0.2450  0.0375
    7loPI    C1   97   8.758  14.917  11.743  0.0294 -0.0257  0.0334
    7loPI    C2   98   9.132  14.948  11.879 -0.0221  0.0221  0.1650
    7loPI    C3   99   8.831  15.116  12.081 -0.1085  0.0299  0.0311
    7loPI   PO4  100   8.840  14.783  11.467 -0.0529 -0.0792 -0.0747
    7loPI   GL1  101   9.045  14.665  11.158 -0.0377 -0.0128 -0.0342
    7loPI   GL2  102   9.169  14.464  11.124 -0.2711  0.0804  0.2233
    7loPI   C1A  103   9.003  14.625  10.683 -0.0965  0.1853  0.2039
    7loPI   C2A  104   8.893  14.552  10.253 -0.1382 -0.0080  0.1082
    7loPI   C3A  105   8.896  14.577   9.810  0.0523  0.0613  0.0034
    7loPI   C4A  106   8.931  14.571   9.380 -0.3240 -0.0831 -0.1314
    7loPI   C5A  107   8.764  14.480   8.979  0.1770  0.4635 -0.1278
    7loPI   C6A  108   8.572  14.133   8.729  0.1412 -0.1726 -0.1493
    7loPI   C1B  109   9.329  14.267  10.766 -0.2227 -0.2347 -0.2032
    7loPI   C2B  110   9.295  14.183  10.283  0.0614 -0.2801 -0.4755
    7loPI   C3B  111   9.264  14.162   9.851 -0.0927 -0.3143 -0.2839
    7loPI   C4B  112   9.225  14.105   9.440 -0.0707 -0.0750 -0.1484
    8loPI    C1  113  14.249   3.099  11.389  0.1397 -0.0453  0.0148
    8loPI    C2  114  14.214   3.331  11.713  0.3669  0.0372 -0.0180
    8loPI    C3  115  14.208   2.933  11.751  0.1327  0.0460  0.0561
    8loPI   PO4  116  14.275   3.254  11.241  0.1788 -0.1595 -0.0521
    8loPI   GL1  117  14.403   3.407  10.859  0.1313  0.0756  0.0114
    8loPI   GL2  118  14.088   3.506  10.809 -0.0758  0.0393  0.3382
    8loPI   C1A  119  14.479   3.267  10.504 -0.0978 -0.1021 -0.0648
    8loPI   C2A  120  14.404   3.217  10.037 -0.2055 -0.3861  0.1571
    8loPI   C3A  121  14.542   3.237   9.649 -0.2486 -0.1607  0.1039
    8loPI   C4A  122  14.495   3.307   9.217  0.1282  0.0967  0.1270
    8loPI   C5A  123  14.551   3.302   8.804  0.0390 -0.0640 -0.1744
    8loPI   C6A  124  14.807   3.362   8.403  0.0253 -0.0308  0.3864
    8loPI   C1B  125  14.103   3.577  10.380 -0.1020  0.4051 -0.1081
    8loPI   C2B  126  14.152   3.663   9.868 -0.0524 -0.2051 -0.1484
    8loPI   C3B  127  14.155   3.601   9.416  0.2856 -0.1548  0.1204
    8loPI   C4B  128  14.113   3.614   8.930 -0.0411  0.1715  0.0452
    9loPI    C1  129   6.995   3.687  11.970 -0.1157 -0.0797  0.1827
    9loPI    C2  130   7.181   3.899  12.254 -0.1133  0.1397  0.0201
    9loPI    C3  131   6.805   3.776  12.311 -0.0180 -0.0618  0.2331
    9loPI   PO4  132   7.021   3.853  11.735 -0.0782  0.0956 -0.0033
    9loPI   GL1  133   7.125   3.884  11.369  0.1845  0.2865  0.1214
    9loPI   GL2  134   7.180   4.154  11.275  0.0256 -0.1448 -0.0237
    9loPI   C1A  135   7.119   3.704  10.994 -0.2288  0.0528  0.0768
    9loPI   C2A  136   7.135   3.697  10.576 -0.2662  0.0605  0.2465
    9loPI   C3A  137   7.210   3.708  10.194 -0.0487 -0.0709  0.1242
    9loPI   C4A  138   7.134   3.705   9.764 -0.2188 -0.0226  0.0068
    9loPI   C5A  139   7.303   4.019   9.629 -0.1743 -0.0168 -0.0276
    9loPI   C6A  140   7.256   4.256   9.318 -0.0786  0.1752  0.0702
    9loPI   C1B  141   7.312   4.163  10.791 -0.0459  0.0637  0.0947
    9loPI   C2B  142   7.357   4.163  10.411  0.1859  0.3309  0.1742
    9loPI   C3B  143   7.275   4.324  10.063 -0.1448  0.2615  0.2461
    9loPI   C4B  144   7.418   4.595   9.810 -0.1490  0.1390  0.2156
   10loPI    C1  145   1.262  10.607  11.763  0.0318 -0.1242  0.0937
   10loPI    C2  146   1.030  10.573  12.088 -0.0204 -0.0290  0.0667
   10loPI    C3  147   1.199  10.925  11.999 -0.2627  0.0278 -0.1821
   10loPI   PO4  148   1.245  10.520  11.576  0.2854  0.4558 -0.1016
   10loPI   GL1  149   1.088  10.784  11.286 -0.0086  0.2266  0.0560
   10loPI   GL2  150   1.276  10.867  11.078 -0.1727 -0.2542 -0.2770
   10loPI   C1A  151   0.778  10.711  10.903  0.1347 -0.0982  0.0065
   10loPI   C2A  152   0.773  10.787  10.435  0.2309 -0.3109  0.1202
   10loPI   C3A  153   0.680  10.726  10.009 -0.1441 -0.0564  0.0741
   10loPI   C4A  154   0.776  10.641   9.585  0.2042 -0.3433 -0.2292
   10loPI   C5A  155   0.862  10.526   9.141 -0.1611 -0.1067  0.1254
   10loPI   C6A  156   1.156  10.212   9.004  0.2071 -0.0971  0.0541
   10loPI   C1B  157   1.232  10.939  10.743 -0.1248  0.0174 -0.2067
   10loPI   C2B  158   1.273  10.851  10.273  0.2324 -0.2798 -0.0209
   10loPI   C3B  159   1.155  10.839   9.897  0.1212  0.0796  0.1661
   10loPI   C4B  160   1.219  10.768   9.469  0.0666  0.1149 -0.1058
   11loPI    C1  161   1.110  11.381  11.617 -0.1296 -0.0014  0.0493
   11loPI    C2  162   0.860  11.694  11.605  0.0141  0.1101 -0.0677
   11loPI    C3  163   0.826  11.421  11.896 -0.5837 -0.1611 -0.3749
   11loPI   PO4  164   1.127  11.323  11.352 -0.0086  0.0696  0.2016
   11loPI   GL1  165   0.897  11.408  10.948 -0.0724 -0.2765 -0.0493
   11loPI   GL2  166   1.085  11.696  10.984  0.3965 -0.1826  0.2364
   11loPI   C1A  167   0.907  11.295  10.629 -0.3472  0.0726  0.2750
   11loPI   C2A  168   0.885  11.221  10.214  0.0228 -0.1490 -0.0508
   11loPI   C3A  169   0.894  11.177   9.721  0.0273 -0.1488 -0.0185
   11loPI   C4A  170   0.824  11.012   9.295  0.3108  0.0712  0.2983
   11loPI   C5A  171   0.716  10.868   8.828  0.1077 -0.2512 -0.1318
   11loPI   C6A  172   0.485  10.587   8.522  0.2256 -0.1000 -0.0474
   11loPI   C1B  173   1.057  11.763  10.573  0.2896  0.2781  0.0368
   11loPI   C2B  174   0.992  11.702  10.231  0.1892  0.0152  0.2869
   11loPI   C3B  175   0.949  11.714   9.805  0.1079 -0.1221 -0.0817
   11loPI   C4B  176   1.004  11.599   9.358 -0.2078 -0.0450  0.0522
   12loPI    C1  177  12.861   9.243  11.676  0.0408 -0.1510  0.1465
   12loPI    C2  178  12.881   9.514  11.969 -0.0457 -0.0490  0.0587
   12loPI    C3  179  12.567   9.266  11.946  0.0090 -0.1236  0.1095
   12loPI   PO4  180  13.061   9.302  11.512 -0.1109 -0.2446 -0.1245
   12loPI   GL1  181  13.320   9.259  11.220  0.2682  0.1733 -0.1474
   12loPI   GL2  182  13.171   9.566  11.040 -0.1732  0.0831  0.1738
   12loPI   C1A  183  13.468   9.260  10.744 -0.0013 -0.1030 -0.0458
   12loPI   C2A  184  13.468   9.300  10.287 -0.1057  0.0910 -0.0775
   12loPI   C3A  185  13.476   9.258   9.794 -0.0271  0.0290  0.1903
   12loPI   C4A  186  13.418   9.205   9.304  0.1906 -0.0967 -0.1698
   12loPI   C5A  187  13.462   9.125   8.943 -0.1192 -0.1008 -0.1023
   12loPI   C6A  188  13.501   8.708   8.711 -0.3157  0.1138  0.0736
   12loPI   C1B  189  13.066   9.588  10.600 -0.1384 -0.0367 -0.2259
   12loPI   C2B  190  13.112   9.667  10.194  0.1074  0.0060 -0.1674
   12loPI   C3B  191  13.074   9.622   9.727 -0.2769  0.0783 -0.0239
   12loPI   C4B  192  13.044   9.514   9.287  0.1768 -0.0516 -0.2205
   13loPI    C1  193  15.138   8.347  11.598 -0.0355 -0.2000 -0.0313
   13loPI    C2  194  15.201   8.122  11.923 -0.0097 -0.2172 -0.0483
   13loPI    C3  195  15.112   8.511  11.962  0.1692 -0.1779 -0.0256
   13loPI   PO4  196  15.368   8.355  11.426  0.2056 -0.1120  0.0283
   13loPI   GL1  197  15.495   8.219  11.091 -0.2529  0.0886  0.2078
   13loPI   GL2  198  15.186   8.123  11.029 -0.1459 -0.2164  0.1135
   13loPI   C1A  199  15.566   8.233  10.674 -0.1060 -0.2092 -0.1292
   13loPI   C2A  200  15.445   8.266  10.231 -0.0149 -0.0624  0.4584
   13loPI   C3A  201  15.519   8.322   9.774  0.1916  0.0509  0.0461
   13loPI   C4A  202  15.684   8.315   9.372  0.0625 -0.1126  0.1220
   13loPI   C5A  203  15.356   8.311   8.932 -0.0258 -0.1876 -0.4029
   13loPI   C6A  204  15.267   8.059   8.498 -0.0129  0.1519 -0.1571
   13loPI   C1B  205  15.044   8.171  10.649  0.2972 -0.3007 -0.1940
   13loPI   C2B  206  14.853   8.148  10.249 -0.0953 -0.0093 -0.1700
   13loPI   C3B  207  15.001   8.250   9.851 -0.0088 -0.1617  0.1937
   13loPI   C4B  208  15.034   8.192   9.453 -0.1599 -0.1099  0.0023
   14loPI    C1  209  12.540   4.762  11.609  0.2637 -0.0236 -0.0163
   14loPI    C2  210  12.185   4.579  11.623  0.2344  0.0255 -0.1071
   14loPI    C3  211  12.431   4.563  11.938  0.1271  0.0409 -0.0218
   14loPI   PO4  212  12.812   4.646  11.402  0.2045  0.2374 -0.0313
   14loPI   GL1  213  12.779   4.447  11.049  0.2113 -0.1107 -0.0428
   14loPI   GL2  214  13.104   4.611  10.948  0.2683  0.0016 -0.2343
   14loPI   C1A  215  12.932   4.211  10.743 -0.0077 -0.0605 -0.1996
   14loPI   C2A  216  12.791   4.226  10.298 -0.0113  0.4411  0.1251
   14loPI   C3A  217  12.854   4.125   9.921  0.2282  0.1118  0.1595
   14loPI   C4A  218  12.897   4.133   9.535 -0.1146 -0.1863 -0.2288
   14loPI   C5A  219  12.729   4.180   9.144 -0.3119 -0.0846  0.1084
   14loPI   C6A  220  12.783   4.018   8.727 -0.2174 -0.0395  0.1103
   14loPI   C1B  221  13.085   4.635  10.484 -0.0351 -0.0498  0.0299
   14loPI   C2B  222  13.058   4.610  10.031  0.1278 -0.0692 -0.0272
   14loPI   C3B  223  13.001   4.633   9.538  0.1856 -0.2424  0.0620
   14loPI   C4B  224  12.940   4.639   9.093 -0.1271  0.0022 -0.0338
   15loPI    C1  225  10.195  13.022  11.745  0.0824  0.0431 -0.0113
   15loPI    C2  226   9.853  13.124  11.926 -0.0745 -0.1262 -0.2072
   15loPI    C3  227  10.170  13.014  12.144 -0.0669  0.2607 -0.0146
   15loPI   PO4  228  10.141  12.998  11.576  0.1214 -0.0677 -0.0759
   15loPI   GL1  229  10.198  12.756  11.164 -0.0345 -0.0055  0.3511
   15loPI   GL2  230  10.023  12.990  11.102  0.0450  0.2875  0.0122
   15loPI   C1A  231  10.195  12.617  10.776 -0.0991 -0.0690 -0.0290
   15loPI   C2A  232  10.116  12.601  10.270  0.0174 -0.1011 -0.2547
   15loPI   C3A  233  10.123  12.534   9.868  0.3357  0.0160  0.1369
   15loPI   C4A  234  10.165  12.534   9.465 -0.2046 -0.0075  0.2315
   15loPI   C5A  235  10.151  12.463   9.046 -0.4954  0.3514 -0.1559
   15loPI   C6A  236  10.474  12.424   8.685  0.0406 -0.0203 -0.1047
   15loPI   C1B  237   9.811  13.003  10.747 -0.3416  0.2959  0.1953
   15loPI   C2B  238   9.772  12.984  10.351 -0.1318 -0.3714  0.0205
   15loPI   C3B  239   9.775  12.883   9.836  0.0866 -0.0251  0.0510
   15loPI   C4B  240   9.794  12.872   9.375 -0.1169 -0.0525 -0.0555
   16loPI    C1  241   4.834  10.747  12.068 -0.0680  0.0472  0.0634
   16loPI    C2  242   5.189  10.649  12.223  0.0158 -0.2354 -0.2938
   16loPI    C3  243   4.861  10.451  12.336 -0.0619  0.1344  0.1596
   16loPI   PO4  244   4.897  10.706  11.800 -0.1029 -0.0220  0.1134
   16loPI   GL1  245   4.673  10.808  11.443 -0.3490  0.0236 -0.0662
   16loPI   GL2  246   4.365  10.710  11.281 -0.1494  0.1342 -0.0418
   16loPI   C1A  247   4.945  10.853  11.032 -0.0709 -0.1253  0.1462
   16loPI   C2A  248   5.037  10.817  10.604  0.1273  0.0905 -0.1087
   16loPI   C3A  249   4.949  10.919  10.101 -0.4008 -0.0021 -0.1180
   16loPI   C4A  250   4.892  10.812   9.665 -0.1116 -0.1491  0.0606
   16loPI   C5A  251   4.816  10.710   9.151 -0.2167  0.1151 -0.0067
   16loPI   C6A  252   4.442  10.641   8.851 -0.0022 -0.0232  0.1027
   16loPI   C1B  253   4.542  10.626  10.876 -0.0192 -0.2561  0.0158
   16loPI   C2B  254   4.585  10.697  10.398  0.1695 -0.1242 -0.1901
   16loPI   C3B  255   4.497  10.713  10.003  0.1342  0.1922  0.1399
   16loPI   C4B  256   4.415  10.677   9.563  0.0139  0.1488  0.1671
   17loPI    C1  257  15.612  16.061  11.596 -0.1981  0.0397  0.0872
   17loPI    C2  258  15.247  16.162  11.467 -0.2577  0.0147  0.2341
   17loPI    C3  259  15.343  16.210  11.852 -0.0633  0.1397  0.1717
   17loPI   PO4  260  15.675  16.111  11.242 -0.1329 -0.1017  0.1607
   17loPI   GL1  261  15.621  16.171  10.761 -0.0996 -0.2881  0.1547
   17loPI   GL2  262  15.437  15.927  10.710  0.1009 -0.1175 -0.0654
   17loPI   C1A  263  15.550  16.140  10.284  0.0802  0.2738  0.3801
   17loPI   C2A  264  15.424  16.092   9.840  0.1550 -0.2266 -0.3367
   17loPI   C3A  265  15.354  16.163   9.429 -0.4209  0.0274  0.0036
   17loPI   C4A  266  15.587  16.043   9.018 -0.1139  0.2302 -0.0652
   17loPI   C5A  267  15.756  16.096   8.680  0.2476  0.2514  0.0734
   17loPI   C6A  268  15.449  16.307   8.469  0.1889  0.2080  0.1719
   17loPI   C1B  269  15.315  15.642  10.379  0.1363 -0.0936 -0.2621
   17loPI   C2B  270  15.323  15.606   9.950  0.3880 -0.0884  0.1294
   17loPI   C3B  271  15.359  15.583   9.477 -0.2365  0.1100  0.2005
   17loPI   C4B  272  15.346  15.493   9.006 -0.0944 -0.2779  0.1338
   18loPI    C1  273   7.435  10.635  11.725  0.1443 -0.4599  0.1484
   18loPI    C2  274   7.751  10.695  11.963  0.0454 -0.0497  0.1839
   18loPI    C3  275   7.399  10.861  12.054 -0.0635 -0.1191 -0.1015
   18loPI   PO4  276   7.437  10.732  11.520  0.1421 -0.4313 -0.0454
   18loPI   GL1  277   7.552  10.750  11.129  0.0624 -0.0408  0.3265
   18loPI   GL2  278   7.656  10.462  11.126 -0.0037 -0.0547 -0.0562
   18loPI   C1A  279   7.430  10.885  10.732  0.1170  0.1891 -0.2912
   18loPI   C2A  280   7.369  10.949  10.309 -0.0807  0.3303  0.1274
   18loPI   C3A  281   7.423  10.902   9.879 -0.0383  0.2404 -0.1835
   18loPI   C4A  282   7.567  10.961   9.397 -0.0662  0.0569  0.0981
   18loPI   C5A  283   7.955  11.099   9.095 -0.0130  0.0174 -0.1515
   18loPI   C6A  284   8.349  11.094   8.987 -0.3401  0.3376 -0.1531
   18loPI   C1B  285   7.754  10.553  10.651 -0.0241 -0.2785 -0.1537
   18loPI   C2B  286   7.752  10.582  10.169  0.0148 -0.1267 -0.0031
   18loPI   C3B  287   7.756  10.566   9.692  0.2508  0.0219  0.2000
   18loPI   C4B  288   7.651  10.520   9.292  0.1221  0.1508 -0.0258
   19loPI    C1  289   4.283  10.392  11.725  0.1702  0.1096  0.0443
   19loPI    C2  290   4.387  10.757  11.852  0.2253  0.1181 -0.0245
   19loPI    C3  291   4.380  10.451  12.109  0.3399  0.1342 -0.0013
   19loPI   PO4  292   4.129  10.365  11.564  0.0305  0.1228 -0.0930
   19loPI   GL1  293   3.895  10.447  11.160  0.0168 -0.2716 -0.1999
   19loPI   GL2  294   3.762  10.187  11.073 -0.0800  0.0173 -0.0014
   19loPI   C1A  295   4.022  10.628  10.801 -0.1454 -0.3115 -0.0155
   19loPI   C2A  296   4.045  10.629  10.351  0.3928  0.1854  0.3520
   19loPI   C3A  297   3.895  10.563   9.891 -0.2397 -0.0257  0.0534
   19loPI   C4A  298   3.888  10.559   9.458 -0.1109  0.1083 -0.4001
   19loPI   C5A  299   3.826  10.520   9.029  0.3742  0.2081 -0.1036
   19loPI   C6A  300   3.614  10.475   8.669 -0.4413  0.0361  0.0071
   19loPI   C1B  301   3.833  10.112  10.647 -0.1912 -0.1758 -0.0562
   19loPI   C2B  302   3.814  10.104  10.177 -0.1544  0.1062 -0.0354
   19loPI   C3B  303   3.752  10.017   9.789  0.0410  0.0606 -0.1093
   19loPI   C4B  304   3.809  10.032   9.314  0.1222 -0.4999  0.0578
   20loPI    C1  305   1.154   1.464  12.078  0.1451 -0.1887  0.0614
   20loPI    C2  306   0.835   1.269  12.219  0.1996 -0.2480  0.1028
   20loPI    C3  307   0.819   1.665  12.167  0.0184 -0.2894 -0.1784
   20loPI   PO4  308   1.224   1.414  11.842 -0.1293 -0.1090  0.0749
   20loPI   GL1  309   1.198   1.344  11.365 -0.2365 -0.2483  0.2353
   20loPI   GL2  310   1.025   1.659  11.341  0.0822 -0.0219 -0.0539
   20loPI   C1A  311   1.176   1.112  11.058 -0.0505  0.1780 -0.0279
   20loPI   C2A  312   1.169   1.060  10.637  0.2316  0.1630  0.3086
   20loPI   C3A  313   1.145   1.036  10.183 -0.1364 -0.2442 -0.0457
   20loPI   C4A  314   1.168   0.956   9.748 -0.0588 -0.0555 -0.0475
   20loPI   C5A  315   1.068   0.975   9.367  0.0514  0.3270  0.1711
   20loPI   C6A  316   0.799   1.274   9.122 -0.0533  0.2133 -0.2156
   20loPI   C1B  317   0.819   1.432  10.954 -0.1803  0.0215 -0.2409
   20loPI   C2B  318   0.773   1.361  10.512 -0.1697  0.0034 -0.1271
   20loPI   C3B  319   0.800   1.372  10.098  0.1929 -0.1080 -0.0931
   20loPI   C4B  320   0.743   1.280   9.628  0.0802  0.3731  0.2994
   21loPI    C1  321   5.457   6.661  11.785  0.1351  0.0627  0.0295
   21loPI    C2  322   5.330   7.040  11.782 -0.1039 -0.0167 -0.1190
   21loPI    C3  323   5.382   6.850  12.129  0.0598  0.1649 -0.0422
   21loPI   PO4  324   5.648   6.663  11.555 -0.2047  0.0982  0.0001
   21loPI   GL1  325   5.600   6.746  11.116  0.1479  0.0254 -0.0150
   21loPI   GL2  326   5.782   6.879  11.000 -0.4091 -0.0425  0.2544
   21loPI   C1A  327   5.262   6.704  10.858  0.1139 -0.2280 -0.0748
   21loPI   C2A  328   5.245   6.559  10.453 -0.0562 -0.3646 -0.0660
   21loPI   C3A  329   5.188   6.519  10.061  0.2444 -0.0237  0.1304
   21loPI   C4A  330   5.176   6.655   9.702  0.2854 -0.0130  0.1557
   21loPI   C5A  331   5.231   6.554   9.237 -0.0021 -0.2261  0.1439
   21loPI   C6A  332   5.297   6.492   8.802  0.0501  0.1054  0.0867
   21loPI   C1B  333   5.748   6.691  10.616 -0.0038  0.2340  0.0084
   21loPI   C2B  334   5.653   6.706  10.183 -0.4391  0.1142 -0.2895
   21loPI   C3B  335   5.782   6.767   9.770  0.1477 -0.0825  0.2553
   21loPI   C4B  336   5.695   6.707   9.371  0.0420 -0.0334  0.1073
   22loPI    C1  337  15.097  12.320  12.106 -0.1901  0.0563  0.1162
   22loPI    C2  338  15.392  12.585  12.161 -0.0009 -0.1592  0.1567
   22loPI    C3  339  15.048  12.624  12.361  0.0557  0.0093  0.2232
   22loPI   PO4  340  15.028  12.356  11.788  0.0998 -0.1770 -0.1725
   22loPI   GL1  341  14.949  12.083  11.389 -0.0689 -0.2433 -0.3545
   22loPI   GL2  342  14.831  12.323  11.306 -0.0125  0.0750  0.3241
   22loPI   C1A  343  15.136  11.941  11.087 -0.1078  0.0594  0.1390
   22loPI   C2A  344  15.176  11.902  10.662 -0.0253 -0.5330  0.1001
   22loPI   C3A  345  15.128  11.927  10.221  0.2338 -0.2680 -0.0692
   22loPI   C4A  346  15.084  11.978   9.898  0.0470  0.1564 -0.1469
   22loPI   C5A  347  15.120  11.943   9.469  0.1315 -0.3202  0.0507
   22loPI   C6A  348  15.215  12.015   8.994 -0.0010 -0.0083 -0.0925
   22loPI   C1B  349  14.787  12.369  10.869  0.0978 -0.0583 -0.0833
   22loPI   C2B  350  14.825  12.291  10.499 -0.6007 -0.2128  0.1950
   22loPI   C3B  351  14.717  12.352  10.061 -0.0713 -0.0549  0.2138
   22loPI   C4B  352  14.778  12.302   9.664  0.2160 -0.0985 -0.2446
   23loPI    C1  353   2.574   7.092  11.639 -0.4870  0.1377  0.0309
   23loPI    C2  354   2.304   7.179  11.920 -0.2739  0.1968  0.2205
   23loPI    C3  355   2.693   7.240  11.991 -0.1969 -0.0282  0.0067
   23loPI   PO4  356   2.541   7.227  11.407 -0.1141  0.1554 -0.1660
   23loPI   GL1  357   2.752   7.178  10.971 -0.4154  0.1931  0.0159
   23loPI   GL2  358   3.011   7.053  10.761  0.0728  0.0135 -0.2969
   23loPI   C1A  359   2.623   7.334  10.545  0.1331  0.0707 -0.0527
   23loPI   C2A  360   2.618   7.363  10.068 -0.2344 -0.1471  0.1605
   23loPI   C3A  361   2.553   7.364   9.723  0.2624  0.3600 -0.0492
   23loPI   C4A  362   2.583   7.402   9.261 -0.0337 -0.0103  0.2549
   23loPI   C5A  363   2.599   7.870   9.118  0.0347  0.0163  0.0370
   23loPI   C6A  364   2.488   8.084   8.827 -0.0224  0.0046  0.2201
   23loPI   C1B  365   2.961   6.985  10.343 -0.1295 -0.0490  0.3374
   23loPI   C2B  366   2.981   7.032   9.955 -0.3392 -0.0261 -0.2629
   23loPI   C3B  367   2.986   6.913   9.483  0.1407  0.2641 -0.1592
   23loPI   C4B  368   2.805   7.051   9.055 -0.1265 -0.3018  0.1417
   24loPI    C1  369   4.101   0.686  11.862  0.0859  0.1107 -0.2746
   24loPI    C2  370   4.318   0.575  12.179  0.1415 -0.0283 -0.3604
   24loPI    C3  371   4.067   0.885  12.207  0.0516 -0.1190 -0.1439
   24loPI   PO4  372   3.965   0.486  11.737  0.0817  0.1169 -0.2267
   24loPI   GL1  373   4.028   0.319  11.457  0.0366  0.0927  0.0823
   24loPI   GL2  374   4.250   0.209  11.311  0.1688  0.0557  0.3008
   24loPI   C1A  375   3.743   0.233  11.070 -0.1641 -0.2912 -0.0786
   24loPI   C2A  376   3.784   0.080  10.617 -0.2767  0.2134  0.0334
   24loPI   C3A  377   3.815   0.135  10.263  0.1017  0.2211 -0.1773
   24loPI   C4A  378   3.674   0.125   9.843 -0.2050 -0.1960 -0.3257
   24loPI   C5A  379   3.653   0.174   9.386  0.1950  0.1111 -0.0192
   24loPI   C6A  380   3.939   0.289   9.115 -0.1749  0.1120 -0.0674
   24loPI   C1B  381   4.348   0.340  10.936  0.0391  0.2214  0.1470
   24loPI   C2B  382   4.317   0.220  10.469 -0.2673  0.2413  0.0344
   24loPI   C3B  383   4.219   0.228  10.021  0.1209  0.0293 -0.1113
   24loPI   C4B  384   4.143   0.302   9.628 -0.2373  0.0156 -0.0251
   25loPI    C1  385  15.745  16.588  11.763  0.2286  0.3787 -0.0152
   25loPI    C2  386  15.949  16.282  11.919 -0.2108  0.1096  0.0500
   25loPI    C3  387  16.005  16.653  12.059 -0.0171 -0.0091  0.2946
   25loPI   PO4  388  15.774  16.547  11.534 -0.4229  0.0066  0.1076
   25loPI   GL1  389  15.944  16.599  11.225 -0.0370 -0.2324 -0.0915
   25loPI   GL2  390  16.130  16.372  10.990 -0.1721 -0.1930  0.0912
   25loPI   C1A  391  15.763  16.653  10.765  0.3738 -0.1055  0.1903
   25loPI   C2A  392  15.690  16.635  10.276  0.1430 -0.3422 -0.2224
   25loPI   C3A  393  15.602  16.616   9.784 -0.0265 -0.1228 -0.1780
   25loPI   C4A  394  15.556  16.591   9.533 -0.1186  0.2315 -0.0598
   25loPI   C5A  395  15.538  16.661   9.086  0.0554  0.0087  0.1156
   25loPI   C6A  396  15.727  16.605   8.703  0.0397  0.2013  0.2098
   25loPI   C1B  397  16.095  16.296  10.477  0.1562  0.3817 -0.1615
   25loPI   C2B  398  16.001  16.249   9.992  0.0731  0.2527 -0.1237
   25loPI   C3B  399  15.961  16.307   9.524 -0.0406  0.2371  0.2665
   25loPI   C4B  400  15.991  16.305   9.138 -0.0305  0.2629  0.3217
   26loPI    C1  401  13.373   4.474  11.680 -0.0505 -0.1148 -0.0232
   26loPI    C2  402  13.667   4.379  11.934  0.1909  0.0487 -0.2371
   26loPI    C3  403  13.300   4.455  12.073  0.2932  0.0275  0.0507
   26loPI   PO4  404  13.568   4.493  11.463  0.1086 -0.2078  0.2536
   26loPI   GL1  405  13.648   4.239  11.068  0.2427  0.2825 -0.2721
   26loPI   GL2  406  13.912   3.986  11.018 -0.0235  0.2297  0.1987
   26loPI   C1A  407  13.449   4.251  10.685 -0.0625 -0.0808 -0.0879
   26loPI   C2A  408  13.362   4.269  10.215 -0.0677  0.1339  0.0016
   26loPI   C3A  409  13.395   4.259   9.733 -0.2055 -0.1726 -0.1906
   26loPI   C4A  410  13.281   4.302   9.278 -0.2457  0.0166  0.1418
   26loPI   C5A  411  13.230   4.218   8.922  0.0036  0.0823 -0.0308
   26loPI   C6A  412  13.252   4.150   8.508  0.0419  0.0254 -0.3084
   26loPI   C1B  413  13.844   3.922  10.630  0.1605 -0.2526 -0.0106
   26loPI   C2B  414  13.722   3.902  10.255 -0.2022 -0.0598  0.2291
   26loPI   C3B  415  13.823   4.010   9.917 -0.0442  0.0280  0.1271
   26loPI   C4B  416  13.720   3.910   9.496 -0.0265  0.0467  0.0840
   27loPI    C1  417   4.871   8.225  11.909 -0.2033 -0.0609  0.2119
   27loPI    C2  418   5.069   8.572  11.934 -0.0674 -0.1168 -0.0568
   27loPI    C3  419   5.151   8.276  12.190 -0.0517 -0.0173  0.0541
   27loPI   PO4  420   4.903   8.236  11.637  0.1102  0.1067  0.2893
   27loPI   GL1  421   4.701   8.158  11.261  0.0217  0.3674 -0.0376
   27loPI   GL2  422   4.698   8.417  11.183 -0.1151  0.0415 -0.0911
   27loPI   C1A  423   4.558   7.993  10.908 -0.1516 -0.1670  0.0329
   27loPI   C2A  424   4.664   7.853  10.535 -0.1563  0.0755  0.0369
   27loPI   C3A  425   4.632   7.848  10.135 -0.0705 -0.1960  0.2402
   27loPI   C4A  426   4.538   7.970   9.733 -0.1618 -0.1419 -0.1396
   27loPI   C5A  427   4.494   8.086   9.367 -0.0562 -0.1268 -0.0405
   27loPI   C6A  428   4.509   8.063   8.874  0.1551  0.0964  0.1804
   27loPI   C1B  429   4.805   8.475  10.776 -0.0787 -0.0862 -0.2302
   27loPI   C2B  430   4.820   8.448  10.412  0.0181 -0.1292  0.2187
   27loPI   C3B  431   4.675   8.521  10.002 -0.3777  0.0761  0.2668
   27loPI   C4B  432   4.656   8.500   9.530 -0.0756 -0.2801 -0.1856
   28loPI    C1  433   9.761   0.091  11.743  0.0054 -0.1020 -0.2196
   28loPI    C2  434   9.480   0.338  11.883 -0.0831 -0.2059 -0.2121
   28loPI    C3  435   9.442  -0.056  11.934  0.1105 -0.2150 -0.1294
   28loPI   PO4  436   9.825   0.114  11.560 -0.0624 -0.1385  0.0173
   28loPI   GL1  437   9.845   0.147  11.092 -0.0312 -0.1406  0.0198
   28loPI   GL2  438   9.630   0.235  10.935 -0.1868  0.1318 -0.0708
   28loPI   C1A  439  10.012  -0.134  10.779 -0.4404 -0.1118  0.0891
   28loPI   C2A  440  10.062  -0.250  10.314  0.2632  0.2316 -0.2374
   28loPI   C3A  441  10.089  -0.259   9.861  0.1983  0.1598 -0.1161
   28loPI   C4A  442  10.222  -0.216   9.588 -0.0071 -0.0000  0.0156
   28loPI   C5A  443  10.242  -0.187   9.172  0.3702 -0.1894  0.1887
   28loPI   C6A  444  10.195  -0.655   9.004  0.0565  0.2590  0.0294
   28loPI   C1B  445   9.867   0.272  10.519 -0.0712  0.5705  0.0499
   28loPI   C2B  446   9.851   0.144  10.178 -0.0598 -0.2069  0.2728
   28loPI   C3B  447   9.760   0.123   9.757 -0.2121 -0.1003  0.0495
   28loPI   C4B  448   9.851   0.076   9.334  0.3465 -0.1766  0.3945
   29loPI    C1  449   2.625   2.838  11.666 -0.0206  0.1361  0.0725
   29loPI    C2  450   2.370   2.585  11.841  0.0236  0.1072  0.0954
   29loPI    C3  451   2.566   2.855  12.062  0.2054 -0.0392  0.1166
   29loPI   PO4  452   2.623   2.764  11.405  0.2568  0.2129 -0.0610
   29loPI   GL1  453   2.806   2.857  11.026  0.0147  0.4758  0.1499
   29loPI   GL2  454   3.154   2.814  10.899  0.3100  0.0794 -0.1856
   29loPI   C1A  455   2.703   2.836  10.594  0.0087  0.2129 -0.1835
   29loPI   C2A  456   2.684   2.836  10.202 -0.0868 -0.0611  0.1684
   29loPI   C3A  457   2.482   2.871   9.827 -0.1277  0.0317 -0.0494
   29loPI   C4A  458   2.503   2.639   9.411 -0.2936 -0.0845  0.0072
   29loPI   C5A  459   2.349   2.547   8.990 -0.2381 -0.1682  0.0629
   29loPI   C6A  460   1.875   2.617   8.909 -0.0217  0.0780 -0.1399
   29loPI   C1B  461   3.195   2.909  10.527  0.1313 -0.4832 -0.2394
   29loPI   C2B  462   3.201   2.900  10.104  0.0733 -0.1632  0.0264
   29loPI   C3B  463   3.138   2.818   9.670  0.0685  0.2489  0.1335
   29loPI   C4B  464   3.141   2.845   9.229  0.0194  0.0947  0.1927
   30loPI    C1  465   0.085   5.656  11.554 -0.2840 -0.0219 -0.0901
   30loPI    C2  466   0.278   5.595  11.899 -0.0444  0.0315 -0.2128
   30loPI    C3  467  -0.110   5.692  11.902 -0.0073  0.1816  0.0476
   30loPI   PO4  468   0.187   5.831  11.444  0.1133 -0.1658 -0.3496
   30loPI   GL1  469   0.372   5.827  11.095  0.0306  0.0587 -0.0250
   30loPI   GL2  470   0.566   5.544  11.011 -0.2361  0.0289 -0.1819
   30loPI   C1A  471   0.252   6.039  10.676 -0.0482  0.0978  0.2228
   30loPI   C2A  472   0.300   6.024  10.240  0.3057 -0.2471  0.0364
   30loPI   C3A  473   0.343   6.010   9.778  0.0709 -0.3293 -0.0664
   30loPI   C4A  474   0.231   5.834   9.453  0.0544  0.0005 -0.1282
   30loPI   C5A  475   0.221   5.883   9.022  0.1945  0.0862  0.3187
   30loPI   C6A  476   0.540   5.677   8.731  0.1820 -0.0914  0.0246
   30loPI   C1B  477   0.602   5.713  10.606 -0.2911 -0.0058  0.0317
   30loPI   C2B  478   0.606   5.590  10.143  0.1708 -0.0336  0.0249
   30loPI   C3B  479   0.572   5.560   9.711 -0.0825 -0.2625 -0.3450
   30loPI   C4B  480   0.639   5.571   9.287 -0.1217  0.0614  0.1111
   31loPI    C1  481  12.833  13.314  11.872 -0.1598  0.1934  0.0169
   31loPI    C2  482  13.097  13.346  12.170 -0.0609  0.0837 -0.0578
   31loPI    C3  483  12.706  13.373  12.247 -0.0458 -0.1489  0.1139
   31loPI   PO4  484  12.992  13.238  11.700  0.1555  0.0621  0.2170
   31loPI   GL1  485  13.048  13.163  11.229 -0.0604 -0.1992 -0.0913
   31loPI   GL2  486  12.836  12.901  11.321 -0.1124  0.1408 -0.1843
   31loPI   C1A  487  13.167  13.321  10.803 -0.2710 -0.1214 -0.1796
   31loPI   C2A  488  13.342  13.212  10.350  0.0027  0.0911  0.0703
   31loPI   C3A  489  13.172  13.222   9.936 -0.0935 -0.4960  0.2088
   31loPI   C4A  490  13.163  13.313   9.551 -0.0107  0.1487  0.1289
   31loPI   C5A  491  13.116  13.288   9.029  0.0330 -0.1929 -0.0647
   31loPI   C6A  492  13.026  13.481   8.626  0.0039 -0.0596  0.1483
   31loPI   C1B  493  13.036  12.797  10.938 -0.0529 -0.2965 -0.0332
   31loPI   C2B  494  13.194  12.749  10.461  0.0207 -0.0941 -0.0330
   31loPI   C3B  495  13.091  12.730   9.979 -0.3891 -0.2309  0.2643
   31loPI   C4B  496  13.057  12.799   9.513  0.0278  0.2099  0.0184
   32loPI    C1  497   3.361   3.541  12.101  0.2045 -0.0674  0.2034
   32loPI    C2  498   3.658   3.414  12.338  0.0389 -0.1333  0.3784
   32loPI    C3  499   3.344   3.606  12.495 -0.0308 -0.0984  0.1998
   32loPI   PO4  500   3.394   3.295  11.807 -0.4423 -0.1443 -0.2634
   32loPI   GL1  501   3.607   3.322  11.407 -0.2180  0.2284  0.3104
   32loPI   GL2  502   3.843   3.552  11.374 -0.1660 -0.0308 -0.0836
   32loPI   C1A  503   3.610   3.041  11.050 -0.0350  0.1005  0.0133
   32loPI   C2A  504   3.708   3.030  10.701 -0.3106 -0.1514  0.1674
   32loPI   C3A  505   3.669   3.014  10.209  0.1668  0.0886 -0.1322
   32loPI   C4A  506   3.741   3.005   9.822 -0.0640  0.0813  0.0829
   32loPI   C5A  507   3.778   3.002   9.369 -0.0463  0.1346  0.2867
   32loPI   C6A  508   3.612   2.756   9.117 -0.0719 -0.1161  0.0343
   32loPI   C1B  509   3.862   3.506  10.924 -0.0881  0.1734  0.0961
   32loPI   C2B  510   3.840   3.475  10.495  0.1537 -0.2073  0.2827
   32loPI   C3B  511   3.892   3.457  10.052  0.5147  0.2247 -0.0079
   32loPI   C4B  512   3.823   3.453   9.649  0.1544 -0.0319 -0.2001
   33loPI    C1  513   4.413   8.042  11.928 -0.0125  0.0066  0.2620
   33loPI    C2  514   4.244   7.684  11.987 -0.3217  0.1134  0.0528
   33loPI    C3  515   4.205   7.971  12.262  0.0182 -0.0423  0.2709
   33loPI   PO4  516   4.297   8.090  11.660 -0.1793 -0.1817  0.1023
   33loPI   GL1  517   4.057   7.891  11.522  0.1607 -0.0698  0.2110
   33loPI   GL2  518   4.227   7.732  11.259 -0.2669  0.0493 -0.1098
   33loPI   C1A  519   3.720   7.700  11.193 -0.2623  0.0929  0.0912
   33loPI   C2A  520   3.681   7.621  10.786 -0.0876  0.0091  0.2110
   33loPI   C3A  521   3.597   7.596  10.404 -0.2117  0.1126  0.0710
   33loPI   C4A  522   3.566   7.642   9.932 -0.2114  0.0762  0.3360
   33loPI   C5A  523   3.548   7.701   9.521  0.2039  0.1481  0.0953
   33loPI   C6A  524   3.325   7.537   9.040  0.1691  0.1019  0.0304
   33loPI   C1B  525   4.184   7.747  10.806  0.2226  0.0853 -0.0098
   33loPI   C2B  526   4.197   7.790  10.408  0.0515  0.0167  0.1378
   33loPI   C3B  527   4.139   7.720   9.977  0.0708 -0.1172 -0.0754
   33loPI   C4B  528   4.024   7.775   9.597 -0.3247  0.1162  0.0728
   34loPI    C1  529  11.658  10.663  11.874 -0.0743  0.0151  0.0323
   34loPI    C2  530  11.658  10.406  12.181  0.1166 -0.0576 -0.0274
   34loPI    C3  531  11.866  10.746  12.205  0.0242 -0.0007 -0.0256
   34loPI   PO4  532  11.802  10.462  11.628  0.1305  0.0179  0.1047
   34loPI   GL1  533  11.970  10.411  11.194 -0.0238 -0.3235  0.0434
   34loPI   GL2  534  11.681  10.521  11.161 -0.2866 -0.0116 -0.1313
   34loPI   C1A  535  11.860  10.290  10.781 -0.0998  0.0704 -0.1211
   34loPI   C2A  536  11.914  10.220  10.420  0.6023  0.0028  0.0165
   34loPI   C3A  537  11.856  10.216   9.894 -0.2134  0.0090 -0.0007
   34loPI   C4A  538  11.777  10.205   9.451 -0.2196  0.1301  0.1942
   34loPI   C5A  539  11.989  10.326   9.002  0.0415 -0.0674 -0.0394
   34loPI   C6A  540  12.041  10.281   8.531 -0.0276 -0.0033 -0.0175
   34loPI   C1B  541  11.944  10.776  10.896 -0.0274 -0.0972  0.1074
   34loPI   C2B  542  11.973  10.802  10.470  0.1148  0.0409 -0.2606
   34loPI   C3B  543  12.029  10.639  10.096 -0.1276 -0.2789  0.4123
   34loPI   C4B  544  11.908  10.688   9.696 -0.3111  0.1411  0.1555
   35loPI    C1  545   8.857   0.122  11.877 -0.1852 -0.3652  0.0781
   35loPI    C2  546   9.003   0.397  12.129 -0.1573 -0.2413 -0.0713
   35loPI    C3  547   8.947   0.020  12.253  0.1375 -0.2525  0.0338
   35loPI   PO4  548   9.030   0.156  11.655 -0.1134 -0.0028  0.2017
   35loPI   GL1  549   8.978   0.137  11.211 -0.1964  0.0471 -0.4747
   35loPI   GL2  550   9.178   0.085  11.003 -0.0591  0.1818 -0.0232
   35loPI   C1A  551   8.810  -0.068  10.757 -0.3120 -0.1389  0.1594
   35loPI   C2A  552   8.751  -0.150  10.392  0.0791  0.0603  0.2201
   35loPI   C3A  553   8.877  -0.147   9.935 -0.2543  0.2380 -0.2150
   35loPI   C4A  554   8.790  -0.087   9.491 -0.2284  0.0741 -0.0526
   35loPI   C5A  555   8.728   0.095   9.146 -0.0310  0.0580 -0.0378
   35loPI   C6A  556   8.384   0.149   8.818 -0.2771 -0.2829  0.1554
   35loPI   C1B  557   9.249   0.108  10.597 -0.2315  0.1544  0.1864
   35loPI   C2B  558   9.323   0.120  10.215  0.2183 -0.0124 -0.2296
   35loPI   C3B  559   9.265   0.049   9.732 -0.0687 -0.0376 -0.3188
   35loPI   C4B  560   9.379  -0.042   9.393 -0.1269 -0.0734 -0.2766
   36loPI    C1  561  10.256  15.790  11.694  0.3563  0.0433 -0.0519
   36loPI    C2  562  10.154  16.100  11.463  0.2684 -0.0121 -0.0878
   36loPI    C3  563  10.175  16.145  11.860  0.0008 -0.0260 -0.0703
   36loPI   PO4  564  10.060  15.614  11.560 -0.0185  0.2067 -0.0264
   36loPI   GL1  565   9.915  15.705  11.169  0.1831  0.0169 -0.3116
   36loPI   GL2  566  10.195  15.537  11.059 -0.0160 -0.2088 -0.0634
   36loPI   C1A  567   9.761  15.733  10.807 -0.0607  0.0888  0.1870
   36loPI   C2A  568   9.634  15.674  10.384 -0.5437  0.0793  0.0112
   36loPI   C3A  569   9.688  15.591   9.947 -0.4680 -0.1788 -0.0457
   36loPI   C4A  570   9.653  15.637   9.500  0.1270 -0.2178  0.2827
   36loPI   C5A  571   9.757  15.767   9.171  0.2639  0.0530 -0.1273
   36loPI   C6A  572   9.918  15.638   8.774  0.4065  0.3187 -0.0295
   36loPI   C1B  573  10.059  15.340  10.751 -0.2698  0.0837  0.0500
   36loPI   C2B  574  10.087  15.230  10.270 -0.1285  0.0167 -0.0343
   36loPI   C3B  575  10.021  15.247   9.875 -0.1709  0.2103  0.2335
   36loPI   C4B  576  10.052  15.265   9.443 -0.2445  0.4063 -0.2212
   37loPI    C1  577  14.329  10.463  11.778 -0.0474 -0.0817 -0.2402
   37loPI    C2  578  14.706  10.519  11.897 -0.1703  0.1220  0.0656
   37loPI    C3  579  14.521  10.172  11.974 -0.0337  0.0049 -0.1245
   37loPI   PO4  580  14.316  10.585  11.535  0.4476 -0.0759  0.0741
   37loPI   GL1  581  14.376  10.885  11.157 -0.1101 -0.0174  0.0099
   37loPI   GL2  582  14.208  11.123  11.120 -0.0842  0.1889 -0.0031
   37loPI   C1A  583  14.344  10.862  10.755 -0.3138 -0.0237  0.1344
   37loPI   C2A  584  14.358  10.858  10.310 -0.0726  0.2531 -0.3890
   37loPI   C3A  585  14.431  10.837  10.016  0.1488 -0.0727 -0.2760
   37loPI   C4A  586  14.305  10.912   9.601  0.0168  0.1820 -0.1277
   37loPI   C5A  587  14.308  10.875   9.264 -0.0578  0.1046 -0.0326
   37loPI   C6A  588  14.161  11.084   8.975 -0.0691  0.3364  0.1890
   37loPI   C1B  589  13.997  11.252  10.778  0.1651  0.0114  0.2229
   37loPI   C2B  590  14.009  11.235  10.375  0.1360 -0.3973  0.0906
   37loPI   C3B  591  13.950  11.171   9.910  0.0632  0.1814 -0.0784
   37loPI   C4B  592  13.912  11.172   9.356  0.0968  0.2612  0.1853
   38loPI    C1  593   8.660   8.280  11.873  0.2351 -0.1898  0.0652
   38loPI    C2  594   8.785   8.582  12.102 -0.0091  0.0191 -0.0716
   38loPI    C3  595   8.612   8.262  12.269  0.1638 -0.0041  0.0657
   38loPI   PO4  596   8.614   8.365  11.693  0.0965  0.3833 -0.1650
   38loPI   GL1  597   8.724   8.534  11.321  0.3056  0.1176 -0.0110
   38loPI   GL2  598   8.971   8.620  11.147  0.1857 -0.1028  0.2370
   38loPI   C1A  599   8.596   8.443  10.848  0.0572  0.2159  0.0922
   38loPI   C2A  600   8.473   8.494  10.416  0.0154  0.1735 -0.1311
   38loPI   C3A  601   8.400   8.547  10.032 -0.2772 -0.1163 -0.3338
   38loPI   C4A  602   8.304   8.484   9.650 -0.0474  0.1250 -0.1541
   38loPI   C5A  603   8.294   8.457   9.290  0.1972  0.1355 -0.0511
   38loPI   C6A  604   8.304   8.296   8.866 -0.3121 -0.0544  0.0630
   38loPI   C1B  605   9.037   8.581  10.747 -0.1095  0.0492 -0.1592
   38loPI   C2B  606   8.991   8.543  10.342  0.1139  0.0431  0.3001
   38loPI   C3B  607   8.938   8.564   9.948 -0.0241 -0.0702  0.0536
   38loPI   C4B  608   8.792   8.568   9.518 -0.3779 -0.0493  0.0872
   39loPI    C1  609   2.282  14.246  11.627  0.0637 -0.1137  0.0210
   39loPI    C2  610   2.376  14.303  12.012  0.0243 -0.0071  0.0153
   39loPI    C3  611   2.647  14.150  11.760  0.0853  0.0230  0.0624
   39loPI   PO4  612   2.217  14.448  11.506  0.0014  0.0947 -0.1010
   39loPI   GL1  613   1.948  14.501  11.137 -0.2743  0.2293  0.2585
   39loPI   GL2  614   2.149  14.175  11.087 -0.1694  0.1679  0.1077
   39loPI   C1A  615   1.965  14.814  10.797 -0.0351  0.2404  0.2121
   39loPI   C2A  616   1.976  14.705  10.357 -0.0544 -0.0584  0.0036
   39loPI   C3A  617   1.859  14.790   9.965  0.2909 -0.0037  0.2404
   39loPI   C4A  618   1.921  14.832   9.476 -0.1675 -0.1968 -0.0162
   39loPI   C5A  619   1.566  14.855   9.182 -0.0373  0.1749  0.1709
   39loPI   C6A  620   1.563  15.039   8.721 -0.3265  0.1670  0.3868
   39loPI   C1B  621   2.144  13.949  10.704 -0.1146 -0.2889 -0.1277
   39loPI   C2B  622   2.191  13.791  10.261 -0.1101  0.1130 -0.0370
   39loPI   C3B  623   2.122  13.845   9.900 -0.2500  0.0284  0.0078
   39loPI   C4B  624   2.120  13.948   9.483  0.2789 -0.1579  0.0391
   40loPI    C1  625  16.251   7.002  11.897 -0.0710 -0.2488 -0.0728
   40loPI    C2  626  16.497   6.759  12.098  0.0383  0.0156  0.1188
   40loPI    C3  627  16.228   6.979  12.295 -0.1018  0.0055 -0.0584
   40loPI   PO4  628  16.399   6.957  11.625 -0.0149 -0.2651  0.2861
   40loPI   GL1  629  16.367   6.964  11.185 -0.5009  0.0279  0.2697
   40loPI   GL2  630  16.040   7.151  11.175 -0.0542  0.1478  0.0300
   40loPI   C1A  631  16.494   7.154  10.909  0.0454  0.3214  0.1631
   40loPI   C2A  632  16.568   7.194  10.575 -0.1075  0.0459  0.0338
   40loPI   C3A  633  16.563   7.137  10.170  0.0089 -0.1798 -0.3552
   40loPI   C4A  634  16.656   7.075   9.782 -0.1432 -0.3805  0.0312
   40loPI   C5A  635  16.502   6.985   9.349  0.0552 -0.0749  0.4089
   40loPI   C6A  636  16.184   6.830   8.934 -0.2020  0.1723  0.3102
   40loPI   C1B  637  16.046   6.980  10.767 -0.3724 -0.1221 -0.1756
   40loPI   C2B  638  16.078   7.102  10.358  0.1865  0.3220  0.1646
   40loPI   C3B  639  16.036   7.023   9.924 -0.0018  0.1263 -0.1352
   40loPI   C4B  640  16.071   7.032   9.534 -0.1024 -0.0836 -0.0502
   41loPI    C1  641   6.311   8.559  11.461  0.0487  0.0679 -0.1806
   41loPI    C2  642   6.017   8.313  11.577 -0.0788  0.2879 -0.0303
   41loPI    C3  643   6.286   8.444  11.843  0.2587 -0.0441 -0.1989
   41loPI   PO4  644   6.294   8.427  11.206 -0.0516 -0.2344  0.1026
   41loPI   GL1  645   6.330   8.264  10.981 -0.0448 -0.1911 -0.0354
   41loPI   GL2  646   6.591   8.357  10.800 -0.1852 -0.1207  0.1203
   41loPI   C1A  647   6.123   8.380  10.574 -0.0660 -0.1881 -0.0329
   41loPI   C2A  648   6.025   8.233  10.157 -0.0286 -0.3072  0.0534
   41loPI   C3A  649   6.040   8.323   9.725 -0.1235  0.0401  0.1350
   41loPI   C4A  650   6.052   8.306   9.219 -0.2053  0.0154 -0.2375
   41loPI   C5A  651   6.037   8.549   8.888 -0.3390 -0.0031  0.0563
   41loPI   C6A  652   5.684   8.795   8.559  0.0174 -0.3574  0.0656
   41loPI   C1B  653   6.554   8.444  10.343  0.2874 -0.1496  0.1587
   41loPI   C2B  654   6.568   8.462   9.874 -0.0120 -0.0194  0.0433
   41loPI   C3B  655   6.533   8.469   9.417  0.1944  0.0045 -0.0139
   41loPI   C4B  656   6.511   8.313   8.949 -0.0530 -0.0638  0.1667
   42loPI    C1  657  11.968   6.420  11.752  0.1527 -0.0815 -0.1470
   42loPI    C2  658  12.124   6.089  11.913 -0.0608 -0.0516  0.1289
   42loPI    C3  659  12.318   6.437  11.945 -0.0134 -0.0808  0.1603
   42loPI   PO4  660  11.913   6.326  11.497 -0.4159 -0.0634  0.1038
   42loPI   GL1  661  11.937   5.884  11.128 -0.1610 -0.0319  0.2737
   42loPI   GL2  662  11.928   6.217  11.025 -0.2816 -0.2241 -0.2654
   42loPI   C1A  663  11.826   5.719  10.709  0.0229  0.1215  0.1963
   42loPI   C2A  664  11.858   5.713  10.190 -0.1215 -0.0058  0.0183
   42loPI   C3A  665  11.950   5.652   9.712  0.1676 -0.2868  0.1195
   42loPI   C4A  666  11.975   5.430   9.369 -0.0184  0.0832 -0.0429
   42loPI   C5A  667  12.310   5.153   9.281 -0.1089 -0.3045 -0.2528
   42loPI   C6A  668  12.668   5.099   9.048  0.0353 -0.1431  0.1168
   42loPI   C1B  669  12.017   6.212  10.566 -0.3272 -0.1094  0.1222
   42loPI   C2B  670  12.006   6.162  10.128 -0.0469  0.2426 -0.0155
   42loPI   C3B  671  12.028   6.134   9.588  0.0092 -0.4356 -0.2076
   42loPI   C4B  672  12.059   5.900   9.192 -0.1355 -0.1281  0.0899
   43loPI    C1  673   8.776   8.917  11.717  0.1004  0.0138 -0.2549
   43loPI    C2  674   9.095   8.677  11.678  0.1381  0.0005  0.1033
   43loPI    C3  675   9.091   8.961  11.960 -0.1653  0.0049  0.0979
   43loPI   PO4  676   8.770   9.013  11.423  0.0500  0.1030 -0.0266
   43loPI   GL1  677   8.884   9.141  10.993  0.1777 -0.1886  0.3288
   43loPI   GL2  678   8.801   9.405  10.953  0.2285 -0.3319  0.2048
   43loPI   C1A  679   9.155   9.114  10.655  0.0143 -0.0275  0.0800
   43loPI   C2A  680   9.154   9.042  10.174  0.2290  0.1655  0.1191
   43loPI   C3A  681   9.007   9.072   9.716  0.1204 -0.2478  0.2233
   43loPI   C4A  682   9.001   9.097   9.328  0.2380  0.2710  0.0655
   43loPI   C5A  683   8.811   9.169   8.863 -0.0827 -0.4000  0.2801
   43loPI   C6A  684   8.834   9.362   8.461  0.1234  0.0049 -0.4606
   43loPI   C1B  685   8.820   9.385  10.484 -0.0615 -0.0427  0.0371
   43loPI   C2B  686   8.797   9.473  10.068 -0.1115 -0.0183 -0.1494
   43loPI   C3B  687   8.702   9.460   9.608 -0.2625  0.1240  0.1358
   43loPI   C4B  688   8.628   9.510   9.220 -0.0315  0.1365 -0.0869
   44loPI    C1  689   2.707   8.440  11.804 -0.1884 -0.0315  0.1754
   44loPI    C2  690   3.094   8.343  11.828 -0.1488  0.0684 -0.0346
   44loPI    C3  691   2.847   8.258  12.131 -0.0251 -0.2706 -0.0238
   44loPI   PO4  692   2.694   8.537  11.527 -0.0046  0.0854 -0.0077
   44loPI   GL1  693   2.793   8.338  11.167  0.2369 -0.2083  0.0191
   44loPI   GL2  694   2.517   8.218  11.058  0.0432 -0.0477  0.1118
   44loPI   C1A  695   2.952   8.391  10.826  0.1555  0.2138 -0.1592
   44loPI   C2A  696   2.842   8.437  10.506 -0.3265 -0.1567 -0.0567
   44loPI   C3A  697   2.851   8.380  10.118 -0.2711 -0.1450  0.0772
   44loPI   C4A  698   2.847   8.365   9.654 -0.0387 -0.1583 -0.1245
   44loPI   C5A  699   2.719   8.516   9.194  0.3667 -0.0068 -0.1221
   44loPI   C6A  700   2.659   8.590   8.718 -0.1510 -0.1126 -0.0852
   44loPI   C1B  701   2.393   8.289  10.669  0.1750 -0.1010 -0.2426
   44loPI   C2B  702   2.313   8.314  10.214  0.1397  0.3190  0.1945
   44loPI   C3B  703   2.372   8.172   9.834  0.3581  0.0461  0.0205
   44loPI   C4B  704   2.332   8.213   9.364  0.1215 -0.1087 -0.3041
   45loPI    C1  705  16.247  10.949  11.549 -0.1805 -0.1227  0.1548
   45loPI    C2  706  16.011  11.207  11.744 -0.1155 -0.1671  0.2935
   45loPI    C3  707  16.394  11.164  11.853  0.0302  0.0938 -0.0955
   45loPI   PO4  708  16.124  10.984  11.276  0.2695  0.4322  0.5074
   45loPI   GL1  709  16.339  10.795  10.966 -0.1071  0.4431 -0.1237
   45loPI   GL2  710  16.621  10.881  10.818 -0.0559 -0.2357 -0.0316
   45loPI   C1A  711  16.177  10.764  10.627  0.2399 -0.3462 -0.1326
   45loPI   C2A  712  16.307  10.668  10.253 -0.4381 -0.4274  0.1382
   45loPI   C3A  713  16.285  10.781   9.858  0.1929 -0.1053  0.2366
   45loPI   C4A  714  16.199  10.808   9.453  0.3206 -0.2742  0.4428
   45loPI   C5A  715  16.204  10.872   8.953  0.1466 -0.1179  0.1808
   45loPI   C6A  716  16.102  11.151   8.620 -0.2071  0.1898  0.2619
   45loPI   C1B  717  16.767  10.764  10.408  0.3464  0.0618 -0.0334
   45loPI   C2B  718  16.772  10.796   9.989  0.2273  0.1563  0.0045
   45loPI   C3B  719  16.737  10.879   9.538  0.2422  0.3729 -0.0490
   45loPI   C4B  720  16.690  10.984   9.139 -0.4297  0.2614 -0.3250
   46loPI    C1  721   6.252   9.447  11.495  0.1470 -0.1553  0.0886
   46loPI    C2  722   6.268   9.838  11.575  0.2209 -0.1810  0.2016
   46loPI    C3  723   6.547   9.593  11.721  0.3193 -0.2399 -0.0790
   46loPI   PO4  724   6.087   9.485  11.302 -0.0481 -0.1575 -0.1347
   46loPI   GL1  725   6.102   9.647  10.862 -0.0378 -0.0472  0.2254
   46loPI   GL2  726   6.302   9.897  11.111 -0.2774 -0.0323 -0.1306
   46loPI   C1A  727   6.050   9.710  10.357  0.2416 -0.1908 -0.2249
   46loPI   C2A  728   6.019   9.752  10.017  0.3154  0.1185  0.1986
   46loPI   C3A  729   5.965   9.821   9.519  0.1695  0.0117  0.1832
   46loPI   C4A  730   6.004   9.957   9.033 -0.1018  0.0997  0.2017
   46loPI   C5A  731   6.217   9.610   8.753 -0.1839  0.1573 -0.1912
   46loPI   C6A  732   6.519   9.270   8.732  0.1990 -0.1507  0.1153
   46loPI   C1B  733   6.527   9.757  10.637 -0.1758  0.0632 -0.1122
   46loPI   C2B  734   6.546   9.788  10.160 -0.0081  0.0064  0.0221
   46loPI   C3B  735   6.562   9.800   9.738 -0.1969  0.1280 -0.1303
   46loPI   C4B  736   6.441   9.902   9.313 -0.0872  0.2034  0.3029
   47loPI    C1  737  10.607  16.444  11.412  0.1564  0.0404  0.0008
   47loPI    C2  738  10.653  16.119  11.641  0.3098  0.1182  0.0820
   47loPI    C3  739  10.535  16.464  11.805 -0.4492 -0.0388 -0.0967
   47loPI   PO4  740  10.497  16.416  11.257  0.1882  0.2002  0.0068
   47loPI   GL1  741  10.384  16.090  10.996 -0.0183 -0.0462  0.1768
   47loPI   GL2  742  10.313  16.339  10.790 -0.0412  0.0096 -0.1986
   47loPI   C1A  743  10.212  15.860  10.675  0.3636  0.2526  0.3786
   47loPI   C2A  744  10.187  15.715  10.285  0.0043  0.1517  0.1996
   47loPI   C3A  745  10.246  15.715   9.783  0.1933  0.1693  0.4028
   47loPI   C4A  746  10.239  15.803   9.406  0.0541 -0.0364  0.1013
   47loPI   C5A  747  10.323  15.756   8.962  0.0976 -0.2497 -0.3358
   47loPI   C6A  748  10.438  15.537   8.574 -0.0868 -0.2626 -0.0680
   47loPI   C1B  749  10.290  16.217  10.398  0.0184 -0.0460  0.2302
   47loPI   C2B  750  10.366  16.153  10.000  0.2259 -0.2041 -0.0894
   47loPI   C3B  751  10.519  16.231   9.633  0.1462 -0.1313 -0.1073
   47loPI   C4B  752  10.528  16.235   9.189 -0.0478 -0.0800 -0.1225
   48loPI    C1  753   7.827  16.218  11.468 -0.0796 -0.0624 -0.0155
   48loPI    C2  754   8.079  16.350  11.750  0.0486 -0.0497 -0.1351
   48loPI    C3  755   7.853  16.028  11.819  0.0189  0.0022  0.0129
   48loPI   PO4  756   7.976  16.184  11.257  0.3390  0.1661  0.0646
   48loPI   GL1  757   7.962  15.966  10.943  0.2433 -0.2553  0.2666
   48loPI   GL2  758   8.154  15.799  10.915  0.0355 -0.1321  0.2379
   48loPI   C1A  759   7.955  16.076  10.548  0.2270  0.1652 -0.1732
   48loPI   C2A  760   7.949  16.126  10.137  0.2302 -0.2805 -0.2650
   48loPI   C3A  761   7.931  16.134   9.724 -0.1607  0.0207  0.1276
   48loPI   C4A  762   7.879  16.180   9.292 -0.1063  0.0258 -0.0574
   48loPI   C5A  763   7.819  16.338   8.882  0.1387  0.2508  0.0897
   48loPI   C6A  764   7.684  16.356   8.419 -0.2040  0.1334  0.3625
   48loPI   C1B  765   8.411  15.818  10.585  0.4391  0.2054 -0.1479
   48loPI   C2B  766   8.338  15.858  10.122 -0.0643  0.0587  0.0822
   48loPI   C3B  767   8.355  15.832   9.686  0.3105  0.0875  0.1925
   48loPI   C4B  768   8.282  15.817   9.268 -0.0331 -0.0514 -0.3792
   49loPI    C1  769   8.556  11.742  11.452  0.0270  0.1157 -0.1621
   49loPI    C2  770   8.363  11.914  11.757  0.1231 -0.0768  0.0100
   49loPI    C3  771   8.763  11.894  11.758  0.1253 -0.0531 -0.1432
   49loPI   PO4  772   8.441  11.841  11.241 -0.0643 -0.3490  0.1246
   49loPI   GL1  773   8.409  11.592  10.920  0.1620 -0.1729  0.0282
   49loPI   GL2  774   8.742  11.694  10.901  0.3127 -0.0373  0.2240
   49loPI   C1A  775   8.512  11.277  10.575 -0.0795  0.1552 -0.2769
   49loPI   C2A  776   8.849  11.333  10.372 -0.3622  0.2063 -0.0339
   49loPI   C3A  777   8.889  11.330   9.886  0.0642 -0.0019  0.2150
   49loPI   C4A  778   8.846  11.164   9.489  0.0424  0.3079  0.0218
   49loPI   C5A  779   8.691  10.724   9.302  0.2268  0.1365  0.0403
   49loPI   C6A  780   8.831  10.365   9.099  0.0565  0.2074  0.1021
   49loPI   C1B  781   8.611  11.819  10.541 -0.0487 -0.5874 -0.2448
   49loPI   C2B  782   8.622  11.730  10.165 -0.1404  0.2361 -0.0587
   49loPI   C3B  783   8.464  11.655   9.798 -0.2055  0.1462 -0.2365
   49loPI   C4B  784   8.068  11.642   9.799  0.1230 -0.0052 -0.2564
   50loPI    C1  785   7.978   9.868  12.044  0.0133  0.0447  0.3011
   50loPI    C2  786   8.311   9.695  11.904  0.0663  0.2426  0.1778
   50loPI    C3  787   8.168   9.593  12.264 -0.0448 -0.2382  0.0054
   50loPI   PO4  788   7.784   9.789  11.840 -0.0409  0.0350 -0.0139
   50loPI   GL1  789   7.718   9.756  11.371  0.1720  0.0856  0.1541
   50loPI   GL2  790   7.683   9.503  11.071  0.1067  0.1046  0.2417
   50loPI   C1A  791   7.647   9.956  10.870 -0.2490  0.0685 -0.0450
   50loPI   C2A  792   7.620  10.097  10.478 -0.1249 -0.1480 -0.2423
   50loPI   C3A  793   7.630  10.118   9.993 -0.2481  0.0749 -0.1518
   50loPI   C4A  794   7.530  10.101   9.518  0.2039  0.2776  0.1311
   50loPI   C5A  795   7.304  10.183   9.128  0.1799 -0.0695  0.0646
   50loPI   C6A  796   6.987  10.435   8.751  0.1457  0.0114  0.0503
   50loPI   C1B  797   7.488   9.504  10.665 -0.2597 -0.2669 -0.1010
   50loPI   C2B  798   7.372   9.573  10.175  0.0948 -0.0644 -0.0611
   50loPI   C3B  799   7.323   9.550   9.684  0.4019 -0.2470 -0.3856
   50loPI   C4B  800   7.305   9.487   9.215  0.0866  0.1060 -0.0929
   51loPI    C1  801  16.801  10.449  11.760  0.1058  0.1343  0.1200
   51loPI    C2  802  16.448  10.284  11.852  0.1693 -0.0164  0.0956
   51loPI    C3  803  16.499  10.680  11.887 -0.0030  0.0066  0.0948
   51loPI   PO4  804  16.880  10.392  11.545  0.0772  0.0612  0.2519
   51loPI   GL1  805  16.806  10.488  11.117  0.1213  0.0088 -0.0090
   51loPI   GL2  806  16.606  10.306  11.005  0.0260  0.1513  0.2683
   51loPI   C1A  807  17.043  10.470  10.753 -0.4712  0.0078  0.3015
   51loPI   C2A  808  17.082  10.369  10.380  0.0130  0.4657  0.1125
   51loPI   C3A  809  17.078  10.375   9.925  0.1841 -0.2374  0.0298
   51loPI   C4A  810  17.072  10.510   9.498 -0.0791  0.3229  0.0764
   51loPI   C5A  811  17.088  10.492   9.044  0.1466  0.1499 -0.1142
   51loPI   C6A  812  16.729  10.641   8.764  0.2358 -0.0013  0.0448
   51loPI   C1B  813  16.568  10.332  10.594 -0.3276  0.4139 -0.1299
   51loPI   C2B  814  16.619  10.354  10.128 -0.1477  0.2447 -0.0373
   51loPI   C3B  815  16.591  10.294   9.713  0.3314 -0.0240 -0.1466
   51loPI   C4B  816  16.625  10.331   9.210 -0.0188 -0.3258  0.2563
   52loPI    C1  817  16.658  13.081  11.795 -0.0268 -0.0326 -0.0313
   52loPI    C2  818  16.409  13.074  12.109  0.1273 -0.0833  0.0910
   52loPI    C3  819  16.718  12.820  12.092  0.1657 -0.0274 -0.0645
   52loPI   PO4  820  16.458  13.120  11.619  0.2353 -0.1937  0.2466
   52loPI   GL1  821  16.471  13.214  11.188  0.3082  0.0204  0.0991
   52loPI   GL2  822  16.630  12.985  11.162 -0.0097 -0.0815 -0.0717
   52loPI   C1A  823  16.523  13.150  10.687 -0.1676 -0.1396  0.0740
   52loPI   C2A  824  16.505  13.126  10.189  0.1497 -0.1284  0.1049
   52loPI   C3A  825  16.433  13.073   9.826 -0.0154  0.0689 -0.0624
   52loPI   C4A  826  16.412  13.050   9.454  0.1086  0.0185 -0.0032
   52loPI   C5A  827  16.528  13.147   9.060  0.0505  0.1666  0.1133
   52loPI   C6A  828  16.879  13.266   8.904 -0.1117 -0.4427  0.2181
   52loPI   C1B  829  16.694  12.725  10.811  0.1489 -0.2231 -0.0102
   52loPI   C2B  830  16.846  12.792  10.434 -0.2236  0.1151 -0.3277
   52loPI   C3B  831  16.813  12.744   9.976  0.1499  0.1440 -0.0018
   52loPI   C4B  832  16.773  12.682   9.566 -0.2255  0.0031 -0.0467
   53loPI    C1  833  10.926   6.453  11.848  0.1329  0.1041  0.0154
   53loPI    C2  834  10.777   6.398  12.215 -0.2265  0.1535 -0.1193
   53loPI    C3  835  11.169   6.355  12.150 -0.1419  0.2602  0.2929
   53loPI   PO4  836  10.762   6.369  11.733 -0.0286  0.2224  0.1391
   53loPI   GL1  837  10.683   6.315  11.270  0.2477  0.3938  0.0483
   53loPI   GL2  838  10.800   6.614  11.318 -0.0478  0.0903 -0.1338
   53loPI   C1A  839  10.649   6.296  10.771 -0.1590  0.0282 -0.2355
   53loPI   C2A  840  10.713   6.304  10.278 -0.1946  0.0479 -0.3582
   53loPI   C3A  841  10.742   6.186   9.803  0.1102  0.1041  0.1133
   53loPI   C4A  842  10.736   6.137   9.339 -0.0440 -0.0254  0.1198
   53loPI   C5A  843  10.757   6.402   9.009  0.0501  0.1706  0.2813
   53loPI   C6A  844  10.681   6.576   8.599 -0.0862  0.0101 -0.4188
   53loPI   C1B  845  10.896   6.805  10.911  0.1262 -0.1001 -0.0004
   53loPI   C2B  846  10.817   6.728  10.475 -0.0616 -0.0353 -0.1796
   53loPI   C3B  847  10.797   6.758  10.029  0.2292 -0.2756 -0.1098
   53loPI   C4B  848  10.876   6.692   9.618  0.0968  0.0169 -0.1603
   54loPI    C1  849  13.737   3.063  11.614 -0.1730 -0.1422 -0.1083
   54loPI    C2  850  13.749   3.436  11.758  0.2337 -0.2132  0.0555
   54loPI    C3  851  13.481   3.175  11.900 -0.1583  0.0557 -0.1712
   54loPI   PO4  852  13.719   3.037  11.463 -0.2191 -0.0151 -0.3410
   54loPI   GL1  853  13.835   3.026  11.038  0.2405  0.4717  0.1298
   54loPI   GL2  854  13.577   3.106  10.933  0.1957  0.2548  0.3550
   54loPI   C1A  855  13.939   3.022  10.572 -0.0049  0.1105 -0.1721
   54loPI   C2A  856  13.913   2.984  10.181 -0.0137 -0.2583  0.2940
   54loPI   C3A  857  13.934   3.212   9.702 -0.2135  0.1325 -0.0493
   54loPI   C4A  858  13.979   3.141   9.246 -0.0132  0.0206 -0.2152
   54loPI   C5A  859  13.913   3.184   8.860 -0.1935 -0.2567 -0.1313
   54loPI   C6A  860  14.171   3.336   8.452 -0.3661  0.1236  0.0721
   54loPI   C1B  861  13.410   2.942  10.598  0.3912 -0.1172  0.2492
   54loPI   C2B  862  13.438   2.905  10.251 -0.1546  0.0269 -0.0405
   54loPI   C3B  863  13.347   2.895   9.764  0.4699 -0.3340 -0.2842
   54loPI   C4B  864  13.408   2.936   9.261  0.1915  0.4458 -0.1025
   55loPI    C1  865   5.794   0.099  11.850 -0.1341 -0.2657 -0.1112
   55loPI    C2  866   5.920  -0.271  11.935 -0.3354 -0.2948  0.0683
   55loPI    C3  867   5.567  -0.143  12.074 -0.1998  0.0163  0.1332
   55loPI   PO4  868   5.769   0.161  11.670 -0.3669  0.0405 -0.1921
   55loPI   GL1  869   5.811   0.168  11.192 -0.0151 -0.0362 -0.2246
   55loPI   GL2  870   6.022   0.087  11.014  0.0950 -0.0702 -0.2655
   55loPI   C1A  871   5.552   0.191  10.797 -0.1093  0.0738  0.2529
   55loPI   C2A  872   5.595   0.252  10.404 -0.1542 -0.1424  0.0669
   55loPI   C3A  873   5.571   0.129   9.957 -0.0801 -0.0640  0.1867
   55loPI   C4A  874   5.510   0.126   9.511  0.0088 -0.0971 -0.0982
   55loPI   C5A  875   5.266   0.200   9.163 -0.2143  0.0758 -0.0297
   55loPI   C6A  876   5.286   0.047   8.790 -0.0753 -0.1583 -0.3773
   55loPI   C1B  877   6.087   0.296  10.621 -0.0442  0.1663 -0.0447
   55loPI   C2B  878   6.052   0.326  10.226  0.0727 -0.0259  0.0151
   55loPI   C3B  879   6.079   0.202   9.845 -0.0404  0.0578 -0.2222
   55loPI   C4B  880   5.961   0.225   9.505  0.2618  0.1055  0.0043
   56loPI    C1  881   8.889   6.606  12.023 -0.0682  0.1989 -0.0949
   56loPI    C2  882   8.532   6.434  11.969 -0.0629  0.1424  0.0441
   56loPI    C3  883   8.642   6.556  12.333  0.1884 -0.1311  0.0632
   56loPI   PO4  884   8.974   6.597  11.843  0.1001  0.1199  0.0432
   56loPI   GL1  885   8.856   6.527  11.417  0.1454 -0.0941 -0.1801
   56loPI   GL2  886   9.061   6.770  11.344  0.1037  0.2668 -0.2036
   56loPI   C1A  887   8.521   6.629  11.069 -0.2741 -0.1794  0.0832
   56loPI   C2A  888   8.453   6.622  10.614  0.1901  0.0127  0.0678
   56loPI   C3A  889   8.352   6.603  10.117 -0.0982 -0.0301  0.0036
   56loPI   C4A  890   8.355   6.643   9.712  0.1187  0.0645  0.0333
   56loPI   C5A  891   8.525   6.697   9.303 -0.0583  0.1164  0.1966
   56loPI   C6A  892   8.589   7.004   8.981 -0.2158  0.2362  0.0473
   56loPI   C1B  893   8.986   6.783  10.916 -0.0663  0.1479 -0.0684
   56loPI   C2B  894   8.944   6.792  10.460  0.0660  0.2480 -0.0550
   56loPI   C3B  895   8.900   6.760  10.007  0.2758  0.1403  0.0698
   56loPI   C4B  896   8.919   6.762   9.604 -0.0903  0.1245 -0.0072
   57loPI    C1  897   2.577   3.791  11.590 -0.0242  0.1550 -0.0377
   57loPI    C2  898   2.478   3.435  11.742 -0.0444  0.1050 -0.1665
   57loPI    C3  899   2.293   3.765  11.871 -0.1693  0.0458 -0.1923
   57loPI   PO4  900   2.614   3.779  11.382  0.0652  0.1832  0.0305
   57loPI   GL1  901   2.542   3.927  10.982 -0.0950 -0.1268 -0.2327
   57loPI   GL2  902   2.963   3.939  11.004  0.0149 -0.1276 -0.1446
   57loPI   C1A  903   2.577   4.123  10.655  0.2887  0.0130 -0.1318
   57loPI   C2A  904   2.650   4.138  10.300  0.4739 -0.1229 -0.3173
   57loPI   C3A  905   2.540   4.152   9.927  0.3156 -0.0095 -0.0006
   57loPI   C4A  906   2.505   4.180   9.461 -0.2120  0.0454 -0.0236
   57loPI   C5A  907   2.343   4.384   9.095 -0.0288  0.2513  0.1407
   57loPI   C6A  908   2.032   4.358   8.809  0.0127 -0.0210  0.0619
   57loPI   C1B  909   2.991   3.853  10.622  0.0565  0.0035  0.0260
   57loPI   C2B  910   3.043   3.685  10.252 -0.0033  0.1827 -0.0934
   57loPI   C3B  911   2.913   3.770   9.813  0.1467  0.0477 -0.1105
   57loPI   C4B  912   2.851   3.674   9.472 -0.1436  0.3181 -0.1043
   58loPI    C1  913  15.027   7.700  11.657 -0.1177  0.1518  0.0111
   58loPI    C2  914  14.789   7.834  11.949  0.0720 -0.0736  0.2747
   58loPI    C3  915  14.885   7.446  11.932  0.2180 -0.0286  0.0234
   58loPI   PO4  916  14.983   7.863  11.474  0.1058  0.2456  0.1923
   58loPI   GL1  917  14.727   7.893  11.032  0.2128  0.2511  0.3600
   58loPI   GL2  918  14.829   7.615  11.039 -0.0675  0.2979 -0.0042
   58loPI   C1A  919  14.495   8.113  10.648  0.0491 -0.0261 -0.1620
   58loPI   C2A  920  14.381   8.133  10.232  0.3494 -0.1353 -0.3015
   58loPI   C3A  921  14.492   8.102   9.811 -0.2025  0.2706 -0.2281
   58loPI   C4A  922  14.534   8.147   9.361 -0.0046  0.0590  0.0186
   58loPI   C5A  923  14.436   8.131   8.875  0.0554 -0.0506 -0.3088
   58loPI   C6A  924  14.419   7.770   8.640  0.2640 -0.0257 -0.1296
   58loPI   C1B  925  14.795   7.703  10.543  0.2697  0.1051  0.0634
   58loPI   C2B  926  14.836   7.682  10.068 -0.2019 -0.2232  0.3386
   58loPI   C3B  927  14.834   7.761   9.668  0.2076 -0.0388 -0.0154
   58loPI   C4B  928  14.795   7.726   9.340 -0.0402 -0.0360 -0.1480
   59loPI    C1  929   5.961  11.063  11.746 -0.1471 -0.1853  0.1409
   59loPI    C2  930   5.897  10.733  11.963  0.1014 -0.2441  0.1278
   59loPI    C3  931   6.266  10.820  11.836 -0.0425 -0.2191 -0.2854
   59loPI   PO4  932   5.722  11.044  11.564 -0.2129  0.0917  0.0551
   59loPI   GL1  933   5.715  11.034  11.092 -0.1730  0.1470 -0.2871
   59loPI   GL2  934   5.514  10.840  11.185  0.1414 -0.1137  0.0745
   59loPI   C1A  935   5.554  11.005  10.701 -0.1790  0.0213 -0.2737
   59loPI   C2A  936   5.491  10.910  10.342  0.2543  0.1910  0.0757
   59loPI   C3A  937   5.467  11.023   9.869 -0.1432 -0.2006 -0.2854
   59loPI   C4A  938   5.333  10.857   9.437 -0.0940  0.3042  0.2367
   59loPI   C5A  939   5.340  10.842   9.020 -0.1145 -0.1560  0.1247
   59loPI   C6A  940   5.050  10.552   8.753  0.1016  0.2460  0.1957
   59loPI   C1B  941   5.374  10.555  10.805  0.0448 -0.1346  0.0649
   59loPI   C2B  942   5.364  10.417  10.335 -0.1436  0.2125  0.0964
   59loPI   C3B  943   5.288  10.513   9.818 -0.1453  0.0647 -0.0691
   59loPI   C4B  944   5.129  10.431   9.387  0.2302  0.0001  0.0567
   60loPI    C1  945   2.970  12.932  11.815 -0.1033  0.0432  0.1799
   60loPI    C2  946   2.780  12.631  11.998 -0.0133 -0.0507  0.1199
   60loPI    C3  947   3.069  12.831  12.189  0.0518 -0.1214  0.0957
   60loPI   PO4  948   2.915  12.826  11.495  0.0656  0.1603  0.3194
   60loPI   GL1  949   3.206  12.655  11.213 -0.3718  0.0072  0.2170
   60loPI   GL2  950   2.835  12.687  11.054  0.1890  0.3758  0.2507
   60loPI   C1A  951   3.304  12.738  10.867 -0.0130 -0.0051 -0.2063
   60loPI   C2A  952   3.315  12.774  10.484 -0.0226 -0.0298 -0.3218
   60loPI   C3A  953   3.355  12.787  10.021  0.0394  0.2141 -0.0408
   60loPI   C4A  954   3.255  12.693   9.619 -0.1514  0.1799 -0.2273
   60loPI   C5A  955   3.186  12.771   9.151  0.1720 -0.1448 -0.0370
   60loPI   C6A  956   3.012  12.569   8.693  0.0103 -0.3125 -0.1119
   60loPI   C1B  957   2.736  12.597  10.586 -0.1114 -0.2165  0.1038
   60loPI   C2B  958   2.711  12.472  10.150 -0.0956  0.0778 -0.1290
   60loPI   C3B  959   2.737  12.581   9.739  0.3434  0.0866  0.1881
   60loPI   C4B  960   2.679  12.611   9.249 -0.0097  0.1755 -0.2619
   61loPI    C1  961  14.480  14.860  11.550 -0.0366  0.2104 -0.1408
   61loPI    C2  962  14.687  15.076  11.815 -0.3203  0.3522 -0.0309
   61loPI    C3  963  14.339  14.910  11.921 -0.0216 -0.3227 -0.0543
   61loPI   PO4  964  14.730  14.696  11.340 -0.1678  0.2979  0.0959
   61loPI   GL1  965  14.710  14.729  10.883  0.0443  0.0800 -0.0992
   61loPI   GL2  966  14.685  15.092  10.776 -0.3451 -0.2520 -0.2209
   61loPI   C1A  967  14.562  14.551  10.435 -0.2179  0.0094 -0.0003
   61loPI   C2A  968  14.552  14.551  10.028 -0.1790  0.3453 -0.1878
   61loPI   C3A  969  14.476  14.574   9.629  0.0934  0.1071  0.3308
   61loPI   C4A  970  14.445  14.393   9.169  0.2461  0.1638 -0.2403
   61loPI   C5A  971  14.231  14.365   8.829 -0.2803  0.0181  0.0926
   61loPI   C6A  972  14.241  14.268   8.401 -0.1697 -0.1060  0.1496
   61loPI   C1B  973  14.707  15.040  10.377 -0.0070  0.1027  0.0667
   61loPI   C2B  974  14.696  15.011   9.971  0.0305 -0.1349  0.1250
   61loPI   C3B  975  14.681  15.064   9.552 -0.0035 -0.2015  0.2150
   61loPI   C4B  976  14.551  14.879   9.211  0.0630  0.0013  0.0233
   62loPI    C1  977  15.259  16.696  11.617  0.0404 -0.1132 -0.0600
   62loPI    C2  978  14.943  16.533  11.801 -0.0181 -0.1619 -0.2025
   62loPI    C3  979  15.245  16.682  12.017 -0.2101  0.0298 -0.0618
   62loPI   PO4  980  15.116  16.873  11.390  0.0889 -0.3334 -0.1461
   62loPI   GL1  981  14.826  16.837  11.000 -0.1171 -0.3133 -0.2517
   62loPI   GL2  982  14.792  17.072  10.820  0.0587  0.2288 -0.0320
   62loPI   C1A  983  14.774  16.574  10.702  0.1692  0.2836 -0.5236
   62loPI   C2A  984  14.648  16.407  10.259 -0.1908 -0.3151  0.3075
   62loPI   C3A  985  14.638  16.393   9.855  0.0040 -0.0325 -0.1674
   62loPI   C4A  986  14.658  16.432   9.379 -0.2450 -0.2412  0.1043
   62loPI   C5A  987  14.604  16.217   9.076  0.2244  0.0214 -0.0287
   62loPI   C6A  988  14.533  15.803   8.883  0.0169 -0.2068 -0.1190
   62loPI   C1B  989  14.805  16.936  10.394 -0.0855  0.0371  0.0342
   62loPI   C2B  990  14.810  16.861   9.982 -0.2094  0.0726 -0.0529
   62loPI   C3B  991  14.796  16.885   9.494 -0.2638 -0.2405 -0.1859
   62loPI   C4B  992  15.084  16.726   9.223 -0.0289  0.1219  0.0953
   63loPI    C1  993   1.743   1.377  11.893  0.1617 -0.0063  0.0857
   63loPI    C2  994   1.527   1.069  12.028 -0.0833  0.1683  0.0988
   63loPI    C3  995   1.772   1.264  12.276  0.1227 -0.0543  0.0745
   63loPI   PO4  996   1.673   1.278  11.545  0.1572  0.0047  0.3407
   63loPI   GL1  997   1.632   1.567  11.164 -0.1290  0.2220 -0.0399
   63loPI   GL2  998   1.974   1.682  11.025  0.1474  0.0130 -0.0462
   63loPI   C1A  999   1.286   1.575  10.851 -0.3941 -0.0542  0.1273
   63loPI   C2A 1000   1.266   1.526  10.427  0.1725  0.0142  0.2310
   63loPI   C3A 1001   1.331   1.577  10.016 -0.2216  0.1040 -0.4749
   63loPI   C4A 1002   1.257   1.463   9.627  0.2858  0.2484 -0.0283
   63loPI   C5A 1003   1.250   1.419   9.199 -0.0959  0.0085  0.2351
   63loPI   C6A 1004   1.481   1.528   8.819  0.3059  0.0543  0.1168
   63loPI   C1B 1005   1.796   1.616  10.593 -0.3097  0.2080 -0.1283
   63loPI   C2B 1006   1.783   1.774  10.153 -0.0308  0.2540 -0.0048
   63loPI   C3B 1007   1.791   1.606   9.731  0.0102 -0.0794  0.1492
   63loPI   C4B 1008   1.676   1.613   9.344 -0.0532 -0.1149 -0.0762
   64loPI    C1 1009   6.325   0.839  11.730  0.0751  0.0875 -0.1214
   64loPI    C2 1010   6.591   1.128  11.807 -0.0149  0.1432 -0.0170
   64loPI    C3 1011   6.439   0.911  12.107  0.0678 -0.0275 -0.0969
   64loPI   PO4 1012   6.406   0.824  11.476  0.4044  0.0089  0.1462
   64loPI   GL1 1013   6.538   0.976  11.094 -0.0281 -0.0014  0.2026
   64loPI   GL2 1014   6.775   0.749  11.061  0.2795 -0.0476 -0.4251
   64loPI   C1A 1015   6.462   1.107  10.694 -0.2517  0.0540 -0.0214
   64loPI   C2A 1016   6.507   1.192  10.356 -0.0429 -0.0794  0.1566
   64loPI   C3A 1017   6.380   1.167   9.902  0.2865 -0.2032 -0.2769
   64loPI   C4A 1018   6.428   1.227   9.482  0.0407  0.1653  0.1688
   64loPI   C5A 1019   6.254   1.191   9.108  0.1216 -0.2170  0.2084
   64loPI   C6A 1020   6.239   1.005   8.685  0.0449  0.1738 -0.0588
   64loPI   C1B 1021   6.775   0.744  10.573 -0.0091 -0.0691 -0.0513
   64loPI   C2B 1022   6.739   0.797  10.083  0.0113 -0.0204  0.0485
   64loPI   C3B 1023   6.640   0.797   9.694 -0.0971  0.2087 -0.0756
   64loPI   C4B 1024   6.548   0.794   9.248 -0.1601 -0.1136  0.1987
   65loPI    C1 1025   1.586  11.625  11.739 -0.1620  0.0792 -0.1624
   65loPI    C2 1026   1.500  11.354  12.021  0.1597  0.2426  0.1002
   65loPI    C3 1027   1.302  11.701  12.011 -0.1000  0.0925 -0.1010
   65loPI   PO4 1028   1.640  11.478  11.530  0.0258 -0.1363 -0.2153
   65loPI   GL1 1029   1.501  11.299  11.027 -0.0697  0.0036  0.1196
   65loPI   GL2 1030   1.570  11.671  11.064  0.0921  0.0543 -0.0740
   65loPI   C1A 1031   1.438  11.432  10.683  0.2019 -0.2563  0.1914
   65loPI   C2A 1032   1.358  11.366  10.349 -0.3218  0.0576 -0.3011
   65loPI   C3A 1033   1.359  11.315   9.915  0.1069  0.2071 -0.0187
   65loPI   C4A 1034   1.325  11.216   9.469  0.0547 -0.2573 -0.1716
   65loPI   C5A 1035   1.193  11.278   9.002  0.2613 -0.1732  0.1359
   65loPI   C6A 1036   1.255  11.164   8.480 -0.0092  0.1917 -0.2409
   65loPI   C1B 1037   1.507  11.920  10.755 -0.1372 -0.0445 -0.0259
   65loPI   C2B 1038   1.539  11.832  10.253 -0.2449  0.0331  0.2534
   65loPI   C3B 1039   1.438  11.768   9.995  0.0550 -0.1625 -0.1232
   65loPI   C4B 1040   1.561  11.751   9.546  0.3110  0.1702 -0.1265
   66loPI    C1 1041   1.648  14.625  11.642 -0.1925 -0.2348  0.1502
   66loPI    C2 1042   1.863  14.367  11.860 -0.2005 -0.1858  0.2164
   66loPI    C3 1043   1.716  14.698  12.029  0.1407  0.0607  0.0409
   66loPI   PO4 1044   1.557  14.431  11.477  0.0351 -0.1286  0.1804
   66loPI   GL1 1045   1.374  14.287  11.047 -0.1838  0.0489 -0.0494
   66loPI   GL2 1046   1.605  14.104  10.999 -0.2754  0.0043  0.1467
   66loPI   C1A 1047   1.309  14.241  10.562 -0.2474  0.0522 -0.0699
   66loPI   C2A 1048   1.231  14.090  10.150  0.0364  0.1146  0.2938
   66loPI   C3A 1049   1.234  14.034   9.707  0.1638 -0.0238 -0.2622
   66loPI   C4A 1050   1.290  13.979   9.313 -0.0482 -0.0668  0.0630
   66loPI   C5A 1051   1.300  13.629   8.920 -0.0894  0.1729 -0.0060
   66loPI   C6A 1052   1.332  13.714   8.489  0.0621 -0.0478  0.0170
   66loPI   C1B 1053   1.779  14.331  10.644 -0.0828 -0.2098 -0.1889
   66loPI   C2B 1054   1.816  14.235  10.141 -0.2522  0.2977  0.1026
   66loPI   C3B 1055   1.757  14.225   9.765  0.1615 -0.0252  0.1150
   66loPI   C4B 1056   1.687  14.253   9.332 -0.0163  0.1344  0.1714
   67loPI    C1 1057   4.255   9.868  11.849 -0.1789 -0.0928 -0.0823
   67loPI    C2 1058   4.556   9.950  12.099 -0.0982 -0.1414 -0.1627
   67loPI    C3 1059   4.208   9.814  12.242 -0.1038 -0.0247 -0.0637
   67loPI   PO4 1060   4.339   9.841  11.617  0.1046 -0.2850  0.0901
   67loPI   GL1 1061   4.444   9.622  11.189 -0.0032 -0.0476  0.1024
   67loPI   GL2 1062   4.480   9.265  11.150 -0.0551 -0.4686  0.2370
   67loPI   C1A 1063   4.209   9.667  10.795  0.1707 -0.2486  0.1058
   67loPI   C2A 1064   4.161   9.588  10.408  0.2319 -0.1439  0.1613
   67loPI   C3A 1065   4.136   9.640   9.999 -0.1653 -0.1077  0.0155
   67loPI   C4A 1066   4.089   9.665   9.575  0.0511 -0.2499 -0.0171
   67loPI   C5A 1067   4.068   9.607   9.104 -0.2304  0.0566 -0.1081
   67loPI   C6A 1068   3.956   9.397   8.854  0.2637  0.0448  0.0495
   67loPI   C1B 1069   4.555   9.307  10.720 -0.0372  0.2127  0.1210
   67loPI   C2B 1070   4.518   9.337  10.221 -0.1386  0.0640 -0.2358
   67loPI   C3B 1071   4.485   9.312   9.839  0.0764 -0.0452  0.0162
   67loPI   C4B 1072   4.446   9.302   9.445  0.1785  0.2371  0.0604
   68loPI    C1 1073  12.494   0.028  11.538  0.2016 -0.1151 -0.0319
   68loPI    C2 1074  12.328   0.012  11.174  0.1385 -0.1435 -0.0020
   68loPI    C3 1075  12.420  -0.326  11.367  0.1188 -0.1293  0.0324
   68loPI   PO4 1076  12.594   0.248  11.501 -0.1419  0.3263  0.0977
   68loPI   GL1 1077  12.429   0.540  11.279 -0.2137  0.0176 -0.0102
   68loPI   GL2 1078  12.435   0.741  11.099 -0.0101  0.0370 -0.1379
   68loPI   C1A 1079  12.257   0.375  10.869 -0.1716 -0.0295  0.0507
   68loPI   C2A 1080  12.232   0.392  10.472 -0.3479 -0.0465 -0.1352
   68loPI   C3A 1081  12.299   0.401  10.066 -0.1281  0.1158  0.0838
   68loPI   C4A 1082  12.208   0.376   9.645  0.1328 -0.0474 -0.3377
   68loPI   C5A 1083  12.213   0.262   9.205  0.0653  0.1576  0.1810
   68loPI   C6A 1084  12.526   0.118   9.078 -0.1314  0.2067 -0.0542
   68loPI   C1B 1085  12.370   0.922  10.651  0.2009  0.1750  0.0425
   68loPI   C2B 1086  12.396   0.867  10.225 -0.0158  0.0520 -0.5480
   68loPI   C3B 1087  12.457   0.819   9.755  0.1102  0.5471 -0.1884
   68loPI   C4B 1088  12.427   0.825   9.370  0.3452 -0.0212  0.2304
   69loPI    C1 1089   3.157  13.767  11.396  0.0526  0.3714  0.0132
   69loPI    C2 1090   3.127  13.869  11.782  0.0729 -0.2003  0.1750
   69loPI    C3 1091   3.371  13.572  11.672  0.1038 -0.0114 -0.2894
   69loPI   PO4 1092   2.900  13.858  11.357 -0.1252  0.1711  0.1746
   69loPI   GL1 1093   2.615  13.861  10.977  0.2374  0.2121 -0.0622
   69loPI   GL2 1094   2.935  13.653  10.912  0.1602 -0.0548 -0.0950
   69loPI   C1A 1095   2.639  13.997  10.515  0.1838 -0.0502  0.2176
   69loPI   C2A 1096   2.684  13.868  10.134 -0.0931  0.0180  0.0770
   69loPI   C3A 1097   2.605  13.988   9.748  0.0271  0.0247  0.0649
   69loPI   C4A 1098   2.714  13.913   9.344 -0.1923  0.0323  0.0640
   69loPI   C5A 1099   2.746  13.902   8.909 -0.2054  0.0768 -0.2055
   69loPI   C6A 1100   2.680  13.926   8.432 -0.1309  0.1235  0.1429
   69loPI   C1B 1101   3.020  13.448  10.540  0.3018 -0.0807 -0.0996
   69loPI   C2B 1102   2.989  13.446  10.115  0.1692  0.2908  0.0071
   69loPI   C3B 1103   2.950  13.607   9.690 -0.1428  0.4182  0.0062
   69loPI   C4B 1104   2.870  13.459   9.178 -0.2098  0.3151  0.1631
   70loPI    C1 1105   4.141  13.482  11.695  0.1381 -0.0486 -0.0479
   70loPI    C2 1106   3.807  13.667  11.814  0.1647  0.1097 -0.2151
   70loPI    C3 1107   3.928  13.334  12.000 -0.1551 -0.0212 -0.2350
   70loPI   PO4 1108   4.197  13.481  11.464  0.0829 -0.0983  0.1109
   70loPI   GL1 1109   4.234  13.651  11.069 -0.2038  0.2848 -0.1384
   70loPI   GL2 1110   4.612  13.555  11.130 -0.3896  0.2854  0.1800
   70loPI   C1A 1111   4.071  13.848  10.736 -0.1683 -0.0678 -0.0698
   70loPI   C2A 1112   4.047  13.832  10.318  0.2011 -0.1467 -0.0394
   70loPI   C3A 1113   4.015  13.768   9.841  0.1126  0.0970  0.2964
   70loPI   C4A 1114   3.885  13.840   9.347  0.1792  0.0974 -0.2331
   70loPI   C5A 1115   4.113  13.771   8.921 -0.2875  0.2401 -0.0948
   70loPI   C6A 1116   4.016  13.884   8.559  0.0107 -0.0094 -0.1380
   70loPI   C1B 1117   4.357  13.404  10.612 -0.0012 -0.3087  0.1529
   70loPI   C2B 1118   4.411  13.451  10.200  0.3419  0.0280 -0.1936
   70loPI   C3B 1119   4.405  13.446   9.778  0.1176 -0.2874 -0.0845
   70loPI   C4B 1120   4.330  13.505   9.375 -0.0818 -0.0518  0.3409
   71loPI    C1 1121   4.476   1.772  11.688 -0.1125  0.3248  0.0036
   71loPI    C2 1122   4.630   1.540  11.975 -0.1644  0.0690 -0.1728
   71loPI    C3 1123   4.508   1.910  12.063  0.0642  0.0882  0.0781
   71loPI   PO4 1124   4.502   1.562  11.497 -0.1780 -0.2684  0.2685
   71loPI   GL1 1125   4.617   1.296  11.079 -0.0508 -0.0862  0.1775
   71loPI   GL2 1126   4.282   1.528  11.043  0.0421 -0.1900 -0.1345
   71loPI   C1A 1127   4.546   1.311  10.591  0.1406 -0.3092  0.0289
   71loPI   C2A 1128   4.564   1.268  10.089 -0.0148  0.0523 -0.1282
   71loPI   C3A 1129   4.484   1.202   9.598 -0.0390 -0.0294 -0.0428
   71loPI   C4A 1130   4.482   1.186   9.095 -0.1583 -0.1259 -0.0012
   71loPI   C5A 1131   4.246   0.998   8.811 -0.1910  0.1264  0.2494
   71loPI   C6A 1132   4.251   1.074   8.428  0.2345 -0.0983  0.2949
   71loPI   C1B 1133   4.237   1.671  10.651 -0.0565  0.0730 -0.1059
   71loPI   C2B 1134   4.221   1.697  10.145  0.2395  0.2035  0.1324
   71loPI   C3B 1135   4.235   1.551   9.743 -0.0415  0.1397 -0.0144
   71loPI   C4B 1136   4.099   1.662   9.334 -0.0289  0.1126 -0.0686
   72loPI    C1 1137   7.343  15.345  11.796 -0.1400  0.0093  0.1794
   72loPI    C2 1138   7.443  14.975  11.913  0.2492  0.1337  0.2555
   72loPI    C3 1139   7.167  15.181  12.116 -0.1808 -0.2170  0.0435
   72loPI   PO4 1140   7.428  15.369  11.575  0.2248  0.2036  0.1844
   72loPI   GL1 1141   7.323  15.567  11.129 -0.3238 -0.1305  0.4118
   72loPI   GL2 1142   7.553  15.355  11.080 -0.2539  0.0577  0.0584
   72loPI   C1A 1143   7.283  15.528  10.685  0.1160 -0.0472  0.0606
   72loPI   C2A 1144   7.353  15.482  10.331  0.0963  0.2698  0.2916
   72loPI   C3A 1145   7.310  15.587   9.960  0.0064  0.0844  0.1981
   72loPI   C4A 1146   7.148  15.591   9.549  0.0660 -0.2783 -0.0500
   72loPI   C5A 1147   7.215  15.490   9.106  0.1487 -0.0492  0.0729
   72loPI   C6A 1148   6.825  15.427   8.869 -0.0829  0.0064  0.0383
   72loPI   C1B 1149   7.791  15.556  10.692 -0.1745  0.0797 -0.3226
   72loPI   C2B 1150   7.858  15.656  10.302 -0.0078  0.2876 -0.0894
   72loPI   C3B 1151   7.856  15.634   9.860 -0.3748 -0.0979 -0.0903
   72loPI   C4B 1152   7.879  15.651   9.420 -0.0130  0.1229 -0.3478
   73loPI    C1 1153   6.599  15.267  11.599 -0.0035  0.2158 -0.1239
   73loPI    C2 1154   6.353  15.341  11.906 -0.0052  0.0651 -0.0878
   73loPI    C3 1155   6.742  15.426  11.937  0.0682 -0.3210  0.1101
   73loPI   PO4 1156   6.426  15.348  11.381 -0.1540  0.3877 -0.0799
   73loPI   GL1 1157   6.494  15.342  11.011  0.1315  0.0152 -0.1142
   73loPI   GL2 1158   6.808  15.497  11.087  0.0705 -0.3011 -0.0499
   73loPI   C1A 1159   6.305  15.223  10.573  0.0674  0.1627  0.3906
   73loPI   C2A 1160   6.358  15.308  10.187 -0.2622 -0.1754  0.2963
   73loPI   C3A 1161   6.256  15.330   9.704 -0.3779  0.2924 -0.2279
   73loPI   C4A 1162   6.166  15.291   9.304  0.2468 -0.1320  0.0248
   73loPI   C5A 1163   6.286  15.352   8.928 -0.0315 -0.1597 -0.1493
   73loPI   C6A 1164   6.430  15.465   8.528 -0.0397  0.1049  0.1313
   73loPI   C1B 1165   6.833  15.383  10.613 -0.1402  0.0246 -0.1112
   73loPI   C2B 1166   6.838  15.377  10.188 -0.2212 -0.2527 -0.0142
   73loPI   C3B 1167   6.737  15.442   9.827 -0.1529 -0.3093 -0.2211
   73loPI   C4B 1168   6.648  15.491   9.326 -0.0003  0.2836  0.2297
   74loPI    C1 1169   0.597   8.820  12.038 -0.1132  0.2621 -0.1514
   74loPI    C2 1170   0.803   9.117  11.868 -0.0323  0.2378 -0.0965
   74loPI    C3 1171   0.644   9.168  12.231  0.2258  0.1172  0.0363
   74loPI   PO4 1172   0.754   8.577  11.880 -0.0288  0.0253 -0.1086
   74loPI   GL1 1173   0.636   8.417  11.468 -0.2434 -0.3518 -0.1747
   74loPI   GL2 1174   0.465   8.262  11.222 -0.2203 -0.0377 -0.0124
   74loPI   C1A 1175   0.705   8.805  11.049 -0.0750 -0.0374 -0.1083
   74loPI   C2A 1176   0.664   8.784  10.569  0.0130  0.0603  0.1707
   74loPI   C3A 1177   0.641   8.884  10.190 -0.2750 -0.2532 -0.1137
   74loPI   C4A 1178   0.584   8.809   9.723  0.1597 -0.2079 -0.4375
   74loPI   C5A 1179   0.578   8.827   9.307 -0.1052 -0.1552  0.1175
   74loPI   C6A 1180   0.692   8.630   8.964 -0.0188 -0.0756  0.3761
   74loPI   C1B 1181   0.576   8.303  10.858 -0.1169 -0.0519 -0.1698
   74loPI   C2B 1182   0.562   8.260  10.496 -0.1086  0.1877  0.0061
   74loPI   C3B 1183   0.493   8.302  10.058  0.1101 -0.2134  0.0601
   74loPI   C4B 1184   0.474   8.276   9.578  0.2223 -0.1471  0.3812
   75loPI    C1 1185   2.609   6.012  11.839  0.0584  0.0363  0.2006
   75loPI    C2 1186   2.457   5.643  11.866 -0.1594  0.1198  0.1400
   75loPI    C3 1187   2.260   5.953  12.025  0.0736  0.1977  0.2826
   75loPI   PO4 1188   2.735   5.978  11.568 -0.1804  0.0133 -0.0532
   75loPI   GL1 1189   2.731   5.860  11.089 -0.3946 -0.0356  0.3297
   75loPI   GL2 1190   2.561   6.204  11.170  0.0158 -0.0156 -0.1568
   75loPI   C1A 1191   2.567   5.956  10.671  0.3283 -0.3291 -0.0152
   75loPI   C2A 1192   2.640   6.074  10.294  0.0815 -0.1391  0.1057
   75loPI   C3A 1193   2.586   6.053   9.968 -0.2072  0.0181  0.1456
   75loPI   C4A 1194   2.691   5.896   9.522 -0.0580 -0.0032  0.2424
   75loPI   C5A 1195   2.842   5.782   9.173  0.2597 -0.0665 -0.2881
   75loPI   C6A 1196   2.949   5.793   8.794  0.0661 -0.0399  0.0577
   75loPI   C1B 1197   2.371   6.392  10.889 -0.1285 -0.0762 -0.1575
   75loPI   C2B 1198   2.302   6.410  10.425 -0.3722  0.3251  0.0868
   75loPI   C3B 1199   2.258   6.419  10.026  0.2018  0.0053 -0.1048
   75loPI   C4B 1200   2.295   6.292   9.671  0.0512  0.2398  0.0804
   76loPI    C1 1201   0.721  13.470  11.814  0.0260  0.0099 -0.0476
   76loPI    C2 1202   1.113  13.550  11.827  0.0348 -0.0565  0.1304
   76loPI    C3 1203   0.929  13.402  12.149 -0.1003 -0.1973 -0.0097
   76loPI   PO4 1204   0.689  13.356  11.648  0.3076 -0.1526  0.1496
   76loPI   GL1 1205   0.640  13.249  11.307  0.0153 -0.1208  0.0245
   76loPI   GL2 1206   0.663  13.575  11.084  0.0151  0.2855 -0.2908
   76loPI   C1A 1207   0.494  13.052  10.930 -0.0468  0.2095 -0.1402
   76loPI   C2A 1208   0.492  13.063  10.518  0.0592 -0.2773  0.1570
   76loPI   C3A 1209   0.520  12.999  10.094 -0.0076 -0.0809 -0.2350
   76loPI   C4A 1210   0.399  12.918   9.657  0.1180 -0.0483 -0.1382
   76loPI   C5A 1211   0.769  12.955   9.319 -0.0136  0.1043 -0.2509
   76loPI   C6A 1212   1.032  13.258   9.131  0.1657  0.1161  0.0945
   76loPI   C1B 1213   0.701  13.576  10.584 -0.1273 -0.1747  0.0688
   76loPI   C2B 1214   0.629  13.513  10.151  0.0312 -0.1007  0.0512
   76loPI   C3B 1215   0.612  13.337   9.684  0.0980 -0.1308 -0.1284
   76loPI   C4B 1216   0.597  13.457   9.230  0.0127  0.0253  0.1921
   77loPI    C1 1217   7.252   5.950  11.763  0.1073 -0.0303  0.0879
   77loPI    C2 1218   7.055   5.659  11.954  0.0485 -0.0797 -0.0468
   77loPI    C3 1219   7.380   5.823  12.120 -0.0917 -0.0130  0.1668
   77loPI   PO4 1220   7.188   5.881  11.491  0.0167  0.1922  0.2681
   77loPI   GL1 1221   7.204   5.756  11.182  0.1152 -0.0518 -0.4427
   77loPI   GL2 1222   7.216   5.509  11.048  0.0427 -0.2517  0.0903
   77loPI   C1A 1223   6.947   6.004  10.965 -0.1903 -0.0610 -0.2199
   77loPI   C2A 1224   6.915   6.086  10.555 -0.3310  0.2862  0.0242
   77loPI   C3A 1225   6.890   6.126  10.125 -0.0017  0.0243  0.2059
   77loPI   C4A 1226   6.861   6.259   9.693 -0.0200  0.0866  0.0253
   77loPI   C5A 1227   6.922   6.069   9.399  0.1659  0.0124 -0.0999
   77loPI   C6A 1228   6.786   5.700   9.145  0.2272  0.1096  0.0448
   77loPI   C1B 1229   7.309   5.656  10.735  0.0292  0.0698 -0.3081
   77loPI   C2B 1230   7.260   5.735  10.262 -0.1437  0.2103  0.1910
   77loPI   C3B 1231   7.237   5.861   9.786  0.1352 -0.2549 -0.0831
   77loPI   C4B 1232   7.350   5.768   9.385 -0.1645  0.0295 -0.0124
   78loPI    C1 1233  12.671   5.563  11.819 -0.0806 -0.3401  0.1690
   78loPI    C2 1234  12.340   5.659  12.023  0.1466  0.1512  0.3212
   78loPI    C3 1235  12.684   5.598  12.217  0.2611  0.1558  0.1227
   78loPI   PO4 1236  12.634   5.681  11.593  0.0204 -0.2148 -0.2270
   78loPI   GL1 1237  12.825   5.549  11.136  0.1271 -0.0909 -0.1321
   78loPI   GL2 1238  12.536   5.770  11.114  0.1416 -0.0154  0.2500
   78loPI   C1A 1239  12.749   5.459  10.777  0.2297 -0.1617 -0.1098
   78loPI   C2A 1240  12.627   5.471  10.296  0.1551  0.2733 -0.1824
   78loPI   C3A 1241  12.688   5.397   9.967 -0.2460  0.2843 -0.0384
   78loPI   C4A 1242  12.765   5.461   9.575  0.0964  0.0734  0.0445
   78loPI   C5A 1243  12.640   5.643   9.133 -0.1312 -0.0975  0.2538
   78loPI   C6A 1244  12.621   5.846   8.732  0.2545  0.0733  0.0849
   78loPI   C1B 1245  12.317   5.912  10.866  0.0808  0.1225 -0.1245
   78loPI   C2B 1246  12.301   5.825  10.391 -0.0296 -0.2995  0.0666
   78loPI   C3B 1247  12.363   5.841  10.022  0.0217  0.0679  0.2909
   78loPI   C4B 1248  12.408   5.846   9.577 -0.0796  0.0579 -0.0330
   79loPI    C1 1249   3.308  11.010  11.603  0.0935 -0.0373  0.1081
   79loPI    C2 1250   3.272  10.724  11.880 -0.1715  0.1129  0.2323
   79loPI    C3 1251   3.602  10.949  11.867  0.0817 -0.2579  0.0725
   79loPI   PO4 1252   3.278  10.903  11.403 -0.0506 -0.1138 -0.0332
   79loPI   GL1 1253   3.406  11.022  11.062 -0.0925  0.2244 -0.1232
   79loPI   GL2 1254   3.692  10.882  11.091  0.1034 -0.3768  0.3254
   79loPI   C1A 1255   3.216  10.945  10.778 -0.1350  0.1335 -0.1411
   79loPI   C2A 1256   3.203  10.833  10.377 -0.0578  0.0122  0.0470
   79loPI   C3A 1257   3.113  10.781  10.011  0.1117 -0.0611 -0.1324
   79loPI   C4A 1258   3.069  10.849   9.578  0.3087  0.0478  0.1587
   79loPI   C5A 1259   3.191  10.894   9.224  0.3129  0.2313 -0.3800
   79loPI   C6A 1260   3.477  10.946   8.828  0.2958 -0.2437  0.4190
   79loPI   C1B 1261   3.689  11.003  10.669 -0.0412  0.0768  0.2136
   79loPI   C2B 1262   3.674  10.893  10.168  0.0528  0.0288 -0.0592
   79loPI   C3B 1263   3.549  10.870   9.721 -0.3418  0.0530  0.2404
   79loPI   C4B 1264   3.665  10.911   9.309  0.1549 -0.2398 -0.1045
   80loPI    C1 1265   1.661   2.746  11.592  0.1545 -0.3323  0.2324
   80loPI    C2 1266   1.350   2.729  11.843 -0.1083 -0.0409 -0.0643
   80loPI    C3 1267   1.624   3.018  11.882 -0.0608 -0.0924 -0.0147
   80loPI   PO4 1268   1.548   2.770  11.363  0.3544  0.2732  0.2638
   80loPI   GL1 1269   1.657   2.927  10.917 -0.3787 -0.0531 -0.1022
   80loPI   GL2 1270   1.859   2.725  10.972 -0.0492  0.1100  0.2722
   80loPI   C1A 1271   1.779   2.959  10.457  0.3019  0.0461  0.1664
   80loPI   C2A 1272   1.669   3.000   9.947  0.0381 -0.3700  0.1727
   80loPI   C3A 1273   1.615   2.986   9.604  0.1152 -0.1232  0.1284
   80loPI   C4A 1274   1.628   3.105   9.229 -0.2087 -0.0457  0.2915
   80loPI   C5A 1275   1.890   3.152   8.809  0.0494  0.0635 -0.1165
   80loPI   C6A 1276   1.980   3.052   8.416 -0.0035 -0.0626 -0.1022
   80loPI   C1B 1277   2.065   2.624  10.679  0.1979  0.3583  0.0171
   80loPI   C2B 1278   2.195   2.712  10.288 -0.3117 -0.3545  0.3338
   80loPI   C3B 1279   2.000   2.652   9.939 -0.0837 -0.2291  0.1540
   80loPI   C4B 1280   2.012   2.587   9.491  0.1787  0.2850 -0.2483
   81loPI    C1 1281  10.380  14.000  11.823  0.0134 -0.2054 -0.2080
   81loPI    C2 1282  10.044  14.058  12.032  0.1682 -0.0028 -0.0101
   81loPI    C3 1283  10.360  13.885  12.206  0.1656 -0.2017 -0.1984
   81loPI   PO4 1284  10.284  13.915  11.576  0.1011  0.1452 -0.3513
   81loPI   GL1 1285  10.116  13.870  11.194 -0.2888  0.0102  0.0474
   81loPI   GL2 1286  10.224  14.265  11.162  0.0449  0.0130 -0.1910
   81loPI   C1A 1287  10.136  14.019  10.774  0.1133 -0.1124  0.1743
   81loPI   C2A 1288  10.113  13.862  10.383 -0.1985 -0.3533  0.4264
   81loPI   C3A 1289  10.149  13.879  10.000 -0.2177  0.2430 -0.1116
   81loPI   C4A 1290  10.069  13.842   9.607  0.1438 -0.3572  0.0153
   81loPI   C5A 1291  10.134  13.855   9.199  0.0297  0.2596  0.0197
   81loPI   C6A 1292  10.263  13.812   8.856  0.0072  0.0524  0.1937
   81loPI   C1B 1293  10.277  14.502  10.786  0.1387  0.1493 -0.0717
   81loPI   C2B 1294  10.260  14.354  10.346  0.1989 -0.0421 -0.1262
   81loPI   C3B 1295  10.275  14.408   9.893 -0.3878 -0.1751 -0.1274
   81loPI   C4B 1296  10.259  14.345   9.374 -0.0855 -0.0214 -0.1317
   82loPI    C1 1297  12.800   0.789  11.797  0.2941  0.1535 -0.0310
   82loPI    C2 1298  13.099   0.551  11.915  0.0757 -0.0678  0.0850
   82loPI    C3 1299  12.790   0.620  12.160 -0.1194 -0.0932 -0.1504
   82loPI   PO4 1300  12.811   0.710  11.549  0.1504  0.0748  0.1222
   82loPI   GL1 1301  13.056   0.663  11.190  0.2031  0.1005 -0.1704
   82loPI   GL2 1302  12.876   0.493  11.064 -0.0736  0.1217  0.0720
   82loPI   C1A 1303  13.177   0.628  10.746  0.0864 -0.2097 -0.0108
   82loPI   C2A 1304  13.277   0.644  10.448  0.2498  0.1232  0.2228
   82loPI   C3A 1305  13.360   0.586  10.060  0.1534  0.0291 -0.1737
   82loPI   C4A 1306  13.288   0.555   9.637 -0.0179 -0.3176 -0.1792
   82loPI   C5A 1307  13.255   0.608   9.199 -0.0350 -0.0378 -0.1663
   82loPI   C6A 1308  13.518   0.431   8.873 -0.0729  0.0577  0.1941
   82loPI   C1B 1309  12.691   0.550  10.672 -0.1832  0.0009  0.1416
   82loPI   C2B 1310  12.756   0.583  10.282  0.2047  0.1930 -0.0235
   82loPI   C3B 1311  12.811   0.480   9.846 -0.0493  0.0694 -0.0439
   82loPI   C4B 1312  12.761   0.402   9.375 -0.0836 -0.1876  0.2189
   83loPI    C1 1313   9.814   0.615  11.269 -0.0484  0.0022  0.0638
   83loPI    C2 1314  10.214   0.633  11.269 -0.0496  0.0345 -0.0294
   83loPI    C3 1315  10.017   0.562  11.610  0.0378 -0.0305  0.0079
   83loPI   PO4 1316   9.739   0.848  11.201  0.3528 -0.0028 -0.0966
   83loPI   GL1 1317   9.793   0.981  10.802  0.2332  0.1482  0.0712
   83loPI   GL2 1318  10.001   0.725  10.812 -0.0979 -0.2456  0.1907
   83loPI   C1A 1319   9.747   1.031  10.362  0.0440 -0.3282 -0.1597
   83loPI   C2A 1320   9.713   1.000   9.929  0.1672  0.1457 -0.2212
   83loPI   C3A 1321   9.648   0.971   9.475  0.0568  0.0458  0.0072
   83loPI   C4A 1322   9.567   1.062   9.014 -0.0554  0.2281  0.0537
   83loPI   C5A 1323   9.227   1.031   8.845 -0.0836  0.1123 -0.1064
   83loPI   C6A 1324   9.116   0.668   8.651  0.0967 -0.1384  0.0362
   83loPI   C1B 1325  10.067   0.707  10.360 -0.2961  0.3927 -0.3081
   83loPI   C2B 1326  10.029   0.602   9.946 -0.1302 -0.2417 -0.4333
   83loPI   C3B 1327  10.003   0.602   9.528  0.0385 -0.0053  0.1798
   83loPI   C4B 1328   9.863   0.622   9.132 -0.0272 -0.0255 -0.1171
   84loPI    C1 1329  13.349   1.518  11.694  0.0377  0.2367 -0.0268
   84loPI    C2 1330  13.040   1.755  11.601 -0.3384 -0.2568 -0.0722
   84loPI    C3 1331  13.249   1.822  11.935 -0.4964  0.0790 -0.0364
   84loPI   PO4 1332  13.469   1.484  11.432 -0.0509  0.0285  0.2310
   84loPI   GL1 1333  13.530   1.565  11.085  0.1287 -0.3029  0.1219
   84loPI   GL2 1334  13.774   1.404  10.972 -0.0342 -0.0866  0.2217
   84loPI   C1A 1335  13.466   1.616  10.556 -0.1440 -0.2450 -0.2393
   84loPI   C2A 1336  13.555   1.540  10.068 -0.0711  0.1185 -0.2322
   84loPI   C3A 1337  13.569   1.508   9.617 -0.0361 -0.1377 -0.1710
   84loPI   C4A 1338  13.453   1.590   9.220  0.1576 -0.1333  0.1549
   84loPI   C5A 1339  13.033   1.534   9.006  0.1431 -0.4472 -0.3913
   84loPI   C6A 1340  12.646   1.284   8.965 -0.2567  0.0509 -0.0569
   84loPI   C1B 1341  13.904   1.275  10.587  0.1628  0.4561 -0.1638
   84loPI   C2B 1342  13.920   1.186  10.176  0.0266 -0.4956 -0.2115
   84loPI   C3B 1343  13.893   1.139   9.840 -0.0950  0.1421  0.2550
   84loPI   C4B 1344  13.846   1.210   9.385 -0.0629 -0.1269  0.0594
   85loPI    C1 1345  14.410   1.550  11.463 -0.3669 -0.0480 -0.1694
   85loPI    C2 1346  14.358   1.859  11.711 -0.1154 -0.0244 -0.1430
   85loPI    C3 1347  14.235   1.494  11.818 -0.2098  0.0257 -0.0792
   85loPI   PO4 1348  14.464   1.733  11.249  0.0837 -0.1096 -0.2682
   85loPI   GL1 1349  14.309   1.722  10.928 -0.0084 -0.0889 -0.1357
   85loPI   GL2 1350  14.059   1.821  10.793 -0.2447 -0.2374 -0.2710
   85loPI   C1A 1351  14.488   1.831  10.486 -0.1932 -0.2118 -0.1292
   85loPI   C2A 1352  14.526   1.864  10.085 -0.1799  0.1917  0.1937
   85loPI   C3A 1353  14.530   1.828   9.665  0.1213 -0.1761 -0.1877
   85loPI   C4A 1354  14.525   1.781   9.249  0.1217  0.0839  0.3893
   85loPI   C5A 1355  14.414   1.902   8.840  0.0923 -0.0131 -0.2475
   85loPI   C6A 1356  14.355   1.648   8.389  0.2967  0.1688 -0.3932
   85loPI   C1B 1357  14.033   1.677  10.314 -0.0294 -0.3016 -0.0747
   85loPI   C2B 1358  14.033   1.654   9.784 -0.3311 -0.1266 -0.1023
   85loPI   C3B 1359  14.032   1.699   9.353  0.1632  0.0134  0.0841
   85loPI   C4B 1360  14.013   1.582   8.937 -0.0407  0.0413 -0.0976
   86loPI    C1 1361  13.259  15.440  11.582  0.1162 -0.1483  0.0070
   86loPI    C2 1362  13.173  15.590  11.943  0.0519 -0.0346 -0.0549
   86loPI    C3 1363  13.232  15.197  11.899  0.1037 -0.0435  0.0871
   86loPI   PO4 1364  13.078  15.436  11.412  0.0856  0.1285  0.0892
   86loPI   GL1 1365  13.279  15.397  10.990 -0.1626 -0.0569 -0.4171
   86loPI   GL2 1366  13.151  15.576  10.918 -0.0256  0.1047 -0.1940
   86loPI   C1A 1367  13.368  15.187  10.618  0.0003 -0.0501  0.0002
   86loPI   C2A 1368  13.333  15.107  10.104  0.0308  0.0876 -0.1075
   86loPI   C3A 1369  13.269  15.151   9.758 -0.1150  0.1870  0.0540
   86loPI   C4A 1370  13.281  15.163   9.335 -0.0375 -0.1087 -0.3693
   86loPI   C5A 1371  13.336  15.206   8.916 -0.0561 -0.4269  0.0214
   86loPI   C6A 1372  13.275  15.200   8.526  0.0022 -0.2777  0.0469
   86loPI   C1B 1373  12.977  15.604  10.516  0.0785  0.1500 -0.1387
   86loPI   C2B 1374  12.998  15.454  10.035  0.0818 -0.1501 -0.0317
   86loPI   C3B 1375  12.934  15.488   9.508  0.0476  0.1071  0.2731
   86loPI   C4B 1376  12.987  15.529   9.088  0.0444 -0.0243  0.5829
   87loPI    C1 1377  10.774  10.354  11.384 -0.3780  0.1076 -0.1620
   87loPI    C2 1378  10.507  10.512  11.637 -0.2079 -0.1008  0.1545
   87loPI    C3 1379  10.883  10.650  11.630 -0.2101 -0.1006  0.0186
   87loPI   PO4 1380  10.720  10.360  11.180 -0.0591 -0.0679 -0.0672
   87loPI   GL1 1381  10.765  10.485  10.789 -0.0559 -0.0016 -0.0617
   87loPI   GL2 1382  10.602  10.795  10.669 -0.0052 -0.0801 -0.0194
   87loPI   C1A 1383  10.972  10.484  10.371  0.2237  0.2240 -0.0765
   87loPI   C2A 1384  11.038  10.403   9.920  0.0113 -0.1303 -0.4208
   87loPI   C3A 1385  10.906  10.389   9.506  0.1239 -0.2524  0.1117
   87loPI   C4A 1386  10.802  10.406   9.073 -0.2017 -0.1252  0.1682
   87loPI   C5A 1387  10.705  10.253   8.637 -0.0458  0.3608 -0.0820
   87loPI   C6A 1388  10.330   9.943   8.598  0.1949 -0.2085 -0.1225
   87loPI   C1B 1389  10.624  10.839  10.253  0.2563 -0.0199  0.0995
   87loPI   C2B 1390  10.550  10.772   9.829 -0.2689 -0.1225 -0.2697
   87loPI   C3B 1391  10.533  10.723   9.384  0.2333 -0.2805 -0.0628
   87loPI   C4B 1392  10.500  10.795   8.922  0.3585  0.0454 -0.1061
   88loPI    C1 1393  11.768  11.156  11.970 -0.0729 -0.1694 -0.1620
   88loPI    C2 1394  11.657  11.416  12.253  0.5116  0.0228 -0.0969
   88loPI    C3 1395  11.502  11.047  12.249  0.0269  0.2162  0.0916
   88loPI   PO4 1396  11.718  11.266  11.671  0.2939  0.1596  0.0888
   88loPI   GL1 1397  11.851  11.351  11.214  0.1385 -0.0566  0.0237
   88loPI   GL2 1398  11.780  11.560  10.970  0.1314 -0.0243 -0.1966
   88loPI   C1A 1399  12.176  11.220  10.885  0.0321  0.0899 -0.2597
   88loPI   C2A 1400  12.226  11.247  10.500 -0.0157  0.0033  0.1481
   88loPI   C3A 1401  12.131  11.162  10.048  0.2197  0.3383 -0.2705
   88loPI   C4A 1402  12.130  11.245   9.586  0.0477  0.1840 -0.1088
   88loPI   C5A 1403  12.167  11.286   9.174  0.1780  0.0455  0.0584
   88loPI   C6A 1404  12.228  11.390   8.622  0.1684  0.1734  0.0974
   88loPI   C1B 1405  11.776  11.672  10.499 -0.0869 -0.0584  0.2466
   88loPI   C2B 1406  11.732  11.626  10.017  0.0853 -0.2668 -0.2294
   88loPI   C3B 1407  11.722  11.549   9.664  0.1785  0.1683 -0.0489
   88loPI   C4B 1408  11.716  11.469   9.256 -0.0100 -0.0830 -0.3288
   89loPI    C1 1409   0.532  12.056  11.778 -0.1198  0.1880  0.1193
   89loPI    C2 1410   0.922  12.051  11.868 -0.1351  0.0353  0.1792
   89loPI    C3 1411   0.661  11.852  12.097 -0.2566  0.1891  0.1760
   89loPI   PO4 1412   0.502  12.251  11.631  0.4212 -0.0048  0.0300
   89loPI   GL1 1413   0.490  12.404  11.213  0.2921 -0.2262  0.1692
   89loPI   GL2 1414   0.730  12.544  11.167 -0.0470  0.0698 -0.0062
   89loPI   C1A 1415   0.316  12.483  10.803 -0.0234 -0.2038 -0.1929
   89loPI   C2A 1416   0.334  12.398  10.389  0.2626 -0.0477 -0.3217
   89loPI   C3A 1417   0.338  12.521   9.930  0.2508 -0.0054  0.2289
   89loPI   C4A 1418   0.348  12.470   9.513  0.0257  0.3042  0.1194
   89loPI   C5A 1419   0.352  12.841   9.141 -0.3444 -0.0125  0.0560
   89loPI   C6A 1420   0.665  12.739   8.915  0.0411  0.1926  0.0078
   89loPI   C1B 1421   0.807  12.636  10.747 -0.0402 -0.1203  0.2000
   89loPI   C2B 1422   0.840  12.660  10.304  0.3129  0.0052 -0.0605
   89loPI   C3B 1423   0.898  12.671   9.804  0.0473  0.0021  0.1059
   89loPI   C4B 1424   0.822  12.488   9.416  0.0173 -0.0142 -0.2769
   90loPI    C1 1425  12.646   2.139  11.685 -0.1241 -0.0471 -0.1514
   90loPI    C2 1426  12.523   1.813  11.882 -0.3366  0.1077 -0.0237
   90loPI    C3 1427  12.800   2.052  12.044 -0.0968 -0.0676 -0.1680
   90loPI   PO4 1428  12.617   2.146  11.479  0.1442  0.0833 -0.1119
   90loPI   GL1 1429  12.736   1.869  11.035  0.4264 -0.1291  0.3340
   90loPI   GL2 1430  12.960   1.590  11.122  0.1558 -0.3180 -0.1275
   90loPI   C1A 1431  12.649   1.836  10.525  0.2736 -0.0172  0.0353
   90loPI   C2A 1432  12.700   1.777  10.073 -0.4557  0.0143  0.0630
   90loPI   C3A 1433  12.663   1.762   9.712  0.3201  0.0208  0.0139
   90loPI   C4A 1434  12.615   1.741   9.279 -0.3502  0.0842  0.0038
   90loPI   C5A 1435  12.631   1.802   8.882 -0.2527  0.0859  0.0938
   90loPI   C6A 1436  12.883   1.807   8.458 -0.2018  0.1573  0.1295
   90loPI   C1B 1437  12.984   1.456  10.714 -0.1194 -0.1218  0.2481
   90loPI   C2B 1438  13.026   1.450  10.288  0.0182  0.4083  0.1791
   90loPI   C3B 1439  13.096   1.438   9.927  0.1541 -0.0655 -0.2198
   90loPI   C4B 1440  13.031   1.438   9.468  0.3362  0.1462 -0.2290
   91loPI    C1 1441  13.067   9.976  12.025 -0.0383 -0.1738 -0.1444
   91loPI    C2 1442  12.797  10.089  12.297  0.1359 -0.0829 -0.0067
   91loPI    C3 1443  13.059   9.800  12.384  0.0144 -0.2472 -0.1789
   91loPI   PO4 1444  12.893  10.055  11.783  0.1107 -0.0358 -0.3674
   91loPI   GL1 1445  12.967  10.044  11.321  0.0733 -0.1809 -0.5132
   91loPI   GL2 1446  12.666  10.175  11.187 -0.2644 -0.1049  0.2226
   91loPI   C1A 1447  13.147  10.053  10.901 -0.0364  0.2160  0.1164
   91loPI   C2A 1448  13.162  10.149  10.547 -0.2629  0.1419 -0.3436
   91loPI   C3A 1449  13.232  10.140  10.087 -0.3736 -0.1041 -0.2129
   91loPI   C4A 1450  13.148  10.111   9.735 -0.1068  0.2276  0.1861
   91loPI   C5A 1451  13.182  10.026   9.330 -0.1350  0.2706  0.0459
   91loPI   C6A 1452  12.963  10.179   8.936  0.0109 -0.0557 -0.2241
   91loPI   C1B 1453  12.677  10.034  10.683 -0.1628  0.0826 -0.0873
   91loPI   C2B 1454  12.735   9.981  10.169 -0.0262 -0.0663 -0.0395
   91loPI   C3B 1455  12.707  10.025   9.679  0.1860 -0.1172 -0.4130
   91loPI   C4B 1456  12.707   9.917   9.355 -0.0792 -0.4363  0.1656
   92loPI    C1 1457   4.344  12.499  11.441 -0.0981  0.3329 -0.0955
   92loPI    C2 1458   4.682  12.712  11.459  0.0712  0.0682 -0.0847
   92loPI    C3 1459   4.695  12.324  11.361 -0.2311  0.0565 -0.0878
   92loPI   PO4 1460   4.170  12.604  11.214  0.1414  0.0204 -0.1068
   92loPI   GL1 1461   4.186  12.647  10.864 -0.1364 -0.0655 -0.1245
   92loPI   GL2 1462   4.282  12.939  10.862 -0.2791  0.3920  0.0122
   92loPI   C1A 1463   4.122  12.477  10.481 -0.3832  0.1064  0.1547
   92loPI   C2A 1464   4.111  12.409  10.004  0.2275  0.0394 -0.0785
   92loPI   C3A 1465   4.093  12.407   9.573 -0.0048  0.1434 -0.2962
   92loPI   C4A 1466   3.884  12.541   9.178 -0.2501 -0.1492  0.0343
   92loPI   C5A 1467   3.513  12.565   8.854 -0.0086 -0.0043 -0.0053
   92loPI   C6A 1468   3.569  12.460   8.449 -0.0376  0.0997  0.0540
   92loPI   C1B 1469   4.269  12.971  10.449  0.0310  0.0363 -0.1804
   92loPI   C2B 1470   4.281  12.945   9.983 -0.0420  0.0661  0.0886
   92loPI   C3B 1471   4.276  12.894   9.554 -0.1366  0.0305  0.1426
   92loPI   C4B 1472   4.156  12.970   9.156  0.0557  0.0591  0.1108
   93loPI    C1 1473  11.617   2.644  11.848  0.0052 -0.0196  0.0462
   93loPI    C2 1474  11.557   2.964  12.080  0.3184  0.1131 -0.0505
   93loPI    C3 1475  11.465   2.599  12.215 -0.0789  0.2446  0.0456
   93loPI   PO4 1476  11.437   2.692  11.511 -0.2503 -0.1190 -0.0769
   93loPI   GL1 1477  11.410   2.522  11.092  0.1519  0.3040 -0.4531
   93loPI   GL2 1478  11.755   2.437  10.890 -0.0970  0.0526  0.1392
   93loPI   C1A 1479  11.401   2.431  10.617  0.2614 -0.0436 -0.0318
   93loPI   C2A 1480  11.415   2.313  10.153 -0.0980  0.1796 -0.2711
   93loPI   C3A 1481  11.416   2.307   9.764 -0.1964 -0.0305  0.0380
   93loPI   C4A 1482  11.348   2.387   9.308  0.1807  0.1135  0.2542
   93loPI   C5A 1483  11.478   2.163   8.989 -0.1534  0.1307 -0.1835
   93loPI   C6A 1484  11.671   2.069   8.565 -0.0576  0.2395 -0.0715
   93loPI   C1B 1485  11.902   2.469  10.455  0.1889  0.1483 -0.3812
   93loPI   C2B 1486  11.936   2.411   9.989 -0.2026  0.0587  0.0165
   93loPI   C3B 1487  11.942   2.440   9.594  0.0735  0.2072 -0.0594
   93loPI   C4B 1488  11.800   2.622   9.293  0.0948  0.0687 -0.0656
   94loPI    C1 1489  14.910   4.563  11.536 -0.0021 -0.1051 -0.0671
   94loPI    C2 1490  15.197   4.566  11.815  0.0409  0.1484 -0.1118
   94loPI    C3 1491  14.856   4.764  11.878 -0.0506  0.0001 -0.1364
   94loPI   PO4 1492  15.065   4.539  11.321 -0.1484 -0.0564  0.1145
   94loPI   GL1 1493  15.238   4.659  10.985  0.1049 -0.0394 -0.0271
   94loPI   GL2 1494  15.388   4.977  11.118  0.2910  0.0875  0.0656
   94loPI   C1A 1495  15.188   4.468  10.595 -0.0361  0.0114 -0.1497
   94loPI   C2A 1496  15.185   4.334  10.142 -0.0507 -0.1066 -0.1640
   94loPI   C3A 1497  15.262   4.405   9.710  0.0939  0.2932 -0.4014
   94loPI   C4A 1498  15.252   4.450   9.238 -0.2474  0.2483 -0.0634
   94loPI   C5A 1499  15.384   4.806   9.097 -0.5098 -0.1124  0.1053
   94loPI   C6A 1500  15.222   5.090   8.798 -0.0952  0.3150 -0.3193
   94loPI   C1B 1501  15.356   4.948  10.610 -0.1331 -0.0379  0.1036
   94loPI   C2B 1502  15.404   4.972  10.257 -0.5872  0.1228 -0.1455
   94loPI   C3B 1503  15.372   4.901   9.814 -0.0433 -0.2383 -0.3181
   94loPI   C4B 1504  15.304   5.088   9.501  0.1056 -0.1462  0.0930
   95loPI    C1 1505  17.248  12.577  11.578  0.0422 -0.0288  0.0900
   95loPI    C2 1506  17.539  12.646  11.845 -0.0137  0.1460  0.1072
   95loPI    C3 1507  17.196  12.850  11.866 -0.1645 -0.1040  0.1255
   95loPI   PO4 1508  17.404  12.530  11.384  0.0101  0.0129  0.0176
   95loPI   GL1 1509  17.255  12.239  11.140  0.0810  0.0425 -0.3025
   95loPI   GL2 1510  17.466  12.064  11.149 -0.0438 -0.3865  0.2247
   95loPI   C1A 1511  17.136  12.444  10.778  0.0498  0.1817 -0.0411
   95loPI   C2A 1512  17.126  12.417  10.318 -0.1316 -0.4193  0.0902
   95loPI   C3A 1513  17.133  12.393   9.873  0.2918  0.0017 -0.0451
   95loPI   C4A 1514  17.164  12.366   9.471 -0.0928 -0.0169 -0.3944
   95loPI   C5A 1515  16.887  12.415   9.130 -0.0129  0.0875  0.1001
   95loPI   C6A 1516  16.754  12.750   8.798 -0.1449 -0.0213 -0.2080
   95loPI   C1B 1517  17.509  12.026  10.710  0.0160  0.0627 -0.1841
   95loPI   C2B 1518  17.518  11.942  10.247 -0.3370  0.2750 -0.3023
   95loPI   C3B 1519  17.479  11.942   9.860  0.1475  0.2079  0.2880
   95loPI   C4B 1520  17.514  11.894   9.426 -0.2811 -0.0421 -0.1233
   96loPI    C1 1521   9.772   4.467  12.163 -0.1887 -0.1411  0.1940
   96loPI    C2 1522   9.571   4.809  12.107  0.0569 -0.0172  0.0511
   96loPI    C3 1523   9.373   4.471  12.189 -0.2077  0.1023 -0.0861
   96loPI   PO4 1524  10.036   4.482  11.931  0.3056  0.3703 -0.0160
   96loPI   GL1 1525   9.951   4.493  11.417 -0.1029  0.1088  0.2247
   96loPI   GL2 1526  10.232   4.519  11.304 -0.0181 -0.1407  0.1042
   96loPI   C1A 1527   9.728   4.651  11.060  0.4220  0.1288 -0.1174
   96loPI   C2A 1528   9.713   4.694  10.691 -0.1248 -0.0150  0.1003
   96loPI   C3A 1529   9.739   4.757  10.262 -0.0171 -0.0509  0.1878
   96loPI   C4A 1530   9.787   4.647   9.850 -0.4117 -0.0682 -0.3365
   96loPI   C5A 1531   9.745   4.647   9.476 -0.1710  0.0794  0.0080
   96loPI   C6A 1532   9.774   4.974   9.149  0.1165 -0.0353  0.0315
   96loPI   C1B 1533  10.104   4.367  10.963 -0.1522  0.0506 -0.1595
   96loPI   C2B 1534  10.035   4.370  10.459  0.0190  0.1261  0.2190
   96loPI   C3B 1535  10.041   4.291  10.048 -0.1973  0.1438 -0.0648
   96loPI   C4B 1536  10.155   4.390   9.591 -0.0785 -0.1516  0.0655
   97loPI    C1 1537   3.351   7.803  11.924  0.2051 -0.1037  0.1237
   97loPI    C2 1538   3.196   7.913  12.275  0.0276  0.1359 -0.0266
   97loPI    C3 1539   3.239   7.525  12.189  0.3213  0.0749  0.3640
   97loPI   PO4 1540   3.215   7.882  11.786 -0.1563 -0.2300  0.3044
   97loPI   GL1 1541   3.467   8.043  11.505 -0.1493 -0.1716 -0.0901
   97loPI   GL2 1542   3.244   8.173  11.377  0.0801  0.3556  0.0174
   97loPI   C1A 1543   3.604   8.157  11.063 -0.0136  0.3667 -0.0949
   97loPI   C2A 1544   3.766   8.087  10.664 -0.0414  0.1723 -0.2051
   97loPI   C3A 1545   3.660   8.073  10.323  0.3786  0.0989 -0.0143
   97loPI   C4A 1546   3.668   8.156   9.897 -0.1490  0.0131 -0.0328
   97loPI   C5A 1547   3.608   8.168   9.491  0.1380  0.1723  0.1051
   97loPI   C6A 1548   3.103   7.991   9.258 -0.0808 -0.0381 -0.0062
   97loPI   C1B 1549   3.165   7.969  10.981  0.0904  0.0704 -0.1584
   97loPI   C2B 1550   3.209   8.001  10.594 -0.1339 -0.4257 -0.0376
   97loPI   C3B 1551   3.206   7.932  10.155  0.0020 -0.2195  0.0556
   97loPI   C4B 1552   3.206   7.971   9.725 -0.4111  0.4377 -0.2236
   98loPI    C1 1553  14.956   0.687  11.755 -0.1443  0.0608 -0.0484
   98loPI    C2 1554  14.823   0.956  12.019  0.0006  0.0066  0.0811
   98loPI    C3 1555  14.680   0.582  12.026 -0.0236  0.0154  0.0578
   98loPI   PO4 1556  15.035   0.894  11.525 -0.0712 -0.1353 -0.0456
   98loPI   GL1 1557  15.310   0.886  11.047  0.2355  0.0591  0.2222
   98loPI   GL2 1558  15.039   0.867  11.021 -0.2043  0.1053  0.1063
   98loPI   C1A 1559  15.605   0.753  10.772  0.2096  0.0304  0.2433
   98loPI   C2A 1560  15.630   0.816  10.369 -0.1207 -0.2552  0.3248
   98loPI   C3A 1561  15.541   0.691   9.912 -0.1734 -0.0590 -0.0576
   98loPI   C4A 1562  15.550   0.674   9.432 -0.1609 -0.1614  0.2529
   98loPI   C5A 1563  15.692   0.942   9.050  0.0158  0.0498  0.0226
   98loPI   C6A 1564  15.845   1.379   8.832  0.2352  0.3169 -0.1698
   98loPI   C1B 1565  15.108   0.668  10.604 -0.1706 -0.1314  0.2389
   98loPI   C2B 1566  15.090   0.610  10.102 -0.0625  0.0987 -0.1238
   98loPI   C3B 1567  15.024   0.581   9.737 -0.2993  0.1213  0.1910
   98loPI   C4B 1568  15.049   0.582   9.326  0.1384  0.0324  0.3406
   99loPI    C1 1569   3.160   2.380  11.582  0.0267 -0.0324  0.0489
   99loPI    C2 1570   3.189   2.011  11.431 -0.1917 -0.0129 -0.0440
   99loPI    C3 1571   3.164   2.064  11.826 -0.0931 -0.0927 -0.0266
   99loPI   PO4 1572   3.054   2.498  11.333 -0.1789  0.4389 -0.0755
   99loPI   GL1 1573   2.991   2.243  10.997 -0.1074  0.0600  0.2193
   99loPI   GL2 1574   2.817   1.942  11.121 -0.0701 -0.2808 -0.2096
   99loPI   C1A 1575   2.993   2.412  10.609  0.0426  0.0904  0.0892
   99loPI   C2A 1576   3.085   2.438  10.214  0.0274  0.0473  0.1609
   99loPI   C3A 1577   2.831   2.434   9.818  0.2038  0.1018  0.2111
   99loPI   C4A 1578   2.903   2.395   9.310 -0.0926  0.1803  0.0259
   99loPI   C5A 1579   3.212   2.356   9.032  0.1022  0.0846 -0.1244
   99loPI   C6A 1580   3.326   2.595   8.734  0.0135 -0.1346  0.4309
   99loPI   C1B 1581   2.919   1.900  10.692 -0.0549  0.2485  0.0717
   99loPI   C2B 1582   2.938   1.946  10.243 -0.2192  0.0462  0.3423
   99loPI   C3B 1583   2.691   1.895   9.939 -0.0147  0.0528 -0.1877
   99loPI   C4B 1584   2.750   1.791   9.503  0.1410 -0.0509  0.0932
  100loPI    C1 1585  13.072  15.936  11.276  0.1781 -0.1758 -0.0291
  100loPI    C2 1586  12.843  15.911  11.603  0.0704 -0.2312 -0.1081
  100loPI    C3 1587  13.235  15.983  11.638  0.0543 -0.2091  0.0314
  100loPI   PO4 1588  12.989  16.026  11.167  0.2487 -0.1343 -0.0913
  100loPI   GL1 1589  12.876  15.976  10.816  0.2497 -0.0368  0.1108
  100loPI   GL2 1590  13.175  16.085  10.729  0.0151 -0.2128 -0.1649
  100loPI   C1A 1591  12.668  15.988  10.490 -0.0222  0.1049  0.0157
  100loPI   C2A 1592  12.704  15.887  10.151 -0.3796  0.0289  0.0144
  100loPI   C3A 1593  12.584  15.926   9.681 -0.1373 -0.1490  0.2805
  100loPI   C4A 1594  12.638  15.874   9.252  0.1949 -0.3761 -0.0326
  100loPI   C5A 1595  12.679  15.903   8.850  0.2696 -0.1572  0.1072
  100loPI   C6A 1596  12.576  16.227   8.563 -0.1149 -0.3497 -0.3048
  100loPI   C1B 1597  13.147  16.078  10.324  0.2049 -0.0654 -0.0721
  100loPI   C2B 1598  13.088  16.005   9.849  0.0869 -0.0076  0.0666
  100loPI   C3B 1599  13.120  16.064   9.548  0.1362 -0.0848  0.0366
  100loPI   C4B 1600  13.071  16.138   9.107 -0.0226 -0.1825 -0.3601
  101loPI    C1 1601   3.754  11.425  11.690 -0.1887 -0.0541 -0.0834
  101loPI    C2 1602   4.068  11.654  11.592 -0.1141 -0.0968  0.0532
  101loPI    C3 1603   3.894  11.695  11.950  0.1696 -0.5441  0.2510
  101loPI   PO4 1604   3.719  11.266  11.421 -0.1971 -0.0565 -0.2438
  101loPI   GL1 1605   3.800  11.374  11.067 -0.2876  0.1411  0.2123
  101loPI   GL2 1606   3.853  11.691  11.100 -0.0969 -0.4403 -0.3932
  101loPI   C1A 1607   3.871  11.488  10.626  0.1809  0.1525 -0.1812
  101loPI   C2A 1608   3.811  11.457  10.135 -0.3069 -0.4028  0.1621
  101loPI   C3A 1609   3.734  11.510   9.711 -0.2882 -0.0368  0.1290
  101loPI   C4A 1610   3.786  11.409   9.299  0.1840  0.3109  0.1766
  101loPI   C5A 1611   3.873  11.218   8.923 -0.1141 -0.2251 -0.2172
  101loPI   C6A 1612   3.954  10.853   8.708 -0.0844 -0.0513  0.1489
  101loPI   C1B 1613   4.015  11.917  10.734  0.0093 -0.0415  0.1168
  101loPI   C2B 1614   3.973  12.027  10.318 -0.0612  0.0437 -0.1091
  101loPI   C3B 1615   3.896  11.951   9.904  0.0851  0.0073  0.0399
  101loPI   C4B 1616   3.893  11.904   9.507 -0.0582 -0.1886 -0.0628
  102loPI    C1 1617  15.189  14.095  11.637 -0.1954  0.2817  0.2129
  102loPI    C2 1618  14.937  13.849  11.825 -0.2066  0.0498 -0.0975
  102loPI    C3 1619  15.058  14.185  12.004 -0.1263 -0.2170  0.3675
  102loPI   PO4 1620  15.113  14.078  11.424 -0.1393 -0.3492 -0.1163
  102loPI   GL1 1621  14.951  14.183  11.073 -0.1196  0.0325 -0.0209
  102loPI   GL2 1622  15.187  13.898  10.943 -0.1962  0.2229 -0.1619
  102loPI   C1A 1623  14.925  14.301  10.659 -0.1666 -0.2519  0.1371
  102loPI   C2A 1624  14.815  14.168  10.258  0.0846 -0.2974  0.1650
  102loPI   C3A 1625  14.857  14.151   9.836  0.1608  0.2317 -0.2427
  102loPI   C4A 1626  14.800  14.133   9.405 -0.0055  0.2115  0.1197
  102loPI   C5A 1627  14.916  14.123   8.994  0.2667 -0.2794  0.0259
  102loPI   C6A 1628  15.071  14.171   8.581  0.4082 -0.0758  0.1017
  102loPI   C1B 1629  15.121  13.806  10.520 -0.1217  0.0220 -0.0995
  102loPI   C2B 1630  15.165  13.695  10.133 -0.1356  0.2724  0.0976
  102loPI   C3B 1631  15.227  13.786   9.714 -0.0597 -0.2928 -0.1684
  102loPI   C4B 1632  15.217  13.838   9.366 -0.2901  0.4287  0.2033
  103loPI    C1 1633   0.293   4.022  11.604 -0.2132 -0.2185 -0.0336
  103loPI    C2 1634   0.456   4.136  11.950  0.0475 -0.0939 -0.1944
  103loPI    C3 1635   0.239   3.801  11.932  0.2797 -0.2600  0.0261
  103loPI   PO4 1636   0.224   4.293  11.488 -0.0596 -0.2681 -0.0544
  103loPI   GL1 1637   0.182   4.401  11.058 -0.2438 -0.0934  0.2430
  103loPI   GL2 1638  -0.166   4.479  10.900 -0.0136  0.0491  0.0925
  103loPI   C1A 1639   0.256   4.640  10.678  0.0380  0.1361  0.2224
  103loPI   C2A 1640   0.304   4.594  10.248 -0.3102  0.1881  0.0937
  103loPI   C3A 1641   0.215   4.625   9.828  0.2250 -0.2600 -0.0240
  103loPI   C4A 1642   0.216   4.527   9.386  0.4706 -0.0676  0.0142
  103loPI   C5A 1643   0.268   4.757   9.004  0.2068 -0.2663  0.2534
  103loPI   C6A 1644   0.684   4.790   8.756 -0.3509 -0.1766  0.0528
  103loPI   C1B 1645  -0.235   4.604  10.515  0.1136 -0.3039  0.0858
  103loPI   C2B 1646  -0.175   4.446  10.122 -0.1269  0.0119  0.0734
  103loPI   C3B 1647  -0.250   4.365   9.636  0.2723  0.2617 -0.2553
  103loPI   C4B 1648  -0.211   4.394   9.123  0.1016 -0.1796  0.0789
  104loPI    C1 1649   3.925  12.192  11.795  0.1824  0.0344 -0.0911
  104loPI    C2 1650   4.105  12.521  11.933  0.1493 -0.0109  0.0623
  104loPI    C3 1651   3.774  12.385  12.111  0.0460 -0.0112 -0.1278
  104loPI   PO4 1652   3.970  12.152  11.558  0.1484  0.0727 -0.1305
  104loPI   GL1 1653   4.207  12.118  11.135 -0.0785 -0.3907 -0.0484
  104loPI   GL2 1654   3.799  12.207  11.072  0.0940  0.0661 -0.1839
  104loPI   C1A 1655   4.522  12.153  10.914  0.0396  0.1623  0.0274
  104loPI   C2A 1656   4.459  12.029  10.514 -0.1059  0.0845 -0.0459
  104loPI   C3A 1657   4.462  12.042  10.123  0.3280  0.0847 -0.0130
  104loPI   C4A 1658   4.421  12.036   9.756  0.0694  0.0692  0.1988
  104loPI   C5A 1659   4.374  12.056   9.334 -0.0327  0.1201  0.2194
  104loPI   C6A 1660   4.342  12.188   8.899  0.3540  0.3455  0.3236
  104loPI   C1B 1661   3.656  12.337  10.745  0.0744  0.2182  0.2885
  104loPI   C2B 1662   3.614  12.385  10.217 -0.0619 -0.0504 -0.3110
  104loPI   C3B 1663   3.640  12.359   9.734 -0.1253 -0.0739  0.0018
  104loPI   C4B 1664   3.467  12.319   9.285  0.0429 -0.1286  0.1100
  105loPI    C1 1665   8.650   0.684  11.872 -0.0167  0.0933  0.1728
  105loPI    C2 1666   8.480   0.401  12.098 -0.1834  0.1094  0.0694
  105loPI    C3 1667   8.326   0.770  12.090 -0.2168  0.0925 -0.1181
  105loPI   PO4 1668   8.682   0.500  11.579 -0.0260  0.0265  0.2255
  105loPI   GL1 1669   8.841   0.649  11.211  0.0477  0.1377 -0.1547
  105loPI   GL2 1670   8.534   0.744  11.135  0.0032 -0.0947  0.1526
  105loPI   C1A 1671   8.919   0.471  10.782  0.2386  0.0999 -0.1870
  105loPI   C2A 1672   8.826   0.401  10.403  0.1624  0.0571 -0.3471
  105loPI   C3A 1673   8.964   0.406   9.938 -0.0988 -0.1897 -0.1559
  105loPI   C4A 1674   9.000   0.423   9.486  0.1909 -0.2001  0.4705
  105loPI   C5A 1675   9.246   0.305   9.065  0.0863  0.2472 -0.0683
  105loPI   C6A 1676   9.503   0.417   8.731 -0.0542 -0.2251 -0.2125
  105loPI   C1B 1677   8.560   0.798  10.646 -0.0152 -0.3060 -0.1047
  105loPI   C2B 1678   8.530   0.741  10.217  0.1134 -0.0823  0.0188
  105loPI   C3B 1679   8.585   0.754   9.893  0.0821  0.1191  0.1673
  105loPI   C4B 1680   8.636   0.732   9.439 -0.1627 -0.3003  0.2146
  106loPI    C1 1681   3.334   5.786  11.750  0.0266 -0.0527 -0.0484
  106loPI    C2 1682   3.029   5.806  12.008  0.1028 -0.1572  0.0503
  106loPI    C3 1683   3.349   5.581  12.093  0.2195 -0.0272 -0.0406
  106loPI   PO4 1684   3.167   5.709  11.512 -0.1729  0.0634 -0.0106
  106loPI   GL1 1685   3.179   5.572  11.154  0.0268 -0.1740  0.1406
  106loPI   GL2 1686   3.418   5.350  11.075  0.1098 -0.2242  0.0395
  106loPI   C1A 1687   3.106   5.635  10.836  0.0204  0.4181  0.0343
  106loPI   C2A 1688   2.957   5.640  10.416  0.1695  0.1613  0.0352
  106loPI   C3A 1689   2.983   5.581   9.957  0.0307  0.1137  0.0838
  106loPI   C4A 1690   3.092   5.512   9.522 -0.0155  0.3039 -0.1420
  106loPI   C5A 1691   3.264   5.554   9.082 -0.1582  0.0563  0.0580
  106loPI   C6A 1692   3.484   5.570   8.680 -0.1007 -0.1287 -0.0421
  106loPI   C1B 1693   3.425   5.276  10.630 -0.2621 -0.0789 -0.0483
  106loPI   C2B 1694   3.309   5.349  10.252  0.0701  0.1923  0.1904
  106loPI   C3B 1695   3.394   5.115   9.825  0.0727  0.0861 -0.0567
  106loPI   C4B 1696   3.504   5.016   9.359  0.1527 -0.2779 -0.0779
  107loPI    C1 1697   3.477   1.213  11.551  0.2303 -0.1863 -0.1436
  107loPI    C2 1698   3.156   1.104  11.339  0.1013 -0.0156 -0.0385
  107loPI    C3 1699   3.205   0.967  11.711  0.0592  0.0966  0.0090
  107loPI   PO4 1700   3.655   1.268  11.394 -0.0010  0.0043  0.2226
  107loPI   GL1 1701   3.657   1.355  11.009 -0.0419 -0.0596 -0.1028
  107loPI   GL2 1702   3.408   1.378  10.813 -0.0699 -0.0790 -0.1242
  107loPI   C1A 1703   4.016   1.218  10.685  0.1486 -0.0674  0.0685
  107loPI   C2A 1704   4.165   1.151  10.294 -0.1087  0.0516  0.1606
  107loPI   C3A 1705   4.012   1.132   9.899  0.1857  0.0166  0.1445
  107loPI   C4A 1706   4.040   1.108   9.346  0.3338 -0.0295 -0.1838
  107loPI   C5A 1707   3.754   1.350   9.009  0.3326 -0.0847  0.0110
  107loPI   C6A 1708   3.256   1.405   8.851 -0.0552 -0.0852 -0.0246
  107loPI   C1B 1709   3.237   1.568  10.418 -0.0504 -0.1590 -0.0384
  107loPI   C2B 1710   3.253   1.554   9.934  0.0018 -0.0317  0.2771
  107loPI   C3B 1711   3.124   1.519   9.557  0.1851 -0.0231 -0.2077
  107loPI   C4B 1712   2.921   1.375   9.210 -0.0464 -0.0414 -0.1115
  108loPI    C1 1713   4.766   0.601  11.921  0.0447  0.0377 -0.0398
  108loPI    C2 1714   5.071   0.484  12.153 -0.0964 -0.0290  0.1147
  108loPI    C3 1715   4.805   0.750  12.290 -0.1822 -0.0701  0.0295
  108loPI   PO4 1716   4.947   0.652  11.615 -0.1411  0.3449 -0.0362
  108loPI   GL1 1717   4.915   0.841  11.178  0.0716  0.1714 -0.3792
  108loPI   GL2 1718   4.783   0.436  11.167 -0.1971 -0.2861  0.0305
  108loPI   C1A 1719   4.955   0.971  10.721 -0.1427  0.3488  0.1144
  108loPI   C2A 1720   4.945   0.961  10.289 -0.1421 -0.2484  0.0557
  108loPI   C3A 1721   4.851   0.927   9.795 -0.0526 -0.0283 -0.1035
  108loPI   C4A 1722   4.901   0.799   9.331 -0.0939 -0.2607  0.0355
  108loPI   C5A 1723   4.889   0.550   8.967 -0.1746  0.1285  0.2247
  108loPI   C6A 1724   4.544   0.222   8.815 -0.0071 -0.2395  0.2169
  108loPI   C1B 1725   4.776   0.450  10.759 -0.2553 -0.1603 -0.0246
  108loPI   C2B 1726   4.765   0.452  10.252 -0.0282 -0.2909 -0.2450
  108loPI   C3B 1727   4.661   0.280   9.834  0.0507 -0.0059 -0.2926
  108loPI   C4B 1728   4.675   0.300   9.420  0.2862 -0.0985  0.0390
  109loPI    C1 1729  16.197   2.312  11.330 -0.0576  0.0960  0.0765
  109loPI    C2 1730  16.248   2.533  11.660  0.0623 -0.1097  0.1983
  109loPI    C3 1731  16.173   2.141  11.691  0.0485 -0.1258 -0.0195
  109loPI   PO4 1732  16.242   2.367  11.126 -0.0947 -0.1169  0.2944
  109loPI   GL1 1733  16.235   2.059  10.828  0.0677 -0.1751 -0.0195
  109loPI   GL2 1734  16.518   1.849  10.773 -0.0716  0.0277  0.2794
  109loPI   C1A 1735  16.058   2.247  10.512  0.0457  0.0606 -0.1428
  109loPI   C2A 1736  16.001   2.213  10.103  0.1681  0.0559  0.0717
  109loPI   C3A 1737  15.981   2.146   9.763  0.0615  0.0912 -0.0738
  109loPI   C4A 1738  15.928   2.206   9.331  0.1251  0.3713  0.2713
  109loPI   C5A 1739  15.843   2.339   8.928 -0.0507  0.3531 -0.0623
  109loPI   C6A 1740  16.048   2.467   8.643  0.0944  0.3820 -0.2097
  109loPI   C1B 1741  16.432   1.836  10.359 -0.1366 -0.2231  0.2089
  109loPI   C2B 1742  16.397   1.860   9.869 -0.1152 -0.0973  0.0499
  109loPI   C3B 1743  16.290   1.852   9.399  0.1358  0.3241 -0.1355
  109loPI   C4B 1744  16.315   1.927   8.961  0.1114  0.0829 -0.0233
  110loPI    C1 1745   2.414  13.802  11.485  0.1322  0.0107 -0.0590
  110loPI    C2 1746   2.222  13.807  11.835  0.0039 -0.0588 -0.1275
  110loPI    C3 1747   2.583  13.639  11.808  0.0340 -0.0127 -0.0190
  110loPI   PO4 1748   2.204  13.742  11.356  0.0930 -0.2038  0.2006
  110loPI   GL1 1749   1.860  13.633  10.958 -0.0845  0.1698 -0.0620
  110loPI   GL2 1750   2.085  13.365  11.054  0.1320  0.1862 -0.0375
  110loPI   C1A 1751   1.681  13.832  10.588  0.2684  0.2034  0.0909
  110loPI   C2A 1752   1.659  13.770  10.159  0.2388  0.2990 -0.0429
  110loPI   C3A 1753   1.676  13.696   9.711  0.1388  0.0723 -0.3136
  110loPI   C4A 1754   1.721  13.730   9.288 -0.0560  0.1703  0.0711
  110loPI   C5A 1755   1.891  13.950   8.966  0.1474 -0.2013 -0.0888
  110loPI   C6A 1756   2.263  14.143   8.751  0.1870  0.0135 -0.0301
  110loPI   C1B 1757   1.920  13.329  10.566 -0.0959  0.0067 -0.0724
  110loPI   C2B 1758   2.021  13.317  10.095 -0.1933  0.1311  0.1615
  110loPI   C3B 1759   2.026  13.349   9.724 -0.0992 -0.0336 -0.1515
  110loPI   C4B 1760   1.981  13.261   9.361 -0.0390  0.0507  0.0112
  111loPI    C1 1761  15.262   4.114  11.563 -0.0278 -0.2713 -0.0497
  111loPI    C2 1762  14.965   4.118  11.830 -0.1284  0.0172 -0.1628
  111loPI    C3 1763  15.334   4.016  11.944 -0.1780  0.0998  0.0780
  111loPI   PO4 1764  15.223   4.013  11.346 -0.3649  0.1582  0.1327
  111loPI   GL1 1765  15.209   4.153  10.943 -0.1100  0.1384 -0.1086
  111loPI   GL2 1766  14.843   4.202  10.797 -0.3352  0.0996 -0.0407
  111loPI   C1A 1767  15.135   3.875  10.585 -0.2048 -0.0426 -0.0155
  111loPI   C2A 1768  15.064   3.825  10.274 -0.2002 -0.0011 -0.1352
  111loPI   C3A 1769  15.075   3.876   9.974 -0.0903 -0.0211  0.1087
  111loPI   C4A 1770  15.129   3.943   9.577 -0.1276 -0.0622  0.2794
  111loPI   C5A 1771  15.063   3.955   9.075 -0.2770 -0.1475 -0.1037
  111loPI   C6A 1772  15.417   3.848   8.725 -0.2240 -0.1435  0.3278
  111loPI   C1B 1773  14.747   4.274  10.361 -0.0538  0.2179  0.1891
  111loPI   C2B 1774  14.772   4.246   9.815 -0.1096 -0.1183  0.1272
  111loPI   C3B 1775  14.738   4.211   9.333  0.0363 -0.3708  0.0080
  111loPI   C4B 1776  14.615   4.301   8.864  0.2494 -0.2587 -0.3005
  112loPI    C1 1777   0.071  14.356  11.783 -0.1889  0.0093 -0.0494
  112loPI    C2 1778  -0.252  14.268  12.000 -0.1084  0.0806  0.1009
  112loPI    C3 1779  -0.020  14.576  12.104  0.1524 -0.1281  0.1465
  112loPI   PO4 1780   0.097  14.105  11.598  0.0554 -0.1904 -0.0574
  112loPI   GL1 1781   0.053  14.010  11.150 -0.0421  0.0628  0.2208
  112loPI   GL2 1782   0.415  13.970  11.193 -0.0777 -0.1214  0.1180
  112loPI   C1A 1783   0.054  14.336  10.740 -0.0854 -0.1527 -0.2480
  112loPI   C2A 1784  -0.156  14.341  10.290 -0.0096 -0.3715  0.0554
  112loPI   C3A 1785  -0.095  14.286   9.885 -0.1180 -0.1734 -0.1302
  112loPI   C4A 1786  -0.110  14.219   9.476 -0.2982  0.0337  0.3543
  112loPI   C5A 1787   0.269  14.254   9.147  0.0891  0.0375  0.1168
  112loPI   C6A 1788   0.703  14.421   9.119 -0.0554  0.3062  0.1657
  112loPI   C1B 1789   0.407  13.981  10.761 -0.0327 -0.0630  0.2812
  112loPI   C2B 1790   0.242  13.966  10.381 -0.1334 -0.0643 -0.1942
  112loPI   C3B 1791   0.240  13.811   9.969 -0.1957  0.1824  0.0340
  112loPI   C4B 1792   0.233  13.828   9.520  0.1108  0.0927  0.1269
  113loPI    C1 1793  13.622  14.409  11.751 -0.0885 -0.0481  0.0382
  113loPI    C2 1794  13.885  14.589  11.993 -0.0692  0.0061 -0.0227
  113loPI    C3 1795  13.912  14.195  11.925 -0.0793 -0.0106  0.0689
  113loPI   PO4 1796  13.613  14.551  11.553  0.1491 -0.4065 -0.0562
  113loPI   GL1 1797  13.720  14.661  11.212  0.2177 -0.0229  0.2473
  113loPI   GL2 1798  13.828  14.863  11.022  0.0143  0.0453  0.0189
  113loPI   C1A 1799  13.681  14.371  10.839 -0.0801  0.4114  0.0208
  113loPI   C2A 1800  13.595  14.279  10.443 -0.0470 -0.1575  0.2510
  113loPI   C3A 1801  13.578  14.201  10.073 -0.0565  0.2280 -0.2131
  113loPI   C4A 1802  13.562  14.268   9.652 -0.0892 -0.2319  0.2352
  113loPI   C5A 1803  13.396  14.204   9.347  0.1574  0.1351 -0.3560
  113loPI   C6A 1804  13.279  14.286   8.891  0.1922 -0.0009  0.1798
  113loPI   C1B 1805  13.752  14.791  10.619  0.0536 -0.1773 -0.1731
  113loPI   C2B 1806  13.725  14.736  10.190  0.0039 -0.1537 -0.1328
  113loPI   C3B 1807  13.710  14.773   9.796  0.2380  0.2549 -0.0362
  113loPI   C4B 1808  13.592  14.777   9.393 -0.1355 -0.2525  0.0017
  114loPI    C1 1809   9.069   4.744  11.865  0.0884 -0.0311 -0.1532
  114loPI    C2 1810   8.691   4.733  11.994  0.1527 -0.3616  0.0157
  114loPI    C3 1811   8.993   4.723  12.257  0.2815  0.0543 -0.1097
  114loPI   PO4 1812   9.182   4.913  11.718  0.0445 -0.1004 -0.1252
  114loPI   GL1 1813   9.344   4.932  11.342  0.0760  0.0450 -0.0341
  114loPI   GL2 1814   9.211   4.647  11.278  0.0717  0.1720  0.1473
  114loPI   C1A 1815   9.412   5.038  10.950 -0.0102  0.2245  0.2977
  114loPI   C2A 1816   9.399   5.055  10.566  0.5040  0.0178 -0.0622
  114loPI   C3A 1817   9.364   5.080  10.052  0.4225 -0.0828 -0.1218
  114loPI   C4A 1818   9.427   5.122   9.617 -0.2057  0.1801 -0.1518
  114loPI   C5A 1819   9.266   4.999   9.165 -0.0563 -0.0007  0.1462
  114loPI   C6A 1820   9.350   4.862   8.704 -0.0770  0.2245 -0.3399
  114loPI   C1B 1821   9.205   4.501  10.898 -0.2948 -0.0773  0.3315
  114loPI   C2B 1822   9.240   4.587  10.564 -0.0586 -0.2270 -0.2374
  114loPI   C3B 1823   9.273   4.553  10.098 -0.0058 -0.1605 -0.3775
  114loPI   C4B 1824   9.290   4.622   9.679 -0.0007 -0.0259 -0.3984
  115loPI    C1 1825   3.790  15.383  11.619  0.1508 -0.1636  0.1203
  115loPI    C2 1826   3.996  15.292  11.949 -0.0886 -0.2821  0.2396
  115loPI    C3 1827   3.651  15.492  11.977 -0.1084 -0.2894  0.0608
  115loPI   PO4 1828   3.940  15.257  11.452  0.1107 -0.0447 -0.0611
  115loPI   GL1 1829   3.995  15.239  11.063  0.3807 -0.1992 -0.2290
  115loPI   GL2 1830   3.814  14.911  11.129  0.1746 -0.0988  0.2856
  115loPI   C1A 1831   4.145  15.194  10.741  0.0056  0.0701 -0.0090
  115loPI   C2A 1832   3.957  15.187  10.380  0.2497  0.2924  0.0529
  115loPI   C3A 1833   3.964  15.260   9.929  0.0835  0.0056  0.0359
  115loPI   C4A 1834   3.827  15.314   9.473  0.2811 -0.1069 -0.0481
  115loPI   C5A 1835   3.685  15.328   9.120 -0.1807  0.1525  0.1918
  115loPI   C6A 1836   3.481  15.436   8.704  0.1166 -0.2400 -0.2870
  115loPI   C1B 1837   3.864  14.819  10.783 -0.1847  0.1570  0.1115
  115loPI   C2B 1838   3.776  14.653  10.322  0.1550  0.2222  0.1884
  115loPI   C3B 1839   3.687  14.611   9.900 -0.2905 -0.3363  0.0406
  115loPI   C4B 1840   3.585  14.795   9.477  0.1338  0.0706 -0.0128
  116loPI    C1 1841   5.382   9.630  11.367 -0.2602  0.1061  0.1294
  116loPI    C2 1842   5.584   9.684  11.708  0.0188  0.2351 -0.0529
  116loPI    C3 1843   5.394   9.992  11.537  0.2102  0.2640 -0.2181
  116loPI   PO4 1844   5.546   9.500  11.229 -0.0269  0.2411 -0.2538
  116loPI   GL1 1845   5.573   9.657  10.859 -0.0774 -0.2471  0.1612
  116loPI   GL2 1846   5.209   9.513  10.781  0.2183  0.1805 -0.2017
  116loPI   C1A 1847   5.553   9.640  10.392  0.1050 -0.0509 -0.6108
  116loPI   C2A 1848   5.500   9.495  10.055 -0.1637 -0.2606 -0.1949
  116loPI   C3A 1849   5.480   9.616   9.653 -0.1327 -0.0529  0.1063
  116loPI   C4A 1850   5.577   9.724   9.255  0.1235  0.2399  0.0505
  116loPI   C5A 1851   5.221   9.556   8.966  0.1968 -0.1197  0.0339
  116loPI   C6A 1852   5.210   9.548   8.552  0.0118  0.0618 -0.1608
  116loPI   C1B 1853   5.142   9.376  10.422  0.3268 -0.0871 -0.1264
  116loPI   C2B 1854   5.044   9.421  10.043 -0.2081  0.0821 -0.1537
  116loPI   C3B 1855   4.970   9.453   9.609  0.1962  0.0271 -0.0956
  116loPI   C4B 1856   4.805   9.584   9.224 -0.1701 -0.1703  0.1108
  117loPI    C1 1857  16.967   6.538  11.921 -0.0008 -0.1601 -0.0959
  117loPI    C2 1858  17.292   6.463  12.141  0.0157  0.0710 -0.0392
  117loPI    C3 1859  16.949   6.564  12.320 -0.0112  0.1096 -0.1125
  117loPI   PO4 1860  17.111   6.595  11.609 -0.0239 -0.0787 -0.0781
  117loPI   GL1 1861  17.092   6.541  11.156 -0.0148  0.0446  0.3068
  117loPI   GL2 1862  16.820   6.779  11.218  0.3055 -0.1694  0.0334
  117loPI   C1A 1863  17.266   6.484  10.773  0.0548  0.1485 -0.1786
  117loPI   C2A 1864  17.302   6.400  10.422  0.0223 -0.0486  0.0556
  117loPI   C3A 1865  17.330   6.336   9.995 -0.2523 -0.1466 -0.0869
  117loPI   C4A 1866  17.299   6.273   9.584 -0.2765  0.1167  0.2245
  117loPI   C5A 1867  17.199   6.203   9.178  0.0609 -0.3194  0.1929
  117loPI   C6A 1868  17.177   6.078   8.746  0.2256  0.2075 -0.1070
  117loPI   C1B 1869  16.965   6.824  10.784 -0.3026  0.1164  0.0353
  117loPI   C2B 1870  16.944   6.820  10.340 -0.2778 -0.2332 -0.0111
  117loPI   C3B 1871  16.955   6.702   9.886 -0.0245 -0.0570 -0.3118
  117loPI   C4B 1872  16.877   6.626   9.427  0.2011 -0.3177  0.1564
  118loPI    C1 1873  11.104  14.498  11.439 -0.5838  0.0129  0.0840
  118loPI    C2 1874  11.310  14.264  11.690 -0.1710 -0.0468 -0.2990
  118loPI    C3 1875  11.379  14.658  11.682 -0.2841 -0.0252 -0.2232
  118loPI   PO4 1876  11.080  14.279  11.249  0.0192 -0.0086  0.0843
  118loPI   GL1 1877  11.117  14.187  10.828 -0.1079 -0.1363 -0.0972
  118loPI   GL2 1878  11.044  13.941  10.852 -0.0496  0.1008  0.1462
  118loPI   C1A 1879  11.071  14.150  10.359 -0.2022 -0.1100  0.0411
  118loPI   C2A 1880  11.101  14.168   9.917 -0.4205  0.3778 -0.1998
  118loPI   C3A 1881  11.079  14.089   9.517  0.1917 -0.1431  0.0562
  118loPI   C4A 1882  11.148  14.111   9.072 -0.0881  0.1824 -0.2064
  118loPI   C5A 1883  11.032  14.185   8.657  0.0136  0.0411  0.0817
  118loPI   C6A 1884  10.729  14.187   8.426 -0.1038  0.2384  0.2852
  118loPI   C1B 1885  10.897  13.665  10.451 -0.3037 -0.1647 -0.0040
  118loPI   C2B 1886  10.970  13.650   9.968 -0.3197 -0.3006 -0.1684
  118loPI   C3B 1887  10.954  13.630   9.575 -0.3436  0.0672 -0.0860
  118loPI   C4B 1888  10.933  13.591   9.239  0.0113  0.0956 -0.1583
  119loPI    C1 1889   9.638  15.046  11.901 -0.1316  0.2755  0.2067
  119loPI    C2 1890   9.916  14.875  12.132 -0.1123  0.0221  0.0008
  119loPI    C3 1891  10.002  15.209  11.929  0.0245 -0.0243 -0.0185
  119loPI   PO4 1892   9.667  14.781  11.678 -0.2735  0.0146  0.0102
  119loPI   GL1 1893   9.620  14.668  11.248 -0.0117  0.0588 -0.0990
  119loPI   GL2 1894   9.861  14.759  11.151 -0.0157 -0.4915  0.0078
  119loPI   C1A 1895   9.494  14.712  10.777  0.0941  0.2656 -0.0979
  119loPI   C2A 1896   9.442  14.674  10.373  0.0833 -0.0436  0.1822
  119loPI   C3A 1897   9.494  14.607   9.952  0.1093  0.1728 -0.2770
  119loPI   C4A 1898   9.423  14.610   9.519  0.1154 -0.2556  0.2989
  119loPI   C5A 1899   9.344  14.403   9.053  0.0645 -0.0018 -0.3471
  119loPI   C6A 1900   9.148  14.044   8.875 -0.0428  0.1950 -0.2411
  119loPI   C1B 1901   9.915  14.872  10.808 -0.2555  0.0522 -0.1568
  119loPI   C2B 1902   9.942  14.754  10.383  0.0386  0.0980  0.0555
  119loPI   C3B 1903   9.961  14.762   9.913 -0.0354  0.0155  0.0425
  119loPI   C4B 1904   9.942  14.715   9.457 -0.1841  0.0101 -0.3734
  120loPI    C1 1905   7.369   1.380  11.928  0.0093 -0.3094 -0.0060
  120loPI    C2 1906   7.593   1.068  12.040  0.2390 -0.1537 -0.0226
  120loPI    C3 1907   7.348   1.244  12.303  0.1250 -0.3318 -0.0073
  120loPI   PO4 1908   7.487   1.599  11.766  0.2163  0.1368  0.1797
  120loPI   GL1 1909   7.480   1.471  11.349  0.0603  0.0495  0.0533
  120loPI   GL2 1910   7.494   1.762  11.155  0.1222  0.1151 -0.1893
  120loPI   C1A 1911   7.369   1.355  10.863  0.2255  0.4052  0.1756
  120loPI   C2A 1912   7.442   1.376  10.386  0.0145  0.0016 -0.2358
  120loPI   C3A 1913   7.351   1.438   9.916 -0.0406 -0.1153 -0.0795
  120loPI   C4A 1914   7.310   1.472   9.477  0.0434  0.0952 -0.2481
  120loPI   C5A 1915   7.594   1.405   9.128 -0.3431  0.1322 -0.1053
  120loPI   C6A 1916   7.681   1.055   9.026  0.1314  0.3612  0.0501
  120loPI   C1B 1917   7.502   1.836  10.736  0.0281 -0.2056  0.4063
  120loPI   C2B 1918   7.517   1.958  10.261  0.1799  0.1518 -0.0214
  120loPI   C3B 1919   7.619   1.912   9.814  0.2390  0.1281  0.1728
  120loPI   C4B 1920   7.465   1.997   9.412  0.1117  0.1954 -0.1260
  121loPI    C1 1921   6.765   4.913  11.688  0.0666 -0.0566 -0.0511
  121loPI    C2 1922   6.612   4.696  11.987 -0.0006 -0.0967 -0.1142
  121loPI    C3 1923   6.446   5.046  11.888  0.0730 -0.0433 -0.0497
  121loPI   PO4 1924   6.777   4.743  11.498  0.3079  0.2564 -0.0575
  121loPI   GL1 1925   6.811   4.547  11.143 -0.0377 -0.2541  0.0528
  121loPI   GL2 1926   6.550   4.532  11.068  0.2807  0.3271  0.3547
  121loPI   C1A 1927   7.010   4.571  10.828 -0.1413  0.1194 -0.0783
  121loPI   C2A 1928   6.977   4.633  10.480 -0.1219 -0.1008 -0.0213
  121loPI   C3A 1929   6.991   4.750   9.980  0.1448  0.0251  0.2429
  121loPI   C4A 1930   7.066   4.828   9.523 -0.1463  0.1440 -0.3415
  121loPI   C5A 1931   7.420   4.919   9.274 -0.0928 -0.1646 -0.1010
  121loPI   C6A 1932   7.787   5.110   9.344  0.1011 -0.2237 -0.0163
  121loPI   C1B 1933   6.522   4.504  10.655  0.0763 -0.2837  0.1465
  121loPI   C2B 1934   6.555   4.504  10.202 -0.1996  0.0513 -0.0243
  121loPI   C3B 1935   6.546   4.706   9.760  0.1107  0.0811 -0.0707
  121loPI   C4B 1936   6.437   4.605   9.352  0.0885 -0.2755  0.3946
  122loPI    C1 1937   9.017   4.248  11.889  0.1076  0.0841 -0.0632
  122loPI    C2 1938   8.620   4.198  11.875  0.1577 -0.3602 -0.0332
  122loPI    C3 1939   8.798   4.291  12.221  0.0520  0.1592 -0.1090
  122loPI   PO4 1940   9.026   4.331  11.600 -0.1514 -0.3574 -0.0306
  122loPI   GL1 1941   8.711   4.612  11.457 -0.0625 -0.1645 -0.4311
  122loPI   GL2 1942   8.786   4.920  11.419  0.3010  0.0564  0.1726
  122loPI   C1A 1943   8.726   4.417  11.085 -0.0214  0.1742 -0.1226
  122loPI   C2A 1944   8.749   4.417  10.656  0.0408  0.2793  0.4104
  122loPI   C3A 1945   8.731   4.471  10.293 -0.0336 -0.0029 -0.3511
  122loPI   C4A 1946   8.858   4.406   9.893 -0.1026  0.0075 -0.1811
  122loPI   C5A 1947   8.714   4.515   9.517 -0.1931  0.1118 -0.2014
  122loPI   C6A 1948   8.486   4.470   9.123  0.2338 -0.0170  0.2826
  122loPI   C1B 1949   8.933   4.895  10.944  0.0551  0.2791  0.1513
  122loPI   C2B 1950   8.920   4.939  10.400  0.4331 -0.0604 -0.0484
  122loPI   C3B 1951   8.896   4.951   9.987 -0.1392 -0.0643 -0.0450
  122loPI   C4B 1952   8.958   4.960   9.608  0.0604  0.1920  0.3614
  123loPI    C1 1953   3.498   7.419  11.656  0.0188  0.0220 -0.0634
  123loPI    C2 1954   3.877   7.406  11.530  0.0318 -0.2844 -0.0027
  123loPI    C3 1955   3.794   7.533  11.900  0.0491  0.0284 -0.1031
  123loPI   PO4 1956   3.439   7.177  11.520  0.1682  0.2186 -0.2091
  123loPI   GL1 1957   3.557   7.068  11.127 -0.3516 -0.2690 -0.3093
  123loPI   GL2 1958   3.250   7.396  11.146  0.1662 -0.2470  0.2142
  123loPI   C1A 1959   3.580   7.147  10.679  0.2256 -0.0032 -0.2787
  123loPI   C2A 1960   3.475   7.149  10.211 -0.1439  0.2394 -0.2143
  123loPI   C3A 1961   3.458   7.158   9.765  0.1434 -0.1663  0.0452
  123loPI   C4A 1962   3.422   6.991   9.270 -0.3126 -0.0000  0.1767
  123loPI   C5A 1963   3.258   6.807   8.898  0.0382 -0.0121 -0.0269
  123loPI   C6A 1964   3.107   6.312   8.911  0.1615  0.4042 -0.0131
  123loPI   C1B 1965   3.147   7.489  10.752 -0.0942 -0.0687 -0.2003
  123loPI   C2B 1966   3.115   7.470  10.347 -0.3020 -0.1690 -0.0824
  123loPI   C3B 1967   3.110   7.502   9.892 -0.0805 -0.0654 -0.3015
  123loPI   C4B 1968   3.040   7.380   9.516 -0.0525  0.1085 -0.0391
  124loPI    C1 1969  10.759  13.152  11.551 -0.0506 -0.0792 -0.3374
  124loPI    C2 1970  10.709  13.546  11.604 -0.0156 -0.1022 -0.1271
  124loPI    C3 1971  11.056  13.373  11.704 -0.0925 -0.2159 -0.0538
  124loPI   PO4 1972  10.658  13.101  11.306  0.0641 -0.0250 -0.1380
  124loPI   GL1 1973  10.433  13.120  10.919 -0.0110  0.1018  0.0614
  124loPI   GL2 1974  10.635  12.844  10.829  0.0194 -0.1455  0.0421
  124loPI   C1A 1975  10.240  13.084  10.469 -0.0473 -0.1077  0.1142
  124loPI   C2A 1976  10.210  13.043  10.033  0.0113 -0.0765  0.1435
  124loPI   C3A 1977  10.267  12.954   9.592 -0.2782 -0.1890 -0.3320
  124loPI   C4A 1978  10.240  12.927   9.193  0.1271 -0.0217  0.2720
  124loPI   C5A 1979  10.128  12.851   8.753  0.0183  0.3071  0.0601
  124loPI   C6A 1980  10.095  12.740   8.288 -0.0727 -0.1549 -0.2590
  124loPI   C1B 1981  10.549  12.637  10.443 -0.2319 -0.3501  0.0703
  124loPI   C2B 1982  10.633  12.706  10.027  0.0669 -0.1908  0.0706
  124loPI   C3B 1983  10.662  12.495   9.555  0.4113  0.1186  0.0608
  124loPI   C4B 1984  10.684  12.531   9.113  0.2491 -0.2296  0.3037
  125loPI    C1 1985   4.795  15.681  11.713  0.0647 -0.0441  0.1204
  125loPI    C2 1986   5.174  15.653  11.839  0.1636  0.2214 -0.1086
  125loPI    C3 1987   4.893  15.415  11.995  0.4188  0.0397  0.0810
  125loPI   PO4 1988   4.733  15.655  11.403 -0.3719 -0.4135 -0.1795
  125loPI   GL1 1989   4.508  15.765  11.038 -0.0372  0.4131  0.1488
  125loPI   GL2 1990   4.272  16.040  11.067 -0.1166 -0.0468 -0.2137
  125loPI   C1A 1991   4.654  15.853  10.661  0.1542 -0.0561 -0.2109
  125loPI   C2A 1992   4.633  15.819  10.153 -0.2546  0.0081 -0.0861
  125loPI   C3A 1993   4.521  15.865   9.708  0.0472 -0.0706 -0.0512
  125loPI   C4A 1994   4.363  15.939   9.340 -0.1341 -0.2092  0.0286
  125loPI   C5A 1995   4.228  15.882   8.910 -0.2026  0.1026  0.3591
  125loPI   C6A 1996   3.855  15.722   8.799 -0.1799 -0.0240  0.2496
  125loPI   C1B 1997   4.261  16.184  10.669  0.2729  0.1673 -0.3049
  125loPI   C2B 1998   4.349  16.211  10.296  0.0075 -0.2108  0.2029
  125loPI   C3B 1999   4.261  16.228   9.942 -0.1545  0.0026  0.1847
  125loPI   C4B 2000   4.154  16.336   9.541 -0.1710 -0.2328  0.1012
  126loPI    C1 2001  14.271   0.229  11.541  0.1851 -0.4158 -0.0558
  126loPI    C2 2002  14.381  -0.099  11.742  0.0377 -0.1650  0.4497
  126loPI    C3 2003  14.325   0.246  11.937  0.0570  0.1323 -0.0542
  126loPI   PO4 2004  14.369   0.235  11.340  0.3426 -0.2187  0.0378
  126loPI   GL1 2005  14.379   0.153  10.954  0.2515  0.2092  0.1020
  126loPI   GL2 2006  14.122   0.326  10.870 -0.0141  0.1639  0.1028
  126loPI   C1A 2007  14.515   0.029  10.516  0.1346  0.0992 -0.0731
  126loPI   C2A 2008  14.529  -0.023  10.118 -0.0813 -0.1021  0.0461
  126loPI   C3A 2009  14.426  -0.179   9.676 -0.1553 -0.0891 -0.2688
  126loPI   C4A 2010  14.422  -0.138   9.203 -0.1625 -0.0720  0.2021
  126loPI   C5A 2011  14.416   0.024   8.756 -0.0715  0.0731 -0.2530
  126loPI   C6A 2012  14.220   0.048   8.341  0.1084 -0.2908 -0.0466
  126loPI   C1B 2013  14.089   0.387  10.484  0.0724  0.2886 -0.0570
  126loPI   C2B 2014  14.134   0.301   9.998  0.0300  0.1425 -0.0095
  126loPI   C3B 2015  14.143   0.251   9.561  0.3363  0.0559  0.0018
  126loPI   C4B 2016  14.027   0.196   9.082  0.0500 -0.2499  0.0815
  127loPI    C1 2017  16.130   1.689  11.462 -0.0701  0.2681  0.0983
  127loPI    C2 2018  15.804   1.459  11.487  0.1174 -0.0207 -0.0603
  127loPI    C3 2019  15.909   1.692  11.795 -0.1660 -0.0219  0.0395
  127loPI   PO4 2020  16.008   1.803  11.203 -0.1905  0.1373 -0.3356
  127loPI   GL1 2021  15.855   1.726  10.854 -0.2835  0.0368 -0.0992
  127loPI   GL2 2022  15.661   2.019  10.786  0.1517 -0.0430 -0.4178
  127loPI   C1A 2023  15.939   1.732  10.510  0.3076 -0.1287 -0.1174
  127loPI   C2A 2024  15.813   1.739  10.063  0.0545  0.0670  0.1214
  127loPI   C3A 2025  15.769   1.697   9.651  0.1991 -0.3139 -0.2203
  127loPI   C4A 2026  15.870   1.718   9.169 -0.0048 -0.3680  0.1247
  127loPI   C5A 2027  15.858   1.879   8.732  0.1227  0.0583 -0.0798
  127loPI   C6A 2028  15.866   2.017   8.432 -0.3332  0.1325 -0.0608
  127loPI   C1B 2029  15.521   2.106  10.345  0.3181  0.0100 -0.0660
  127loPI   C2B 2030  15.501   2.135   9.906  0.1647  0.2253 -0.0658
  127loPI   C3B 2031  15.453   2.076   9.423 -0.1325 -0.0050  0.2615
  127loPI   C4B 2032  15.451   1.960   8.943  0.1376 -0.0591  0.3179
  128loPI    C1 2033   8.477  11.036  11.735 -0.0786  0.0675  0.0379
  128loPI    C2 2034   8.117  11.137  11.876 -0.1334 -0.0139 -0.0425
  128loPI    C3 2035   8.405  11.413  11.847 -0.1564  0.0283  0.1205
  128loPI   PO4 2036   8.462  10.887  11.457 -0.2345 -0.3591  0.1135
  128loPI   GL1 2037   8.653  10.806  11.052  0.0585 -0.0055  0.2046
  128loPI   GL2 2038   8.711  10.978  10.859 -0.0664  0.1016 -0.1873
  128loPI   C1A 2039   8.309  10.769  10.645  0.0419 -0.1030  0.3976
  128loPI   C2A 2040   8.199  10.662  10.277 -0.3001 -0.0292  0.2257
  128loPI   C3A 2041   8.191  10.697   9.807 -0.0137  0.1562 -0.2197
  128loPI   C4A 2042   8.158  10.688   9.336  0.0679 -0.1339 -0.1678
  128loPI   C5A 2043   8.116  10.598   8.972 -0.2953  0.0161 -0.3761
  128loPI   C6A 2044   8.270  10.533   8.484  0.3324  0.3135  0.1838
  128loPI   C1B 2045   8.751  10.816  10.461  0.1884 -0.0885  0.1939
  128loPI   C2B 2046   9.062  10.912  10.142 -0.1602 -0.0786 -0.1352
  128loPI   C3B 2047   9.216  10.876   9.761 -0.1635  0.2243 -0.1223
  128loPI   C4B 2048   9.236  10.858   9.348 -0.1513 -0.5341  0.2549
  129loPI    C1 2049   5.639   8.686  11.481 -0.0779  0.0661 -0.1091
  129loPI    C2 2050   5.915   8.759  11.762  0.0053 -0.0408 -0.1622
  129loPI    C3 2051   5.526   8.775  11.854  0.0308  0.0107 -0.0624
  129loPI   PO4 2052   5.586   8.767  11.274  0.1676 -0.2358 -0.2171
  129loPI   GL1 2053   5.734   8.725  10.740  0.0713  0.1066 -0.3605
  129loPI   GL2 2054   5.998   8.723  10.891  0.1447  0.0192  0.0190
  129loPI   C1A 2055   5.729   8.604  10.299  0.1375 -0.0442 -0.2953
  129loPI   C2A 2056   5.725   8.688   9.861  0.2338  0.2545  0.1145
  129loPI   C3A 2057   5.693   8.655   9.399 -0.1183 -0.3518  0.1117
  129loPI   C4A 2058   5.641   8.909   9.086  0.0615  0.2247 -0.0891
  129loPI   C5A 2059   5.535   9.213   8.865  0.1394 -0.1361  0.3764
  129loPI   C6A 2060   5.711   9.595   8.727 -0.0786 -0.2303  0.1752
  129loPI   C1B 2061   6.318   8.821  10.531 -0.0002 -0.1082  0.2177
  129loPI   C2B 2062   6.220   8.739  10.180 -0.0540 -0.2094  0.2084
  129loPI   C3B 2063   6.187   8.844   9.760  0.0890  0.0101  0.1888
  129loPI   C4B 2064   6.142   8.868   9.274 -0.0763 -0.0356 -0.1575
  130loPI    C1 2065  15.923   6.670  12.041 -0.1649 -0.0399  0.2005
  130loPI    C2 2066  16.131   6.486  12.329 -0.0790 -0.1297  0.0820
  130loPI    C3 2067  15.740   6.557  12.378 -0.0794 -0.2055  0.1922
  130loPI   PO4 2068  16.115   6.528  11.791 -0.0974  0.3300  0.1807
  130loPI   GL1 2069  16.062   6.537  11.262  0.0880  0.0676  0.1794
  130loPI   GL2 2070  16.325   6.404  11.106 -0.1601 -0.0711  0.0122
  130loPI   C1A 2071  15.892   6.513  10.861 -0.1897  0.0441  0.0469
  130loPI   C2A 2072  15.999   6.517  10.503 -0.1840  0.2194 -0.2818
  130loPI   C3A 2073  15.943   6.628  10.205 -0.0490  0.2487  0.2053
  130loPI   C4A 2074  15.926   6.554   9.774  0.0197  0.2428  0.2416
  130loPI   C5A 2075  15.886   6.585   9.252  0.0927  0.2394  0.1022
  130loPI   C6A 2076  15.825   6.213   8.984 -0.0957  0.2291  0.1478
  130loPI   C1B 2077  16.460   6.707  10.746 -0.0927  0.0119  0.0866
  130loPI   C2B 2078  16.455   6.706  10.334 -0.0546  0.0733  0.4065
  130loPI   C3B 2079  16.425   6.621   9.922 -0.0020 -0.2161 -0.4264
  130loPI   C4B 2080  16.352   6.568   9.539  0.3301 -0.1383  0.1603
  131loPI    C1 2081   7.949   7.242  11.787 -0.0898  0.0393 -0.1737
  131loPI    C2 2082   7.580   7.248  11.941 -0.0874  0.0638 -0.1689
  131loPI    C3 2083   7.893   7.162  12.175 -0.1157 -0.2025 -0.2255
  131loPI   PO4 2084   7.884   7.263  11.517  0.0421 -0.2767 -0.0594
  131loPI   GL1 2085   7.902   7.324  11.088  0.3463 -0.0336  0.0091
  131loPI   GL2 2086   8.278   7.512  10.949  0.0484  0.1170  0.3381
  131loPI   C1A 2087   7.736   7.385  10.681 -0.1062  0.0068  0.2697
  131loPI   C2A 2088   7.592   7.406  10.184 -0.2621  0.3166  0.0071
  131loPI   C3A 2089   7.562   7.328   9.680  0.0847 -0.1147 -0.1337
  131loPI   C4A 2090   7.719   7.222   9.312  0.1405 -0.2907  0.2394
  131loPI   C5A 2091   7.609   6.846   9.042  0.0831 -0.2748  0.2317
  131loPI   C6A 2092   7.820   6.678   8.671  0.1404 -0.0024  0.0781
  131loPI   C1B 2093   8.249   7.463  10.479 -0.2544 -0.0380  0.0027
  131loPI   C2B 2094   8.127   7.494  10.040  0.0748  0.1690  0.1312
  131loPI   C3B 2095   8.167   7.479   9.551  0.1125  0.1694  0.1635
  131loPI   C4B 2096   8.317   7.389   9.234  0.1047  0.0107  0.2026
  132loPI    C1 2097  13.573   7.290  11.564  0.1235  0.2338  0.1267
  132loPI    C2 2098  13.450   7.085  11.885  0.0093  0.3199  0.1385
  132loPI    C3 2099  13.721   6.925  11.637  0.0467  0.2248  0.2397
  132loPI   PO4 2100  13.413   7.372  11.472 -0.2006 -0.4144 -0.1067
  132loPI   GL1 2101  13.310   7.499  11.088  0.0969  0.0880  0.0342
  132loPI   GL2 2102  13.078   7.356  11.143 -0.0790 -0.1908  0.2451
  132loPI   C1A 2103  13.348   7.515  10.702 -0.0039  0.0396  0.1225
  132loPI   C2A 2104  13.269   7.382  10.306 -0.0452 -0.2412  0.0003
  132loPI   C3A 2105  13.319   7.422   9.901 -0.1364  0.1569  0.0665
  132loPI   C4A 2106  13.351   7.343   9.508  0.2468 -0.0303 -0.0732
  132loPI   C5A 2107  13.240   7.402   9.102  0.1577 -0.2189  0.1113
  132loPI   C6A 2108  13.183   7.046   8.812  0.2429 -0.1851  0.1395
  132loPI   C1B 2109  12.810   7.387  10.812  0.1025 -0.1000  0.2522
  132loPI   C2B 2110  12.767   7.190  10.383  0.0019  0.0754  0.0374
  132loPI   C3B 2111  12.812   7.283   9.885 -0.2338 -0.1866 -0.1251
  132loPI   C4B 2112  12.834   7.214   9.444 -0.0179  0.4826 -0.2110
  133loPI    C1 2113   6.934   1.949  11.976  0.0295  0.1125 -0.0227
  133loPI    C2 2114   6.932   2.318  12.131  0.0263  0.2577 -0.3575
  133loPI    C3 2115   6.622   2.073  12.194  0.1086  0.2428  0.0181
  133loPI   PO4 2116   7.052   1.930  11.790 -0.1427  0.0636 -0.0908
  133loPI   GL1 2117   6.998   2.052  11.357  0.3931  0.1338 -0.0828
  133loPI   GL2 2118   7.035   1.846  11.279  0.0098  0.1247  0.1289
  133loPI   C1A 2119   6.965   2.354  11.123 -0.1482 -0.3112  0.1522
  133loPI   C2A 2120   7.157   2.267  10.718 -0.3095  0.0255 -0.1549
  133loPI   C3A 2121   7.180   2.391  10.343 -0.0147  0.0791 -0.2232
  133loPI   C4A 2122   7.219   2.339   9.975  0.1552 -0.3493 -0.0274
  133loPI   C5A 2123   7.142   2.353   9.579  0.1183 -0.0417  0.0961
  133loPI   C6A 2124   7.112   2.236   9.122 -0.1085 -0.3638 -0.1712
  133loPI   C1B 2125   6.983   1.749  10.816 -0.0685  0.3388  0.3403
  133loPI   C2B 2126   7.048   1.921  10.341 -0.2440 -0.3214 -0.4737
  133loPI   C3B 2127   7.002   1.888   9.936 -0.1213  0.1642  0.1597
  133loPI   C4B 2128   6.947   1.908   9.441  0.0235 -0.0257  0.0805
  134loPI    C1 2129   7.316   8.840  11.661 -0.0645  0.0743 -0.0348
  134loPI    C2 2130   7.144   8.834  12.022 -0.0970 -0.1448 -0.0526
  134loPI    C3 2131   7.494   9.021  11.970 -0.1427 -0.0240  0.0684
  134loPI   PO4 2132   7.103   8.767  11.536  0.2652  0.0692  0.1299
  134loPI   GL1 2133   6.989   8.964  11.113 -0.0159  0.0415  0.2211
  134loPI   GL2 2134   7.170   9.257  11.158  0.0318  0.1171  0.2312
  134loPI   C1A 2135   7.273   8.912  10.809 -0.0175 -0.0223 -0.3087
  134loPI   C2A 2136   7.203   9.105  10.486  0.0764 -0.0138 -0.0135
  134loPI   C3A 2137   7.214   9.057   9.980  0.1860 -0.3403 -0.0992
  134loPI   C4A 2138   7.170   9.061   9.526 -0.2863 -0.2267 -0.0857
  134loPI   C5A 2139   7.075   9.011   9.196 -0.0173 -0.0924 -0.2743
  134loPI   C6A 2140   7.002   9.105   8.872  0.2710 -0.2201 -0.1458
  134loPI   C1B 2141   6.917   9.415  10.735 -0.0789  0.1153  0.0077
  134loPI   C2B 2142   6.853   9.453  10.398  0.1807 -0.4504 -0.2454
  134loPI   C3B 2143   6.911   9.417   9.920  0.0831  0.0873  0.2175
  134loPI   C4B 2144   6.781   9.406   9.510 -0.5787 -0.1614 -0.0679
  135loPI    C1 2145  11.150  12.053  11.414 -0.1153  0.1678 -0.0819
  135loPI    C2 2146  10.983  12.049  11.777 -0.0449 -0.0695 -0.0507
  135loPI    C3 2147  11.348  12.204  11.727 -0.0005 -0.1552  0.0049
  135loPI   PO4 2148  11.087  12.208  11.271  0.1616  0.0020  0.0522
  135loPI   GL1 2149  10.990  12.263  10.853 -0.0846  0.3231 -0.4677
  135loPI   GL2 2150  10.980  11.950  10.818 -0.0906  0.0526 -0.0451
  135loPI   C1A 2151  10.938  12.339  10.380 -0.2396 -0.1388 -0.0903
  135loPI   C2A 2152  11.062  12.373   9.896 -0.1590 -0.2728 -0.0727
  135loPI   C3A 2153  11.047  12.207   9.421  0.0993  0.3268  0.2464
  135loPI   C4A 2154  11.158  12.247   8.983  0.3133 -0.1049 -0.0227
  135loPI   C5A 2155  11.315  12.256   8.594 -0.2206 -0.1957 -0.1056
  135loPI   C6A 2156  11.499  12.647   8.569 -0.3192 -0.0277  0.2776
  135loPI   C1B 2157  10.836  11.854  10.465 -0.0934 -0.0205  0.2923
  135loPI   C2B 2158  10.908  11.913  10.152  0.0455  0.3829 -0.0164
  135loPI   C3B 2159  10.957  11.780   9.668 -0.0898 -0.1542 -0.2179
  135loPI   C4B 2160  10.936  11.766   9.222 -0.1524 -0.2455 -0.1169
  136loPI    C1 2161  14.348  13.704  11.663  0.0519 -0.1385  0.0774
  136loPI    C2 2162  14.287  13.335  11.806 -0.0618 -0.0851  0.1691
  136loPI    C3 2163  14.514  13.594  12.010 -0.2544  0.0034  0.2745
  136loPI   PO4 2164  14.141  13.923  11.567  0.1130  0.0327  0.2289
  136loPI   GL1 2165  14.154  14.170  11.185 -0.0249 -0.0626  0.0692
  136loPI   GL2 2166  13.949  13.913  10.985  0.1423 -0.2139  0.0071
  136loPI   C1A 2167  14.497  14.262  10.872 -0.2297  0.0011 -0.0030
  136loPI   C2A 2168  14.353  14.027  10.457 -0.3246  0.0867 -0.2199
  136loPI   C3A 2169  14.343  14.052   9.949  0.1301  0.1750 -0.3307
  136loPI   C4A 2170  14.309  14.012   9.527 -0.2215  0.2645 -0.0447
  136loPI   C5A 2171  14.349  13.844   9.015  0.0959 -0.1821  0.1504
  136loPI   C6A 2172  14.538  13.959   8.656 -0.1505  0.0422  0.1493
  136loPI   C1B 2173  13.887  13.878  10.529  0.0037  0.3249  0.0974
  136loPI   C2B 2174  13.981  13.814  10.171 -0.1011  0.1003  0.0755
  136loPI   C3B 2175  13.880  13.883   9.721 -0.0039 -0.0292  0.3891
  136loPI   C4B 2176  13.898  13.991   9.227 -0.3293  0.0704 -0.1671
  137loPI    C1 2177   0.205  10.538  11.682 -0.0436  0.0359 -0.1377
  137loPI    C2 2178  -0.060  10.297  11.859  0.0639 -0.0999 -0.1598
  137loPI    C3 2179   0.053  10.636  12.039 -0.0523 -0.0887 -0.1069
  137loPI   PO4 2180   0.279  10.398  11.512 -0.0845  0.1470  0.1094
  137loPI   GL1 2181   0.128  10.306  11.136 -0.0837  0.0398  0.0582
  137loPI   GL2 2182  -0.191  10.126  11.251  0.1685  0.0302  0.0697
  137loPI   C1A 2183   0.103  10.072  10.739 -0.1950  0.0248 -0.0039
  137loPI   C2A 2184   0.113  10.022  10.339 -0.1540  0.1524  0.2238
  137loPI   C3A 2185   0.115  10.055   9.889  0.2078  0.3530  0.0574
  137loPI   C4A 2186   0.064  10.090   9.431 -0.0188  0.1223 -0.2162
  137loPI   C5A 2187  -0.026  10.080   8.954  0.0095  0.2620  0.1986
  137loPI   C6A 2188  -0.434  10.164   8.650  0.1138  0.0633 -0.0975
  137loPI   C1B 2189  -0.339   9.985  10.888 -0.0857  0.0747 -0.0858
  137loPI   C2B 2190  -0.350   9.873  10.480 -0.0979  0.1115 -0.0957
  137loPI   C3B 2191  -0.355   9.900  10.029  0.0977 -0.2356  0.2669
  137loPI   C4B 2192  -0.416   9.971   9.516  0.1250 -0.0936 -0.0248
  138loPI    C1 2193  14.563  13.184  11.402  0.0570 -0.2371  0.1322
  138loPI    C2 2194  14.786  13.319  11.705  0.0087  0.0422  0.0455
  138loPI    C3 2195  14.959  13.127  11.399  0.1266  0.2169  0.0009
  138loPI   PO4 2196  14.428  13.325  11.310  0.5202 -0.1039  0.3467
  138loPI   GL1 2197  14.411  13.699  11.103  0.2680  0.2091  0.1524
  138loPI   GL2 2198  14.192  13.537  10.831  0.2412 -0.1792 -0.0945
  138loPI   C1A 2199  14.616  13.650  10.710  0.1831  0.1470 -0.0853
  138loPI   C2A 2200  14.682  13.619  10.207  0.2217 -0.1352  0.2628
  138loPI   C3A 2201  14.699  13.679   9.791 -0.2605 -0.3530  0.0209
  138loPI   C4A 2202  14.633  13.617   9.396 -0.2575 -0.1045  0.1992
  138loPI   C5A 2203  14.746  13.561   8.952  0.1638 -0.0523  0.1491
  138loPI   C6A 2204  14.528  13.377   8.535  0.2232 -0.0080 -0.2085
  138loPI   C1B 2205  14.266  13.489  10.377  0.1468  0.2865 -0.2916
  138loPI   C2B 2206  14.264  13.455   9.889  0.1828 -0.4070  0.2319
  138loPI   C3B 2207  14.187  13.463   9.491 -0.0421  0.1472  0.0342
  138loPI   C4B 2208  14.149  13.392   8.975 -0.0256  0.2018  0.2006
  139loPI    C1 2209   1.754   6.401  11.647 -0.0790  0.0961 -0.0207
  139loPI    C2 2210   1.597   6.635  11.931 -0.2440 -0.0700  0.0267
  139loPI    C3 2211   1.850   6.341  12.031 -0.3097 -0.1347  0.0035
  139loPI   PO4 2212   1.578   6.308  11.469 -0.0057  0.0472 -0.0716
  139loPI   GL1 2213   1.536   6.133  11.049 -0.0688 -0.0770 -0.3881
  139loPI   GL2 2214   1.555   5.866  11.000  0.2854  0.0169  0.2413
  139loPI   C1A 2215   1.325   6.299  10.688 -0.0960  0.0989 -0.2520
  139loPI   C2A 2216   1.258   6.206  10.289 -0.1621  0.0914  0.1499
  139loPI   C3A 2217   1.275   6.123   9.843 -0.1783  0.1686  0.3903
  139loPI   C4A 2218   1.299   6.164   9.359 -0.2265 -0.0488  0.2091
  139loPI   C5A 2219   1.152   6.279   8.947 -0.1703  0.1219  0.1741
  139loPI   C6A 2220   0.772   6.208   8.670  0.0689  0.0592  0.1703
  139loPI   C1B 2221   1.605   5.789  10.519 -0.2478 -0.0278 -0.0912
  139loPI   C2B 2222   1.567   5.812  10.098  0.1636 -0.0685  0.0231
  139loPI   C3B 2223   1.603   5.812   9.602 -0.3014  0.2011  0.1143
  139loPI   C4B 2224   1.715   5.783   9.168  0.0654  0.2298  0.2413
  140loPI    C1 2225   0.916   0.480  11.869  0.0635  0.0942  0.0435
  140loPI    C2 2226   0.592   0.327  12.047  0.0005  0.0919 -0.0721
  140loPI    C3 2227   0.954   0.179  12.130 -0.0478 -0.0376 -0.0905
  140loPI   PO4 2228   0.859   0.516  11.595 -0.2938 -0.0679  0.3532
  140loPI   GL1 2229   0.927   0.299  11.295 -0.2247 -0.0825 -0.0460
  140loPI   GL2 2230   0.608   0.347  11.078  0.1642  0.0703 -0.2619
  140loPI   C1A 2231   1.095   0.533  10.958  0.0373  0.3199  0.0964
  140loPI   C2A 2232   1.039   0.462  10.520 -0.3375 -0.1153  0.0859
  140loPI   C3A 2233   0.971   0.461  10.039 -0.3151 -0.0905  0.1646
  140loPI   C4A 2234   0.988   0.514   9.670  0.1530  0.1608  0.0945
  140loPI   C5A 2235   0.939   0.404   9.291 -0.2248  0.1668 -0.2100
  140loPI   C6A 2236   0.810   0.380   8.858 -0.0626 -0.0629 -0.1828
  140loPI   C1B 2237   0.552   0.384  10.691 -0.1996  0.1244  0.1291
  140loPI   C2B 2238   0.556   0.352  10.248 -0.0949 -0.0725 -0.1842
  140loPI   C3B 2239   0.532   0.295   9.777 -0.1889  0.1345 -0.0692
  140loPI   C4B 2240   0.412   0.341   9.414  0.1842 -0.0346  0.0990
  141loPI    C1 2241   8.396   3.728  11.838 -0.0720 -0.0197  0.0365
  141loPI    C2 2242   8.475   3.439  12.103  0.1777 -0.0363 -0.0539
  141loPI    C3 2243   8.597   3.813  12.173 -0.1407  0.0490  0.0606
  141loPI   PO4 2244   8.454   3.725  11.629 -0.0844 -0.0641  0.3399
  141loPI   GL1 2245   8.502   4.047  11.305 -0.0381 -0.2119  0.2735
  141loPI   GL2 2246   8.272   4.300  11.267 -0.1999 -0.0115  0.1588
  141loPI   C1A 2247   8.608   3.839  10.975  0.0570 -0.1035 -0.1638
  141loPI   C2A 2248   8.564   3.878  10.609 -0.0038  0.1012  0.0070
  141loPI   C3A 2249   8.601   4.028  10.224  0.1568 -0.0668 -0.0497
  141loPI   C4A 2250   8.678   3.965   9.827  0.1906 -0.0595  0.0400
  141loPI   C5A 2251   8.702   3.965   9.405  0.1093 -0.2268  0.1038
  141loPI   C6A 2252   8.607   3.691   8.990 -0.0101 -0.0114  0.1306
  141loPI   C1B 2253   8.259   4.191  10.920  0.0828  0.1794  0.1128
  141loPI   C2B 2254   8.321   4.264  10.535 -0.0101 -0.1180  0.2610
  141loPI   C3B 2255   8.272   4.348  10.013  0.1101  0.1315  0.2902
  141loPI   C4B 2256   8.224   4.380   9.605  0.1629 -0.1938 -0.0403
  142loPI    C1 2257   1.709   4.065  11.849  0.1920 -0.0206  0.2591
  142loPI    C2 2258   1.844   3.807  12.123  0.0232 -0.1481  0.2235
  142loPI    C3 2259   1.725   4.173  12.233  0.0794 -0.1533  0.3019
  142loPI   PO4 2260   1.775   3.828  11.597 -0.0976 -0.0137 -0.0517
  142loPI   GL1 2261   1.769   3.823  11.209 -0.0693 -0.2884  0.1289
  142loPI   GL2 2262   2.048   3.837  10.939 -0.3008 -0.0398 -0.0832
  142loPI   C1A 2263   1.664   3.902  10.695 -0.0439 -0.0318  0.1129
  142loPI   C2A 2264   1.649   3.872  10.325 -0.0790 -0.1161 -0.0052
  142loPI   C3A 2265   1.480   3.855   9.955  0.2884 -0.0458  0.0162
  142loPI   C4A 2266   1.429   3.865   9.494  0.1802 -0.3696 -0.0814
  142loPI   C5A 2267   1.219   3.811   9.109  0.1851  0.1510 -0.0686
  142loPI   C6A 2268   1.053   3.822   8.710  0.2035  0.0404 -0.1355
  142loPI   C1B 2269   2.116   3.946  10.490 -0.0478 -0.1464  0.2232
  142loPI   C2B 2270   2.053   3.990   9.963  0.2138 -0.2239  0.1422
  142loPI   C3B 2271   1.888   4.061   9.540 -0.1126 -0.1803 -0.0764
  142loPI   C4B 2272   1.895   4.059   9.208  0.2214  0.0630  0.0929
  143loPI    C1 2273   0.471  16.273  11.712  0.0411  0.1216  0.0302
  143loPI    C2 2274   0.318  16.280  12.081 -0.1166  0.3853 -0.0372
  143loPI    C3 2275   0.708  16.207  12.028 -0.0925  0.3467  0.1803
  143loPI   PO4 2276   0.275  16.149  11.580 -0.2966  0.0404 -0.1697
  143loPI   GL1 2277   0.303  16.000  11.193  0.1074  0.0643 -0.0559
  143loPI   GL2 2278   0.006  15.695  11.255 -0.2690  0.0986 -0.0011
  143loPI   C1A 2279   0.401  15.717  10.772 -0.1125  0.0510  0.1204
  143loPI   C2A 2280   0.421  15.758  10.272  0.0545  0.1755  0.1551
  143loPI   C3A 2281   0.330  15.756   9.857 -0.0251  0.0983 -0.0568
  143loPI   C4A 2282   0.374  15.708   9.372  0.0167  0.2974 -0.4704
  143loPI   C5A 2283   0.339  15.552   8.976 -0.0681 -0.0581  0.0592
  143loPI   C6A 2284   0.234  15.242   8.619 -0.1490 -0.0275 -0.0387
  143loPI   C1B 2285  -0.133  15.704  10.875 -0.1852 -0.1820  0.0598
  143loPI   C2B 2286  -0.098  15.683  10.485  0.1651  0.5046 -0.0767
  143loPI   C3B 2287  -0.078  15.607  10.071 -0.0250 -0.2807  0.0379
  143loPI   C4B 2288  -0.144  15.602   9.608 -0.0997 -0.0828  0.1315
  144loPI    C1 2289  12.431  12.114  11.937 -0.0192 -0.0171 -0.1917
  144loPI    C2 2290  12.173  12.128  12.242  0.1067  0.1399 -0.0913
  144loPI    C3 2291  12.566  12.103  12.313  0.1136 -0.2428 -0.2441
  144loPI   PO4 2292  12.376  11.893  11.716 -0.1666 -0.0015 -0.3042
  144loPI   GL1 2293  12.478  11.988  11.396  0.1539  0.2334 -0.3066
  144loPI   GL2 2294  12.106  11.949  11.275  0.0141 -0.1530 -0.2098
  144loPI   C1A 2295  12.459  12.117  11.042  0.2484 -0.0249 -0.0246
  144loPI   C2A 2296  12.332  12.299  10.653  0.1973  0.0321 -0.1544
  144loPI   C3A 2297  12.394  12.212  10.217  0.0649 -0.1519  0.1370
  144loPI   C4A 2298  12.386  12.180   9.718  0.1649 -0.1095 -0.2061
  144loPI   C5A 2299  12.350  12.194   9.331 -0.1013 -0.2883 -0.1062
  144loPI   C6A 2300  12.200  12.217   8.959  0.0453  0.0644  0.1126
  144loPI   C1B 2301  11.877  12.051  10.869 -0.1195  0.0665 -0.0559
  144loPI   C2B 2302  11.911  12.182  10.408 -0.1197  0.0611 -0.0230
  144loPI   C3B 2303  11.913  12.094   9.923 -0.1881 -0.1786 -0.0935
  144loPI   C4B 2304  11.855  12.048   9.523 -0.0121  0.0926 -0.0096
  145loPI    C1 2305   7.007   7.309  11.823  0.1451 -0.0061  0.0713
  145loPI    C2 2306   6.660   7.136  11.921  0.2114 -0.0817  0.1749
  145loPI    C3 2307   6.751   7.498  12.066 -0.0021  0.1184 -0.1767
  145loPI   PO4 2308   6.976   7.291  11.513 -0.1079 -0.0980  0.1113
  145loPI   GL1 2309   6.809   7.306  11.059 -0.2120 -0.0699 -0.3373
  145loPI   GL2 2310   6.730   6.965  10.841  0.2120 -0.0136 -0.2962
  145loPI   C1A 2311   6.863   7.455  10.644 -0.1820 -0.1483 -0.1867
  145loPI   C2A 2312   6.773   7.553  10.252  0.0187  0.2470  0.3130
  145loPI   C3A 2313   6.729   7.580   9.885 -0.2665 -0.0708  0.0081
  145loPI   C4A 2314   6.743   7.542   9.383 -0.2397  0.0531  0.2047
  145loPI   C5A 2315   6.760   7.607   8.960 -0.1979 -0.2627 -0.1282
  145loPI   C6A 2316   6.845   7.430   8.527 -0.0833  0.3135  0.2020
  145loPI   C1B 2317   6.662   7.044  10.417  0.0749  0.1119  0.0646
  145loPI   C2B 2318   6.709   7.102   9.953  0.2122  0.3227  0.2629
  145loPI   C3B 2319   6.637   7.117   9.569  0.2626  0.1947  0.1304
  145loPI   C4B 2320   6.636   7.002   9.146 -0.1780  0.1435  0.0419
  146loPI    C1 2321   7.528   7.975  11.754 -0.0818 -0.1437  0.1390
  146loPI    C2 2322   7.375   7.724  12.025  0.0968 -0.2605  0.1336
  146loPI    C3 2323   7.604   8.030  12.143 -0.2626  0.0081  0.1547
  146loPI   PO4 2324   7.620   7.931  11.614  0.0551 -0.1596 -0.0271
  146loPI   GL1 2325   7.596   7.754  11.164 -0.0220  0.0678  0.0100
  146loPI   GL2 2326   7.745   7.988  11.149 -0.0669  0.1728 -0.4123
  146loPI   C1A 2327   7.304   7.724  10.817 -0.1210  0.2428 -0.1172
  146loPI   C2A 2328   7.257   7.697  10.408 -0.1976 -0.0662 -0.1976
  146loPI   C3A 2329   7.241   7.720  10.035 -0.0124 -0.1946  0.0456
  146loPI   C4A 2330   7.240   7.686   9.567  0.3171  0.0617  0.0367
  146loPI   C5A 2331   7.301   7.574   9.223 -0.3065 -0.1369  0.0288
  146loPI   C6A 2332   7.214   7.623   8.770 -0.0038 -0.1901  0.1155
  146loPI   C1B 2333   7.938   7.788  10.768 -0.0301  0.0453 -0.1245
  146loPI   C2B 2334   7.782   7.858  10.402  0.1112 -0.0406  0.1044
  146loPI   C3B 2335   7.724   7.851   9.887  0.0161 -0.0557 -0.0304
  146loPI   C4B 2336   7.748   7.734   9.463  0.1008 -0.0058 -0.0424
  147loPI    C1 2337   5.116   1.378  11.892 -0.0357 -0.1100 -0.1268
  147loPI    C2 2338   5.134   0.982  11.947 -0.1535 -0.0905  0.0619
  147loPI    C3 2339   4.941   1.212  12.212 -0.0217  0.1022 -0.0073
  147loPI   PO4 2340   5.012   1.463  11.604  0.1654 -0.0439 -0.1610
  147loPI   GL1 2341   5.124   1.614  11.208  0.3883 -0.1181  0.1064
  147loPI   GL2 2342   5.161   1.286  11.129  0.3303  0.1394 -0.0531
  147loPI   C1A 2343   5.137   1.909  10.839 -0.0280  0.0924  0.1607
  147loPI   C2A 2344   5.148   2.049  10.405  0.0476  0.1082 -0.0627
  147loPI   C3A 2345   5.159   1.901  10.082 -0.0366  0.0753  0.4343
  147loPI   C4A 2346   5.191   1.864   9.701 -0.0608 -0.3225  0.1410
  147loPI   C5A 2347   5.312   1.743   9.356 -0.2842 -0.1408  0.2490
  147loPI   C6A 2348   5.352   1.956   8.964 -0.0584 -0.1135  0.1914
  147loPI   C1B 2349   5.031   1.432  10.706 -0.1379  0.0286 -0.0310
  147loPI   C2B 2350   4.990   1.485  10.322  0.3073  0.1369 -0.2039
  147loPI   C3B 2351   5.078   1.375   9.907  0.1821  0.0534  0.2003
  147loPI   C4B 2352   4.979   1.376   9.529 -0.0402 -0.3005 -0.3146
  148loPI    C1 2353   4.046  14.835  11.751 -0.3167  0.1985  0.2623
  148loPI    C2 2354   3.656  14.863  11.665 -0.3409 -0.2939  0.1817
  148loPI    C3 2355   3.782  14.600  11.938 -0.0641 -0.1211  0.2253
  148loPI   PO4 2356   4.263  14.841  11.440  0.0226  0.0851  0.3621
  148loPI   GL1 2357   4.297  14.616  11.113  0.0136  0.1664  0.0557
  148loPI   GL2 2358   4.420  14.837  10.951 -0.2660 -0.1215  0.3104
  148loPI   C1A 2359   4.235  14.337  10.790  0.1181 -0.1173  0.0356
  148loPI   C2A 2360   4.162  14.303  10.331 -0.1435 -0.1690  0.0435
  148loPI   C3A 2361   4.173  14.306   9.884  0.1077  0.1877  0.1062
  148loPI   C4A 2362   3.978  14.347   9.533  0.0045 -0.1983 -0.0854
  148loPI   C5A 2363   4.150  14.324   9.179  0.0799  0.1175  0.2711
  148loPI   C6A 2364   4.006  14.329   8.800 -0.2723 -0.1850 -0.0192
  148loPI   C1B 2365   4.343  14.776  10.561 -0.0647 -0.0804  0.2074
  148loPI   C2B 2366   4.177  14.751  10.074  0.0806  0.1428 -0.1382
  148loPI   C3B 2367   4.075  14.831   9.625 -0.2978  0.0052  0.1685
  148loPI   C4B 2368   3.941  14.863   9.145  0.1058  0.2742 -0.0739
  149loPI    C1 2369  10.816   4.351  11.990  0.1061 -0.1759 -0.1067
  149loPI    C2 2370  10.505   4.171  12.165  0.0316 -0.2048 -0.2679
  149loPI    C3 2371  10.545   4.569  12.188 -0.1311 -0.1782 -0.4226
  149loPI   PO4 2372  10.853   4.147  11.708 -0.0661  0.1013  0.0421
  149loPI   GL1 2373  10.877   4.035  11.289 -0.2668 -0.0296  0.0461
  149loPI   GL2 2374  10.518   4.050  11.238 -0.0766  0.1050  0.0634
  149loPI   C1A 2375  10.970   4.146  10.916  0.0030 -0.1843 -0.0163
  149loPI   C2A 2376  10.875   4.099  10.531  0.0286 -0.1196  0.3779
  149loPI   C3A 2377  10.933   4.087  10.164  0.1249  0.0222 -0.0251
  149loPI   C4A 2378  11.001   4.025   9.706  0.0188  0.2962 -0.3639
  149loPI   C5A 2379  10.926   3.916   9.314  0.1515 -0.0921 -0.2690
  149loPI   C6A 2380  10.939   3.490   9.195  0.0811 -0.3489 -0.0404
  149loPI   C1B 2381  10.411   3.956  10.827  0.0332 -0.1263 -0.0291
  149loPI   C2B 2382  10.379   3.965  10.523 -0.4167 -0.0629  0.3523
  149loPI   C3B 2383  10.433   4.001  10.127 -0.1030  0.1701 -0.2639
  149loPI   C4B 2384  10.517   3.989   9.681  0.1205  0.0554 -0.0139
  150loPI    C1 2385   9.431  13.172  11.655 -0.2060 -0.3010  0.0452
  150loPI    C2 2386   9.428  12.823  11.851 -0.0324 -0.2367  0.1650
  150loPI    C3 2387   9.348  13.163  12.046 -0.0520 -0.1930  0.0812
  150loPI   PO4 2388   9.330  13.068  11.340  0.0517 -0.2048  0.0009
  150loPI   GL1 2389   9.451  12.839  11.064 -0.0813  0.0392  0.1734
  150loPI   GL2 2390   9.666  12.613  11.015 -0.0668  0.1899 -0.3751
  150loPI   C1A 2391   9.333  12.892  10.562 -0.0470 -0.1827 -0.0211
  150loPI   C2A 2392   9.341  12.869  10.045  0.0288  0.4344 -0.3246
  150loPI   C3A 2393   9.302  12.807   9.619 -0.3290 -0.1542  0.2782
  150loPI   C4A 2394   9.289  12.755   9.208 -0.0576  0.0979 -0.0170
  150loPI   C5A 2395   9.087  12.671   8.783  0.1452  0.1674 -0.1729
  150loPI   C6A 2396   8.851  12.241   8.678  0.2976 -0.3619 -0.0806
  150loPI   C1B 2397   9.650  12.515  10.561  0.1206 -0.2041  0.3309
  150loPI   C2B 2398   9.664  12.432  10.098  0.0184  0.0669 -0.1653
  150loPI   C3B 2399   9.661  12.431   9.682 -0.1758 -0.0609  0.1929
  150loPI   C4B 2400   9.709  12.376   9.316  0.2527 -0.1335 -0.2975
  151loPI    C1 2401  16.173  11.579  12.093 -0.1911  0.0048  0.0781
  151loPI    C2 2402  15.983  11.906  12.223 -0.0678  0.0136  0.2389
  151loPI    C3 2403  16.218  11.699  12.472 -0.0823 -0.1525  0.1160
  151loPI   PO4 2404  16.205  11.665  11.801  0.0439  0.1667  0.0487
  151loPI   GL1 2405  16.163  11.871  11.321  0.0149  0.1845  0.1632
  151loPI   GL2 2406  16.449  12.005  11.264  0.1994 -0.0791  0.1754
  151loPI   C1A 2407  16.120  11.774  10.842 -0.1165 -0.0093 -0.2369
  151loPI   C2A 2408  16.093  11.591  10.443  0.1004 -0.1367 -0.1104
  151loPI   C3A 2409  16.118  11.547  10.080  0.0814  0.0885 -0.1221
  151loPI   C4A 2410  15.940  11.557   9.763  0.0838  0.0417  0.2669
  151loPI   C5A 2411  15.914  11.667   9.327  0.1088  0.2865  0.2542
  151loPI   C6A 2412  15.971  11.774   8.961  0.0828 -0.4270 -0.2377
  151loPI   C1B 2413  16.630  12.252  10.927  0.1374  0.0577  0.1253
  151loPI   C2B 2414  16.665  12.307  10.414  0.2465 -0.0498  0.4211
  151loPI   C3B 2415  16.610  12.287   9.966  0.1142  0.1947  0.2683
  151loPI   C4B 2416  16.612  12.216   9.484  0.0368 -0.0182  0.1459
  152loPI    C1 2417  14.618  10.961  11.631  0.0576  0.2218  0.1652
  152loPI    C2 2418  14.712  10.979  12.019  0.0464  0.2167  0.1681
  152loPI    C3 2419  14.329  10.966  11.907  0.0539 -0.0485  0.1683
  152loPI   PO4 2420  14.783  11.089  11.555 -0.1552  0.1706  0.1517
  152loPI   GL1 2421  15.083  11.017  11.236 -0.0922  0.1596  0.0383
  152loPI   GL2 2422  14.842  11.001  11.012 -0.0889 -0.0666  0.0844
  152loPI   C1A 2423  15.320  10.999  10.735  0.0312  0.0602 -0.1438
  152loPI   C2A 2424  15.395  11.000  10.255  0.2650 -0.2715  0.3132
  152loPI   C3A 2425  15.365  11.079   9.841  0.0352  0.1540 -0.1113
  152loPI   C4A 2426  15.248  10.982   9.362 -0.0344  0.2421  0.1047
  152loPI   C5A 2427  15.276  10.961   8.946 -0.0987 -0.1189 -0.1294
  152loPI   C6A 2428  15.638  10.999   8.695  0.3333  0.1254  0.2846
  152loPI   C1B 2429  14.793  10.927  10.576  0.0620  0.0222 -0.1408
  152loPI   C2B 2430  14.927  10.935  10.130 -0.0966 -0.0653 -0.0747
  152loPI   C3B 2431  14.812  10.964   9.716  0.0885  0.1980 -0.2119
  152loPI   C4B 2432  14.798  10.859   9.389  0.0034  0.0062  0.1940
  153loPI    C1 2433  14.749  11.803  11.741  0.0016 -0.2210 -0.0225
  153loPI    C2 2434  15.116  11.853  11.892 -0.0277 -0.1628  0.0300
  153loPI    C3 2435  14.795  11.921  12.120 -0.0729 -0.0121 -0.0767
  153loPI   PO4 2436  14.789  11.629  11.583  0.0498  0.0020  0.0419
  153loPI   GL1 2437  14.951  11.488  11.196  0.0974  0.0090 -0.1615
  153loPI   GL2 2438  14.642  11.410  11.166  0.2494  0.1671  0.2816
  153loPI   C1A 2439  14.990  11.420  10.729  0.2059 -0.3330  0.4059
  153loPI   C2A 2440  14.969  11.395  10.343  0.0790  0.0246  0.1627
  153loPI   C3A 2441  14.936  11.417  10.034 -0.1748  0.2461 -0.0729
  153loPI   C4A 2442  15.073  11.397   9.612  0.3758 -0.1458  0.2200
  153loPI   C5A 2443  15.082  11.481   9.147  0.0877  0.2719  0.0843
  153loPI   C6A 2444  15.161  11.319   8.692  0.0271 -0.3779 -0.0259
  153loPI   C1B 2445  14.537  11.336  10.753  0.2546 -0.0886  0.1310
  153loPI   C2B 2446  14.479  11.317  10.332  0.0569  0.0157 -0.1057
  153loPI   C3B 2447  14.486  11.327   9.829  0.0828  0.4632  0.0737
  153loPI   C4B 2448  14.520  11.450   9.371  0.0921  0.1142 -0.1843
  154loPI    C1 2449  15.392   9.225  11.957 -0.1463  0.0770  0.1681
  154loPI    C2 2450  15.071   8.999  12.031  0.0238 -0.2613 -0.0962
  154loPI    C3 2451  15.428   8.891  12.175  0.0983 -0.1317 -0.1821
  154loPI   PO4 2452  15.430   9.305  11.774 -0.0488  0.0634  0.1326
  154loPI   GL1 2453  15.509   9.322  11.416 -0.1467  0.0405 -0.2783
  154loPI   GL2 2454  15.310   9.156  11.200 -0.0533 -0.0359  0.3178
  154loPI   C1A 2455  15.724   9.253  11.042 -0.2203  0.2307 -0.0950
  154loPI   C2A 2456  15.776   9.279  10.589 -0.0115  0.2256 -0.1295
  154loPI   C3A 2457  15.776   9.320  10.095  0.2039 -0.0423 -0.0749
  154loPI   C4A 2458  15.740   9.357   9.710  0.0643  0.1374  0.0595
  154loPI   C5A 2459  15.704   9.337   9.269 -0.1889  0.0483  0.1508
  154loPI   C6A 2460  15.967   9.396   8.934 -0.1693 -0.0591 -0.0138
  154loPI   C1B 2461  15.291   9.104  10.724  0.1539  0.1811 -0.0252
  154loPI   C2B 2462  15.295   9.142  10.280  0.0121  0.0160  0.0107
  154loPI   C3B 2463  15.298   9.190   9.875  0.1526 -0.1943  0.1407
  154loPI   C4B 2464  15.280   9.212   9.416 -0.1390  0.0344 -0.4207
  155loPI    C1 2465   0.281   9.538  12.047  0.0235 -0.0872  0.1091
  155loPI    C2 2466   0.020   9.839  12.084  0.0844 -0.0204  0.0015
  155loPI    C3 2467   0.330   9.812  12.335 -0.0434 -0.1187  0.1509
  155loPI   PO4 2468   0.460   9.488  11.796 -0.3386  0.1365  0.1690
  155loPI   GL1 2469   0.618   9.322  11.455  0.4027 -0.0073  0.0752
  155loPI   GL2 2470   0.448   9.612  11.295  0.0263  0.1343 -0.4132
  155loPI   C1A 2471   0.797   9.286  11.001  0.1335  0.0643 -0.2355
  155loPI   C2A 2472   0.770   9.252  10.524 -0.0431  0.0891  0.2324
  155loPI   C3A 2473   0.847   9.350  10.102 -0.2589 -0.0139  0.0514
  155loPI   C4A 2474   0.736   9.298   9.711 -0.1514  0.1965  0.4352
  155loPI   C5A 2475   0.649   9.380   9.284 -0.4009  0.0716 -0.3337
  155loPI   C6A 2476   0.360   9.256   9.083 -0.1906  0.3017  0.2231
  155loPI   C1B 2477   0.466   9.695  10.838 -0.0201 -0.0267 -0.0020
  155loPI   C2B 2478   0.431   9.597  10.449  0.2874  0.1776 -0.1148
  155loPI   C3B 2479   0.484   9.708  10.010 -0.0125  0.4358 -0.1618
  155loPI   C4B 2480   0.468   9.724   9.633 -0.3607 -0.0442  0.0215
  156loPI    C1 2481   5.644   3.307  12.009 -0.0596  0.0588  0.1098
  156loPI    C2 2482   6.043   3.320  12.041 -0.0425  0.0265 -0.0816
  156loPI    C3 2483   5.816   3.535  12.290  0.0976  0.1315 -0.0433
  156loPI   PO4 2484   5.594   3.393  11.760 -0.1345 -0.0196 -0.0376
  156loPI   GL1 2485   5.738   3.376  11.321 -0.2304  0.1437 -0.3368
  156loPI   GL2 2486   5.622   3.578  11.233  0.1022 -0.1652  0.1309
  156loPI   C1A 2487   5.598   2.997  11.018 -0.2446  0.1770 -0.0707
  156loPI   C2A 2488   5.455   3.005  10.655  0.2477 -0.0915 -0.0911
  156loPI   C3A 2489   5.470   3.003  10.262  0.2450 -0.0254  0.0681
  156loPI   C4A 2490   5.462   2.867   9.903 -0.1390 -0.1231 -0.1617
  156loPI   C5A 2491   5.472   2.867   9.516 -0.0534  0.1775  0.2442
  156loPI   C6A 2492   5.650   2.677   9.112  0.2770  0.3519  0.0514
  156loPI   C1B 2493   5.598   3.458  10.725 -0.0190  0.0809  0.0591
  156loPI   C2B 2494   5.741   3.475  10.370 -0.0869 -0.1113 -0.2864
  156loPI   C3B 2495   5.707   3.407   9.976 -0.0760  0.0417  0.0370
  156loPI   C4B 2496   5.757   3.284   9.535  0.1103  0.3440  0.0916
  157loPI    C1 2497   4.523  14.354  11.650  0.1093 -0.1127  0.0444
  157loPI    C2 2498   4.449  14.651  11.908 -0.0430 -0.1227  0.0133
  157loPI    C3 2499   4.525  14.283  12.044  0.4092 -0.0174  0.0622
  157loPI   PO4 2500   4.415  14.325  11.497 -0.0783  0.1555 -0.0712
  157loPI   GL1 2501   4.474  14.093  11.173 -0.0332  0.0467 -0.0072
  157loPI   GL2 2502   4.669  14.284  11.030 -0.2083  0.2547  0.1135
  157loPI   C1A 2503   4.553  13.932  10.751  0.1091  0.2342  0.0932
  157loPI   C2A 2504   4.556  13.857  10.403  0.0547 -0.1226 -0.2427
  157loPI   C3A 2505   4.486  13.891  10.017 -0.0741 -0.3127  0.0704
  157loPI   C4A 2506   4.443  14.004   9.439 -0.1559 -0.0222 -0.5143
  157loPI   C5A 2507   4.546  13.971   9.016 -0.0632  0.4719  0.1090
  157loPI   C6A 2508   4.916  14.045   8.656 -0.2424  0.0115  0.2480
  157loPI   C1B 2509   4.678  14.419  10.617 -0.0340  0.3935  0.1026
  157loPI   C2B 2510   4.655  14.317  10.218  0.0068  0.2700 -0.0191
  157loPI   C3B 2511   4.658  14.491   9.880  0.1249  0.2058 -0.1194
  157loPI   C4B 2512   4.460  14.517   9.510 -0.1667  0.1685 -0.3099
  158loPI    C1 2513  10.435  11.677  11.521  0.1032 -0.1211 -0.0177
  158loPI    C2 2514  10.719  11.604  11.793  0.1733  0.0238 -0.0513
  158loPI    C3 2515  10.418  11.852  11.880  0.3050  0.2307 -0.1739
  158loPI   PO4 2516  10.405  11.506  11.419 -0.0219  0.3435  0.0326
  158loPI   GL1 2517  10.527  11.291  11.081  0.0015  0.0266 -0.0289
  158loPI   GL2 2518  10.272  11.087  10.909  0.0240  0.0145  0.0967
  158loPI   C1A 2519  10.794  11.290  10.693 -0.1033  0.0406 -0.3697
  158loPI   C2A 2520  10.835  11.327  10.316  0.0932  0.0318  0.2135
  158loPI   C3A 2521  10.776  11.284   9.889 -0.0420 -0.0746  0.1434
  158loPI   C4A 2522  10.747  11.179   9.399  0.1231 -0.0121 -0.0734
  158loPI   C5A 2523  10.698  11.298   8.920 -0.1747 -0.2174  0.0244
  158loPI   C6A 2524  10.679  11.485   8.578 -0.0192  0.3571 -0.3048
  158loPI   C1B 2525  10.343  11.232  10.478  0.5060  0.0843 -0.3862
  158loPI   C2B 2526  10.234  11.177  10.077  0.0252 -0.0930  0.0250
  158loPI   C3B 2527  10.186  11.126   9.628  0.1535 -0.1819  0.1285
  158loPI   C4B 2528  10.204  11.163   9.128 -0.1184  0.0766  0.1364
  159loPI    C1 2529   6.137  10.353  11.738  0.2827 -0.0148 -0.0433
  159loPI    C2 2530   5.856  10.072  11.786  0.1140  0.1592  0.0008
  159loPI    C3 2531   6.071  10.195  12.100  0.1253  0.1443 -0.0010
  159loPI   PO4 2532   6.276  10.341  11.475  0.1706 -0.0127  0.1602
  159loPI   GL1 2533   6.093  10.385  11.077  0.0484  0.0651 -0.1757
  159loPI   GL2 2534   5.880  10.559  10.975 -0.0870 -0.1826 -0.0699
  159loPI   C1A 2535   6.235  10.226  10.703 -0.2003  0.1560 -0.0790
  159loPI   C2A 2536   6.220  10.180  10.278 -0.2779 -0.0001 -0.1611
  159loPI   C3A 2537   6.047  10.208   9.863 -0.0573 -0.0826 -0.0774
  159loPI   C4A 2538   6.119  10.283   9.442 -0.0055 -0.4923 -0.2692
  159loPI   C5A 2539   6.139  10.396   8.940 -0.0512  0.0996 -0.1302
  159loPI   C6A 2540   6.430  10.415   8.652 -0.1086  0.2069  0.1483
  159loPI   C1B 2541   5.972  10.581  10.509 -0.1403 -0.3102 -0.0888
  159loPI   C2B 2542   5.811  10.643  10.107 -0.1490  0.1046  0.1207
  159loPI   C3B 2543   5.744  10.611   9.733 -0.1943 -0.2253  0.1459
  159loPI   C4B 2544   5.868  10.732   9.216 -0.2571  0.1743 -0.0467
  160loPI    C1 2545  12.992  12.770  11.836  0.0663 -0.3202  0.0135
  160loPI    C2 2546  12.750  12.532  12.048 -0.0892 -0.0116  0.1907
  160loPI    C3 2547  12.851  12.892  12.190  0.0994  0.0528 -0.0973
  160loPI   PO4 2548  13.132  12.561  11.667  0.6559 -0.2508  0.1498
  160loPI   GL1 2549  13.267  12.450  11.278  0.0799  0.1244  0.0932
  160loPI   GL2 2550  13.498  12.465  11.132  0.1300 -0.3411 -0.0584
  160loPI   C1A 2551  12.998  12.302  10.933 -0.0992  0.0852 -0.0573
  160loPI   C2A 2552  12.961  12.320  10.566 -0.2219 -0.1122  0.1428
  160loPI   C3A 2553  12.958  12.310  10.127  0.0714  0.0158 -0.0448
  160loPI   C4A 2554  12.874  12.275   9.667  0.0441  0.0728 -0.1108
  160loPI   C5A 2555  12.921  12.411   9.235 -0.0291  0.0597  0.0061
  160loPI   C6A 2556  12.944  12.437   8.734 -0.1874  0.0252  0.0771
  160loPI   C1B 2557  13.494  12.373  10.690 -0.1264  0.0176  0.0287
  160loPI   C2B 2558  13.446  12.447  10.223  0.0868  0.0956  0.1941
  160loPI   C3B 2559  13.507  12.444   9.769  0.2215 -0.1096 -0.1928
  160loPI   C4B 2560  13.392  12.439   9.357  0.0039 -0.1990  0.0463
  161loPI    C1 2561   9.940   3.545  11.933  0.2680  0.0667 -0.1283
  161loPI    C2 2562  10.050   3.894  12.095 -0.1317  0.0016  0.3037
  161loPI    C3 2563  10.021   3.567  12.324 -0.1411 -0.2290 -0.0204
  161loPI   PO4 2564   9.774   3.585  11.771  0.0640 -0.1385  0.0721
  161loPI   GL1 2565   9.760   3.618  11.316  0.0163 -0.2427  0.0569
  161loPI   GL2 2566   9.485   3.645  11.199  0.1513  0.0743 -0.0213
  161loPI   C1A 2567   9.920   3.828  11.000  0.1492 -0.1691 -0.1375
  161loPI   C2A 2568   9.896   3.883  10.502 -0.1048 -0.4113 -0.0886
  161loPI   C3A 2569   9.892   3.822  10.078 -0.0318  0.1940  0.0572
  161loPI   C4A 2570   9.979   3.930   9.693 -0.1651 -0.3405  0.2019
  161loPI   C5A 2571  10.031   3.847   9.305  0.0036 -0.2347 -0.0675
  161loPI   C6A 2572  10.017   3.761   8.815 -0.1371  0.0127  0.0964
  161loPI   C1B 2573   9.468   3.731  10.703  0.0277 -0.0067 -0.1295
  161loPI   C2B 2574   9.431   3.733  10.264  0.0286  0.0358  0.1625
  161loPI   C3B 2575   9.497   3.726   9.805  0.1255  0.1891  0.2040
  161loPI   C4B 2576   9.610   3.678   9.372  0.1231 -0.0252 -0.3236
  162loPI    C1 2577  11.050   1.121  11.854  0.0828  0.1229  0.3022
  162loPI    C2 2578  10.874   0.778  11.960  0.0624  0.0560  0.0578
  162loPI    C3 2579  11.034   1.015  12.239 -0.3272  0.0712  0.2757
  162loPI   PO4 2580  11.220   1.098  11.717  0.3076 -0.2422  0.0320
  162loPI   GL1 2581  11.326   1.062  11.308  0.2643 -0.2686 -0.4713
  162loPI   GL2 2582  11.046   1.002  11.221 -0.2553 -0.1032 -0.1011
  162loPI   C1A 2583  11.523   1.035  10.875 -0.1542  0.2143 -0.0899
  162loPI   C2A 2584  11.541   1.060  10.442 -0.0521  0.0368  0.0434
  162loPI   C3A 2585  11.555   1.006   9.997  0.1545  0.1286  0.0544
  162loPI   C4A 2586  11.474   1.038   9.553  0.4737 -0.0820 -0.0519
  162loPI   C5A 2587  11.501   0.939   9.126  0.1980 -0.0816  0.2200
  162loPI   C6A 2588  11.841   0.580   9.022  0.1091  0.1152  0.1077
  162loPI   C1B 2589  11.070   0.911  10.797 -0.0840 -0.0015 -0.1537
  162loPI   C2B 2590  11.046   0.914  10.452  0.0531 -0.0102  0.0833
  162loPI   C3B 2591  11.043   0.925  10.133  0.3036 -0.1553 -0.0804
  162loPI   C4B 2592  10.948   0.936   9.703 -0.3878 -0.0844  0.1741
  163loPI    C1 2593   2.089   6.760  11.826 -0.1641 -0.0012 -0.0162
  163loPI    C2 2594   1.855   7.043  11.985  0.1434  0.0977  0.2725
  163loPI    C3 2595   2.047   6.785  12.223  0.0879 -0.1788  0.0241
  163loPI   PO4 2596   2.169   6.828  11.582  0.1581 -0.1517 -0.1410
  163loPI   GL1 2597   2.322   6.742  11.195  0.2555 -0.1017  0.0138
  163loPI   GL2 2598   2.561   6.743  11.200 -0.1062 -0.3097 -0.1001
  163loPI   C1A 2599   2.038   6.761  10.809  0.0201 -0.0769 -0.3282
  163loPI   C2A 2600   1.938   6.724  10.375 -0.0334 -0.1140 -0.2099
  163loPI   C3A 2601   1.894   6.794   9.917 -0.1295  0.0083  0.1283
  163loPI   C4A 2602   1.930   6.763   9.496  0.1105  0.1907  0.2128
  163loPI   C5A 2603   2.041   6.861   8.966  0.1418 -0.2376 -0.2944
  163loPI   C6A 2604   2.458   6.910   8.626 -0.1396 -0.2278  0.0534
  163loPI   C1B 2605   2.475   6.875  10.711 -0.1782  0.1870 -0.3133
  163loPI   C2B 2606   2.422   6.906  10.254  0.2016  0.3416  0.0943
  163loPI   C3B 2607   2.404   6.889   9.823  0.0172  0.0071 -0.0191
  163loPI   C4B 2608   2.402   6.816   9.389  0.0852  0.1919  0.0145
  164loPI    C1 2609   4.376   6.525  11.868 -0.0895  0.0778 -0.0178
  164loPI    C2 2610   4.334   6.714  12.218  0.1834 -0.0250  0.0735
  164loPI    C3 2611   4.286   6.318  12.198  0.0394 -0.0030 -0.0327
  164loPI   PO4 2612   4.293   6.663  11.696  0.0078  0.1323 -0.0391
  164loPI   GL1 2613   4.158   6.762  11.239 -0.0476  0.1384 -0.0252
  164loPI   GL2 2614   4.161   7.055  11.224  0.1282  0.2055  0.0743
  164loPI   C1A 2615   3.923   6.730  10.840  0.0571 -0.1646 -0.3020
  164loPI   C2A 2616   3.824   6.723  10.438  0.1259  0.2671  0.3624
  164loPI   C3A 2617   3.852   6.700   9.985 -0.2558 -0.0430 -0.2603
  164loPI   C4A 2618   3.841   6.723   9.594 -0.0586  0.1127  0.2968
  164loPI   C5A 2619   3.921   6.927   9.146 -0.0237  0.0731  0.2201
  164loPI   C6A 2620   3.753   6.991   8.798  0.0798  0.1957 -0.0839
  164loPI   C1B 2621   4.021   7.259  10.899 -0.1816  0.0430  0.2347
  164loPI   C2B 2622   3.984   7.323  10.446  0.1074  0.1256 -0.2980
  164loPI   C3B 2623   3.887   7.292  10.038  0.0900  0.1846  0.2149
  164loPI   C4B 2624   3.949   7.233   9.609 -0.0335  0.1781 -0.1173
  165loPI    C1 2625  12.111   1.336  11.929  0.0631 -0.0615  0.0868
  165loPI    C2 2626  12.355   1.041  12.042  0.3035  0.1541  0.1386
  165loPI    C3 2627  12.381   1.400  12.217  0.1009  0.2438 -0.0123
  165loPI   PO4 2628  12.162   1.433  11.677  0.0012 -0.0509 -0.0472
  165loPI   GL1 2629  12.008   1.579  11.318  0.1325  0.0499 -0.1343
  165loPI   GL2 2630  11.655   1.430  11.179 -0.3907 -0.0088 -0.1215
  165loPI   C1A 2631  12.201   1.774  10.890  0.2854  0.0524 -0.2858
  165loPI   C2A 2632  12.137   1.707  10.427  0.0382  0.2939 -0.4193
  165loPI   C3A 2633  12.183   1.633   9.941 -0.0102 -0.1478  0.3401
  165loPI   C4A 2634  12.084   1.667   9.515 -0.0232 -0.3107 -0.1036
  165loPI   C5A 2635  12.030   1.747   9.099 -0.2680 -0.2722  0.0249
  165loPI   C6A 2636  12.116   1.997   8.798 -0.0251  0.0631  0.1831
  165loPI   C1B 2637  11.678   1.536  10.728  0.1292 -0.1627  0.1567
  165loPI   C2B 2638  11.649   1.546  10.283 -0.1982  0.0277 -0.0199
  165loPI   C3B 2639  11.651   1.464   9.851  0.2719 -0.0404  0.1081
  165loPI   C4B 2640  11.618   1.593   9.530  0.1841 -0.0194 -0.0012
  166loPI    C1 2641  13.820   2.195  11.233 -0.0718  0.2536 -0.0026
  166loPI    C2 2642  14.214   2.177  11.295 -0.0451  0.2844 -0.1577
  166loPI    C3 2643  13.961   2.127  11.601  0.0689 -0.2180 -0.1371
  166loPI   PO4 2644  13.759   2.056  11.064  0.2529 -0.4966  0.0392
  166loPI   GL1 2645  13.504   2.104  10.780  0.0783 -0.0709  0.2369
  166loPI   GL2 2646  13.259   1.955  10.846 -0.1404 -0.2477  0.1010
  166loPI   C1A 2647  13.694   2.011  10.337 -0.0882  0.1151  0.0470
  166loPI   C2A 2648  13.659   1.982   9.895  0.0686  0.1663 -0.1416
  166loPI   C3A 2649  13.623   2.005   9.488 -0.1686  0.0715 -0.0037
  166loPI   C4A 2650  13.707   2.057   9.042  0.0879  0.0593  0.0187
  166loPI   C5A 2651  13.475   2.250   8.734 -0.0431  0.1454 -0.0780
  166loPI   C6A 2652  13.011   2.241   8.679 -0.0853  0.1661  0.0762
  166loPI   C1B 2653  13.167   1.959  10.407 -0.2163 -0.0727 -0.0275
  166loPI   C2B 2654  13.160   1.984   9.883  0.1840  0.0807 -0.1182
  166loPI   C3B 2655  13.068   1.931   9.402 -0.0739  0.1622 -0.1291
  166loPI   C4B 2656  13.175   1.990   9.072  0.0166  0.0934  0.0044
  167loPI    C1 2657  12.753   2.739  11.683  0.1649 -0.0170 -0.2232
  167loPI    C2 2658  12.723   2.514  12.012  0.1469 -0.0913 -0.2755
  167loPI    C3 2659  12.993   2.809  11.995  0.0314  0.0240 -0.1293
  167loPI   PO4 2660  12.778   2.645  11.411 -0.0752 -0.0076  0.0157
  167loPI   GL1 2661  12.712   2.440  10.991  0.1949 -0.2198 -0.3603
  167loPI   GL2 2662  12.864   2.309  10.819 -0.0666  0.1174 -0.1459
  167loPI   C1A 2663  12.482   2.589  10.664 -0.2187  0.0947  0.3582
  167loPI   C2A 2664  12.409   2.611  10.253 -0.0771 -0.0218 -0.1425
  167loPI   C3A 2665  12.369   2.598   9.865  0.4243 -0.4931  0.0269
  167loPI   C4A 2666  12.447   2.613   9.428 -0.0288 -0.3042 -0.0450
  167loPI   C5A 2667  12.363   2.488   8.981  0.1082  0.0693 -0.1922
  167loPI   C6A 2668  12.539   2.276   8.749 -0.1069 -0.1380  0.1242
  167loPI   C1B 2669  12.823   2.279  10.310  0.1060 -0.2309 -0.0477
  167loPI   C2B 2670  12.749   2.266   9.981 -0.1347 -0.1072  0.0295
  167loPI   C3B 2671  12.742   2.235   9.579  0.0361  0.0143  0.0415
  167loPI   C4B 2672  12.843   2.351   9.120  0.2200 -0.2301  0.0827
  168loPI    C1 2673   4.955   6.604  11.724  0.0683  0.2008 -0.1065
  168loPI    C2 2674   4.962   6.516  12.114 -0.0121 -0.0652 -0.1631
  168loPI    C3 2675   4.805   6.863  11.990  0.0669  0.0464  0.0443
  168loPI   PO4 2676   4.813   6.407  11.640  0.2202  0.1796 -0.0188
  168loPI   GL1 2677   4.535   6.400  11.306  0.1861 -0.0597 -0.0835
  168loPI   GL2 2678   4.875   6.445  11.134 -0.1170  0.0170 -0.1000
  168loPI   C1A 2679   4.317   6.296  10.951 -0.0584  0.0886 -0.1868
  168loPI   C2A 2680   4.275   6.331  10.588 -0.0278 -0.0803  0.0469
  168loPI   C3A 2681   4.203   6.280  10.149 -0.3249 -0.3016  0.2287
  168loPI   C4A 2682   4.157   6.327   9.765  0.1382  0.0120  0.0410
  168loPI   C5A 2683   4.295   6.368   9.262  0.0313  0.1014 -0.0376
  168loPI   C6A 2684   4.377   6.114   8.875  0.1086 -0.5215 -0.2353
  168loPI   C1B 2685   4.803   6.381  10.709  0.2672  0.1510 -0.0008
  168loPI   C2B 2686   4.746   6.406  10.299  0.0574  0.0973  0.1960
  168loPI   C3B 2687   4.711   6.446   9.857  0.0640 -0.1144 -0.2504
  168loPI   C4B 2688   4.756   6.609   9.402 -0.1242 -0.0790 -0.0428
  169loPI    C1 2689   2.238   0.471  11.861 -0.1808 -0.0083  0.2142
  169loPI    C2 2690   2.528   0.221  11.977  0.2495  0.2936 -0.1679
  169loPI    C3 2691   2.455   0.554  12.187 -0.0442  0.0637  0.1063
  169loPI   PO4 2692   2.280   0.598  11.628 -0.0038  0.1227 -0.0703
  169loPI   GL1 2693   2.135   0.588  11.268  0.3002  0.2209 -0.1539
  169loPI   GL2 2694   2.220   0.285  11.115  0.0108  0.1614  0.1081
  169loPI   C1A 2695   2.100   0.721  10.891 -0.3626 -0.1121 -0.2431
  169loPI   C2A 2696   1.956   0.806  10.505  0.0334  0.2092  0.0531
  169loPI   C3A 2697   1.977   0.812  10.086  0.1945  0.5007  0.0559
  169loPI   C4A 2698   1.932   0.777   9.635 -0.0479 -0.1840  0.1228
  169loPI   C5A 2699   1.899   0.719   9.147 -0.1190  0.0807  0.4428
  169loPI   C6A 2700   1.818   0.661   8.646 -0.2019  0.1275  0.1794
  169loPI   C1B 2701   1.923   0.280  10.851 -0.2456  0.2130  0.0846
  169loPI   C2B 2702   1.844   0.303  10.384  0.2340  0.0391 -0.0092
  169loPI   C3B 2703   1.853   0.263  10.048 -0.1245 -0.1614  0.1626
  169loPI   C4B 2704   1.754   0.216   9.500 -0.1461 -0.0033 -0.0588
  170loPI    C1 2705   1.234   5.266  11.794  0.1800 -0.2208 -0.0893
  170loPI    C2 2706   1.518   5.091  12.014  0.2806 -0.1070 -0.1273
  170loPI    C3 2707   1.132   5.015  12.088  0.3159 -0.1320  0.0349
  170loPI   PO4 2708   1.399   5.323  11.600  0.0417 -0.0897 -0.0900
  170loPI   GL1 2709   1.260   5.293  11.202 -0.3620  0.0392  0.1157
  170loPI   GL2 2710   1.045   5.318  11.197 -0.2745  0.2237 -0.1533
  170loPI   C1A 2711   1.484   5.394  10.814  0.3539  0.1176  0.1426
  170loPI   C2A 2712   1.443   5.360  10.429 -0.1417 -0.0364  0.0355
  170loPI   C3A 2713   1.520   5.327  10.060 -0.0178  0.1536 -0.2287
  170loPI   C4A 2714   1.403   5.277   9.714 -0.2142 -0.1957  0.0050
  170loPI   C5A 2715   1.510   5.367   9.307 -0.1980 -0.1847  0.3367
  170loPI   C6A 2716   1.501   5.461   8.857  0.1408 -0.1564 -0.0017
  170loPI   C1B 2717   0.976   5.375  10.749 -0.2753 -0.1388 -0.1929
  170loPI   C2B 2718   0.913   5.273  10.294 -0.3422  0.1474 -0.0757
  170loPI   C3B 2719   0.894   5.222   9.908 -0.0713  0.3841  0.0495
  170loPI   C4B 2720   0.968   5.133   9.490 -0.1256 -0.2305  0.0003
  171loPI    C1 2721   1.425   7.155  11.799 -0.1949 -0.3250 -0.1254
  171loPI    C2 2722   1.042   7.171  11.685 -0.2642 -0.0194  0.1324
  171loPI    C3 2723   1.134   7.175  12.074  0.0069  0.0553  0.0693
  171loPI   PO4 2724   1.543   7.329  11.603 -0.3068  0.1509 -0.0244
  171loPI   GL1 2725   1.471   7.206  11.211 -0.1805  0.0065  0.0998
  171loPI   GL2 2726   1.187   7.086  11.127 -0.0563  0.0362 -0.0029
  171loPI   C1A 2727   1.737   7.157  10.915  0.2044 -0.1241  0.0397
  171loPI   C2A 2728   1.615   7.205  10.503  0.1334  0.0078  0.3599
  171loPI   C3A 2729   1.531   7.121  10.022  0.3220  0.2551 -0.1914
  171loPI   C4A 2730   1.573   7.087   9.633  0.0256  0.2394  0.0437
  171loPI   C5A 2731   1.651   7.090   9.204 -0.3660 -0.0766 -0.2657
  171loPI   C6A 2732   1.604   7.038   8.745 -0.1232  0.3545 -0.0082
  171loPI   C1B 2733   1.090   7.097  10.762 -0.0972  0.0017 -0.2786
  171loPI   C2B 2734   1.066   7.139  10.300 -0.1893 -0.1827 -0.1511
  171loPI   C3B 2735   1.098   6.976   9.845  0.1411  0.0234 -0.2349
  171loPI   C4B 2736   1.100   7.024   9.454 -0.0417 -0.0084  0.0784
  172loPI    C1 2737   7.637  16.806  11.716 -0.0219  0.1342 -0.1339
  172loPI    C2 2738   7.588  16.441  11.873 -0.2003  0.1957 -0.0433
  172loPI    C3 2739   7.692  16.748  12.108 -0.2742  0.2484 -0.0791
  172loPI   PO4 2740   7.787  16.733  11.457  0.1670  0.1022  0.0134
  172loPI   GL1 2741   7.776  16.598  11.083 -0.3653 -0.1280  0.0150
  172loPI   GL2 2742   7.724  16.401  10.863  0.0318  0.0268 -0.0418
  172loPI   C1A 2743   7.864  16.949  10.793  0.1747 -0.1761 -0.3065
  172loPI   C2A 2744   7.833  16.985  10.375 -0.1203 -0.1882 -0.1528
  172loPI   C3A 2745   7.790  17.001   9.979  0.3758  0.2596 -0.0397
  172loPI   C4A 2746   7.775  17.039   9.490  0.0517  0.1651 -0.3673
  172loPI   C5A 2747   7.609  17.100   9.066 -0.1536 -0.0242  0.1780
  172loPI   C6A 2748   7.477  17.181   8.567 -0.0052 -0.1016 -0.0113
  172loPI   C1B 2749   7.639  16.432  10.412  0.1300  0.0028  0.1293
  172loPI   C2B 2750   7.626  16.522  10.045 -0.1969  0.3408 -0.0670
  172loPI   C3B 2751   7.646  16.632   9.712 -0.0360 -0.0815  0.0217
  172loPI   C4B 2752   7.613  16.643   9.266 -0.1238  0.0466  0.0127
  173loPI    C1 2753  10.185   8.220  11.944 -0.0783  0.1204 -0.0992
  173loPI    C2 2754  10.106   8.607  11.881  0.0870  0.1643 -0.0427
  173loPI    C3 2755   9.965   8.425  12.208 -0.0776  0.1493 -0.1208
  173loPI   PO4 2756  10.138   8.114  11.662  0.3838  0.0279 -0.1041
  173loPI   GL1 2757   9.869   8.302  11.265  0.0662  0.0482  0.0270
  173loPI   GL2 2758  10.276   8.352  11.172  0.3677  0.0177  0.2282
  173loPI   C1A 2759   9.839   8.367  10.799  0.1794  0.0270 -0.0496
  173loPI   C2A 2760   9.995   8.351  10.370 -0.1481  0.0046  0.0684
  173loPI   C3A 2761   9.843   8.285   9.950 -0.0969 -0.1517  0.5142
  173loPI   C4A 2762   9.887   8.305   9.595  0.2402 -0.0325  0.1497
  173loPI   C5A 2763  10.109   8.194   9.310 -0.1523  0.2115  0.1443
  173loPI   C6A 2764  10.270   7.770   9.156 -0.0833 -0.2095  0.0009
  173loPI   C1B 2765  10.196   7.981  10.923  0.1382  0.0888 -0.0263
  173loPI   C2B 2766  10.258   7.929  10.473  0.2039  0.2939  0.4310
  173loPI   C3B 2767  10.282   7.977  10.070  0.2254 -0.0092  0.3081
  173loPI   C4B 2768  10.224   7.906   9.678 -0.1172 -0.0452 -0.0166
  174loPI    C1 2769   9.023  17.033  11.819  0.3345 -0.0031  0.1882
  174loPI    C2 2770   8.915  16.810  12.133  0.0337 -0.2302 -0.0701
  174loPI    C3 2771   9.287  16.786  11.988  0.1148 -0.2747  0.1425
  174loPI   PO4 2772   8.858  16.986  11.645  0.1347 -0.0236  0.0260
  174loPI   GL1 2773   8.762  17.033  11.295  0.0716  0.2063  0.0639
  174loPI   GL2 2774   9.060  16.977  11.140 -0.0859 -0.0486 -0.0923
  174loPI   C1A 2775   8.671  16.804  10.937 -0.2937 -0.1324 -0.0192
  174loPI   C2A 2776   8.678  16.753  10.512 -0.0489  0.0303  0.0239
  174loPI   C3A 2777   8.594  16.814  10.096  0.0437 -0.0288 -0.2670
  174loPI   C4A 2778   8.687  16.804   9.662 -0.1725  0.1636  0.0508
  174loPI   C5A 2779   8.704  16.871   9.164 -0.0203  0.1297  0.1885
  174loPI   C6A 2780   8.389  16.957   8.814  0.1661  0.4719 -0.1639
  174loPI   C1B 2781   9.131  16.867  10.722 -0.3230  0.0872 -0.1709
  174loPI   C2B 2782   9.151  16.885  10.275  0.0489 -0.0654  0.0036
  174loPI   C3B 2783   9.175  16.803   9.786 -0.0691 -0.0833  0.1709
  174loPI   C4B 2784   9.218  16.775   9.365  0.1115  0.2527 -0.1030
  175loPI    C1 2785   8.043   8.137  11.748  0.0787  0.2832  0.0950
  175loPI    C2 2786   8.356   7.902  11.831 -0.1411 -0.0218  0.0766
  175loPI    C3 2787   8.159   8.085  12.128  0.0703  0.1954  0.0857
  175loPI   PO4 2788   8.106   8.184  11.514  0.2141 -0.0578 -0.0503
  175loPI   GL1 2789   8.277   8.358  11.169  0.2494 -0.3289  0.1543
  175loPI   GL2 2790   8.036   8.626  11.174  0.1187 -0.0801  0.0029
  175loPI   C1A 2791   7.958   8.282  10.840  0.0043  0.1318  0.1805
  175loPI   C2A 2792   7.947   8.394  10.420  0.0574  0.2859  0.1553
  175loPI   C3A 2793   7.848   8.346   9.920  0.2129 -0.0417 -0.1135
  175loPI   C4A 2794   7.854   8.309   9.523  0.1187  0.0866  0.1002
  175loPI   C5A 2795   7.892   8.145   9.150  0.1071  0.0674 -0.0095
  175loPI   C6A 2796   8.157   7.814   8.901  0.0292  0.1321 -0.3172
  175loPI   C1B 2797   8.154   8.745  10.764  0.1172  0.1068 -0.2701
  175loPI   C2B 2798   8.161   8.906  10.442  0.3201  0.2387 -0.0966
  175loPI   C3B 2799   8.010   8.845  10.003 -0.1118  0.2440  0.0842
  175loPI   C4B 2800   7.995   8.842   9.503  0.1159  0.1324  0.2015
  176loPI    C1 2801   3.845   5.817  11.747  0.0942 -0.2283  0.2195
  176loPI    C2 2802   3.903   6.159  11.945 -0.1547 -0.0711  0.0266
  176loPI    C3 2803   3.759   5.839  12.137 -0.0887 -0.0166  0.1687
  176loPI   PO4 2804   3.978   5.757  11.638 -0.0770  0.0242  0.1211
  176loPI   GL1 2805   4.157   5.735  11.232 -0.2764  0.1040  0.2222
  176loPI   GL2 2806   4.483   5.872  11.217 -0.1875  0.1406 -0.2198
  176loPI   C1A 2807   4.076   5.841  10.821  0.0619 -0.1152  0.0674
  176loPI   C2A 2808   4.042   5.889  10.427 -0.2726 -0.1233  0.0696
  176loPI   C3A 2809   4.019   5.824   9.950  0.2534  0.0440  0.0780
  176loPI   C4A 2810   4.075   5.876   9.519 -0.0099 -0.3133  0.0890
  176loPI   C5A 2811   3.838   5.836   9.145 -0.3470  0.3978 -0.1768
  176loPI   C6A 2812   3.971   5.636   8.767 -0.1221  0.0817  0.0288
  176loPI   C1B 2813   4.637   5.973  10.877  0.2626  0.0822  0.1040
  176loPI   C2B 2814   4.588   5.921  10.397 -0.0671  0.0163  0.0298
  176loPI   C3B 2815   4.583   5.916   9.929  0.2493 -0.2105  0.0589
  176loPI   C4B 2816   4.613   6.080   9.490  0.2063 -0.0583 -0.2038
  177loPI    C1 2817  10.902  11.194  11.529  0.0752  0.0783 -0.0917
  177loPI    C2 2818  10.544  11.035  11.607  0.1895 -0.1081  0.0607
  177loPI    C3 2819  10.800  11.107  11.906  0.2607  0.0714 -0.0421
  177loPI   PO4 2820  10.962  11.118  11.307  0.2116  0.1398  0.0514
  177loPI   GL1 2821  11.032  10.942  10.937  0.1367  0.1488  0.3135
  177loPI   GL2 2822  11.142  10.651  11.087 -0.2361 -0.0329  0.2659
  177loPI   C1A 2823  11.110  10.938  10.503 -0.4123 -0.2679 -0.3636
  177loPI   C2A 2824  11.094  10.932  10.069 -0.1367  0.0658 -0.1055
  177loPI   C3A 2825  11.071  10.925   9.682  0.3067  0.0761 -0.0679
  177loPI   C4A 2826  11.040  10.848   9.229 -0.2949  0.2276  0.2527
  177loPI   C5A 2827  11.395  10.800   8.984  0.0397  0.1558  0.1235
  177loPI   C6A 2828  11.610  10.704   8.699  0.0952 -0.1242  0.1108
  177loPI   C1B 2829  11.358  10.583  10.750 -0.2407  0.1881 -0.0570
  177loPI   C2B 2830  11.477  10.582  10.332 -0.1758  0.0217  0.1255
  177loPI   C3B 2831  11.506  10.610   9.968  0.0301 -0.0096  0.0009
  177loPI   C4B 2832  11.452  10.531   9.455 -0.0345 -0.1476  0.0901
  178loPI    C1 2833  16.070   5.647  11.544  0.1854  0.0939 -0.0497
  178loPI    C2 2834  16.218   5.586  11.910  0.1278  0.0959 -0.0261
  178loPI    C3 2835  15.842   5.478  11.826  0.1248  0.1405 -0.0705
  178loPI   PO4 2836  16.190   5.615  11.388 -0.1586  0.2851  0.2276
  178loPI   GL1 2837  16.173   5.366  11.051 -0.1108 -0.2041 -0.0466
  178loPI   GL2 2838  16.279   5.237  10.858  0.1507  0.1688  0.1339
  178loPI   C1A 2839  15.980   5.585  10.611 -0.0934 -0.0671 -0.0918
  178loPI   C2A 2840  16.072   5.700  10.212 -0.3213 -0.1219 -0.1231
  178loPI   C3A 2841  16.089   5.593   9.756 -0.0700  0.3272  0.1487
  178loPI   C4A 2842  16.090   5.629   9.335  0.1182 -0.0651  0.0014
  178loPI   C5A 2843  15.715   5.743   9.008  0.3787 -0.1162  0.0393
  178loPI   C6A 2844  15.506   5.527   8.696 -0.1316  0.0003 -0.0191
  178loPI   C1B 2845  16.493   5.379  10.464 -0.2842 -0.0475 -0.1472
  178loPI   C2B 2846  16.446   5.382  10.104 -0.0687  0.0001 -0.1231
  178loPI   C3B 2847  16.325   5.215   9.694 -0.1894  0.2372 -0.0852
  178loPI   C4B 2848  16.242   5.116   9.253 -0.0684  0.3231  0.3762
  179loPI    C1 2849   1.427   8.994  11.753  0.1348  0.2110  0.1151
  179loPI    C2 2850   1.179   8.782  11.984  0.3084  0.0243  0.1329
  179loPI    C3 2851   1.509   8.946  12.141  0.2835  0.1313  0.0745
  179loPI   PO4 2852   1.319   9.192  11.588 -0.0113  0.3636 -0.0899
  179loPI   GL1 2853   1.292   9.149  11.167  0.2193  0.2462 -0.1211
  179loPI   GL2 2854   1.296   8.841  11.157 -0.1382 -0.0564  0.0686
  179loPI   C1A 2855   1.275   9.463  10.773  0.0823  0.0159  0.1323
  179loPI   C2A 2856   1.270   9.453  10.381  0.1862 -0.2070  0.1004
  179loPI   C3A 2857   1.298   9.475   9.997  0.0254  0.0855  0.0021
  179loPI   C4A 2858   1.275   9.446   9.605 -0.0414  0.2555 -0.0479
  179loPI   C5A 2859   1.176   9.284   9.263 -0.3092 -0.0661 -0.1260
  179loPI   C6A 2860   1.022   8.939   9.026  0.3653  0.2078 -0.1111
  179loPI   C1B 2861   1.137   8.878  10.754 -0.2656 -0.1429 -0.1819
  179loPI   C2B 2862   1.135   8.925  10.408 -0.0545  0.0802 -0.1856
  179loPI   C3B 2863   1.116   8.949  10.000  0.1470  0.1577  0.0936
  179loPI   C4B 2864   1.071   8.840   9.571  0.0885 -0.0699  0.1832
  180loPI    C1 2865   3.047  16.795  11.792  0.1545 -0.3460 -0.1345
  180loPI    C2 2866   3.345  16.702  12.041  0.1029 -0.1147  0.0168
  180loPI    C3 2867   2.971  16.730  12.179  0.0688 -0.0198 -0.0938
  180loPI   PO4 2868   3.105  16.647  11.570  0.1263  0.0588  0.0088
  180loPI   GL1 2869   3.315  16.654  11.234 -0.0892  0.0928  0.0841
  180loPI   GL2 2870   3.037  16.831  11.121 -0.0891  0.0013  0.0512
  180loPI   C1A 2871   3.391  16.485  10.819  0.1411  0.1066 -0.1135
  180loPI   C2A 2872   3.371  16.507  10.400  0.0891 -0.2085 -0.0707
  180loPI   C3A 2873   3.412  16.542  10.053 -0.0970 -0.0812 -0.0115
  180loPI   C4A 2874   3.371  16.512   9.721  0.1534 -0.0650 -0.0025
  180loPI   C5A 2875   3.269  16.636   9.373  0.1310  0.1352  0.4869
  180loPI   C6A 2876   3.349  17.033   9.156 -0.1979 -0.1519  0.0599
  180loPI   C1B 2877   3.106  16.880  10.627  0.4245  0.1136  0.2747
  180loPI   C2B 2878   3.152  16.912  10.168 -0.2767 -0.6386  0.0129
  180loPI   C3B 2879   2.957  16.948   9.781  0.3409 -0.0058 -0.0288
  180loPI   C4B 2880   2.884  16.952   9.404 -0.1406  0.3554  0.2147
  181loPI    C1 2881   4.333   3.426  11.801  0.0523 -0.1336 -0.1064
  181loPI    C2 2882   3.948   3.493  11.884  0.0984 -0.0880  0.0740
  181loPI    C3 2883   4.184   3.320  12.156  0.2562  0.0793  0.0452
  181loPI   PO4 2884   4.258   3.347  11.545  0.0995  0.2936 -0.3137
  181loPI   GL1 2885   4.126   3.159  11.211  0.0937 -0.3158 -0.1772
  181loPI   GL2 2886   4.008   2.830  11.229 -0.1415 -0.0380 -0.0861
  181loPI   C1A 2887   4.235   3.098  10.783 -0.0770  0.1027 -0.2871
  181loPI   C2A 2888   4.219   3.152  10.318  0.3621  0.0804  0.0606
  181loPI   C3A 2889   4.221   3.120   9.835  0.0328  0.1503 -0.1679
  181loPI   C4A 2890   4.310   3.259   9.406 -0.0129 -0.5277 -0.1290
  181loPI   C5A 2891   4.506   2.973   9.080  0.1219 -0.2558  0.0378
  181loPI   C6A 2892   4.573   2.471   9.049 -0.1282 -0.2119 -0.0290
  181loPI   C1B 2893   4.050   2.615  10.841  0.0678 -0.2784 -0.1759
  181loPI   C2B 2894   4.093   2.653  10.474 -0.0263  0.1831 -0.0912
  181loPI   C3B 2895   4.057   2.652   9.986 -0.0407 -0.0470 -0.0221
  181loPI   C4B 2896   3.936   2.534   9.586  0.2470 -0.2708 -0.0953
  182loPI    C1 2897   5.542   1.563  11.782  0.2059 -0.2163  0.0032
  182loPI    C2 2898   5.384   1.694  12.126  0.0866 -0.0387 -0.1176
  182loPI    C3 2899   5.779   1.645  12.093  0.1214  0.1749 -0.0301
  182loPI   PO4 2900   5.450   1.703  11.589 -0.0873  0.2176  0.1232
  182loPI   GL1 2901   5.725   1.986  11.280  0.1887  0.3759  0.1591
  182loPI   GL2 2902   5.387   2.020  11.200  0.0636 -0.1803 -0.1257
  182loPI   C1A 2903   6.013   2.150  11.051  0.1898 -0.0653 -0.3194
  182loPI   C2A 2904   6.233   2.064  10.665  0.0270  0.0286  0.1119
  182loPI   C3A 2905   6.208   2.057  10.251  0.1104  0.1023 -0.2563
  182loPI   C4A 2906   6.127   2.099   9.838  0.2704 -0.0962  0.0485
  182loPI   C5A 2907   6.251   2.107   9.428 -0.1405 -0.0203  0.2669
  182loPI   C6A 2908   6.113   2.432   9.182  0.0801 -0.3047  0.1596
  182loPI   C1B 2909   5.561   2.146  10.792  0.1572  0.1459  0.2520
  182loPI   C2B 2910   5.710   2.102  10.465  0.0232  0.0851 -0.1775
  182loPI   C3B 2911   5.702   2.038  10.053  0.1987  0.1665 -0.3994
  182loPI   C4B 2912   5.676   2.028   9.704  0.1652  0.0780 -0.3331
  183loPI    C1 2913   6.141  14.605  11.634  0.0476 -0.0800 -0.1486
  183loPI    C2 2914   6.142  15.000  11.576  0.1120 -0.0597 -0.0131
  183loPI    C3 2915   6.328  14.844  11.894  0.1163 -0.2019 -0.0845
  183loPI   PO4 2916   6.177  14.550  11.393  0.0800  0.0406  0.1261
  183loPI   GL1 2917   6.034  14.856  11.094 -0.3119 -0.0925 -0.1577
  183loPI   GL2 2918   5.974  15.085  11.107 -0.1814 -0.0497 -0.2148
  183loPI   C1A 2919   6.168  14.781  10.682 -0.4055 -0.1126 -0.1364
  183loPI   C2A 2920   6.229  14.816  10.296 -0.0041  0.1821 -0.1796
  183loPI   C3A 2921   6.131  14.838   9.980 -0.3201 -0.2513 -0.1692
  183loPI   C4A 2922   6.094  14.833   9.549  0.1313 -0.0370 -0.2607
  183loPI   C5A 2923   6.123  14.687   9.119  0.1831 -0.1379  0.1023
  183loPI   C6A 2924   6.134  14.411   8.673  0.2074  0.3691 -0.0946
  183loPI   C1B 2925   5.815  15.107  10.648  0.0605 -0.1244  0.0476
  183loPI   C2B 2926   5.841  15.163  10.284 -0.0451  0.0790  0.0224
  183loPI   C3B 2927   5.747  15.125   9.900 -0.2556 -0.3441  0.1977
  183loPI   C4B 2928   5.715  15.220   9.422  0.0551 -0.1573 -0.0043
  184loPI    C1 2929   3.389  14.473  11.404 -0.1611  0.0960  0.1148
  184loPI    C2 2930   3.160  14.707  11.634 -0.2085 -0.0103  0.1766
  184loPI    C3 2931   3.052  14.328  11.564 -0.2877  0.0720 -0.1667
  184loPI   PO4 2932   3.459  14.619  11.221  0.0781  0.1436  0.2516
  184loPI   GL1 2933   3.381  14.786  10.860 -0.1074  0.0350 -0.0187
  184loPI   GL2 2934   3.486  15.137  10.790  0.2548  0.0710 -0.3003
  184loPI   C1A 2935   3.346  14.581  10.549  0.1756 -0.2036 -0.0369
  184loPI   C2A 2936   3.221  14.536  10.120 -0.1075  0.0157  0.2368
  184loPI   C3A 2937   3.212  14.628   9.716 -0.0275  0.0461  0.0530
  184loPI   C4A 2938   3.218  14.533   9.276  0.0413 -0.0751 -0.0498
  184loPI   C5A 2939   3.036  14.675   8.928  0.1780 -0.2574 -0.0843
  184loPI   C6A 2940   2.949  14.872   8.516  0.0865  0.1862 -0.1927
  184loPI   C1B 2941   3.454  15.035  10.414 -0.0090 -0.1779  0.2893
  184loPI   C2B 2942   3.488  15.056   9.996  0.0484 -0.1458 -0.1735
  184loPI   C3B 2943   3.362  15.191   9.656  0.0591 -0.1821  0.0893
  184loPI   C4B 2944   3.212  15.122   9.159  0.0160 -0.1024  0.0890
  185loPI    C1 2945   8.420   2.884  12.024 -0.0564 -0.0749 -0.0570
  185loPI    C2 2946   8.631   3.043  12.324  0.1408 -0.1392 -0.1600
  185loPI    C3 2947   8.458   2.686  12.369 -0.0388 -0.0380 -0.0376
  185loPI   PO4 2948   8.603   2.876  11.795  0.2638  0.1035 -0.0610
  185loPI   GL1 2949   8.626   2.897  11.345  0.0166  0.0692  0.3945
  185loPI   GL2 2950   8.314   2.881  11.197 -0.4698  0.1914  0.2350
  185loPI   C1A 2951   8.819   3.030  10.932  0.1441 -0.1357 -0.2211
  185loPI   C2A 2952   8.855   3.047  10.531 -0.0060 -0.0899 -0.0689
  185loPI   C3A 2953   8.823   3.105  10.063 -0.1588  0.2161 -0.0938
  185loPI   C4A 2954   8.816   3.105   9.640 -0.0203  0.2102  0.3149
  185loPI   C5A 2955   8.858   2.847   9.305  0.0707  0.2652 -0.3533
  185loPI   C6A 2956   8.703   2.416   9.123  0.0844  0.0210 -0.1793
  185loPI   C1B 2957   8.351   2.939  10.761  0.0953  0.0881  0.1480
  185loPI   C2B 2958   8.390   3.022  10.362  0.1963 -0.0683 -0.3094
  185loPI   C3B 2959   8.390   2.966   9.917 -0.0065 -0.0179 -0.1809
  185loPI   C4B 2960   8.404   2.901   9.435 -0.0167  0.0354 -0.1503
  186loPI    C1 2961   0.808  14.004  11.831  0.0680 -0.0835  0.1273
  186loPI    C2 2962   0.450  13.847  11.915  0.0500 -0.0443  0.1240
  186loPI    C3 2963   0.721  13.895  12.206 -0.0090  0.0826  0.1587
  186loPI   PO4 2964   0.831  13.861  11.510 -0.0396 -0.2863 -0.0251
  186loPI   GL1 2965   0.846  14.021  10.985  0.1660  0.1824 -0.2064
  186loPI   GL2 2966   1.146  13.797  11.090 -0.1006  0.3374 -0.5788
  186loPI   C1A 2967   0.868  14.042  10.565 -0.4408 -0.2040 -0.0191
  186loPI   C2A 2968   0.715  13.984  10.131 -0.2732 -0.2496  0.2110
  186loPI   C3A 2969   0.705  13.939   9.787  0.1209 -0.1948 -0.0008
  186loPI   C4A 2970   0.710  13.918   9.302 -0.1090  0.0252 -0.0767
  186loPI   C5A 2971   0.893  13.920   8.950  0.1793 -0.1134 -0.0602
  186loPI   C6A 2972   0.781  13.539   8.738 -0.1252 -0.0852 -0.0724
  186loPI   C1B 2973   1.217  13.688  10.719  0.2103  0.1718  0.2957
  186loPI   C2B 2974   1.149  13.651  10.291 -0.1701 -0.1900 -0.0632
  186loPI   C3B 2975   1.213  13.632   9.939 -0.1975  0.1098  0.2545
  186loPI   C4B 2976   1.024  13.618   9.501 -0.0548  0.1053 -0.0393
  187loPI    C1 2977   7.493   4.033  11.873 -0.2765  0.2145 -0.1967
  187loPI    C2 2978   7.757   4.316  11.977 -0.1924  0.0981 -0.0896
  187loPI    C3 2979   7.383   4.327  12.121 -0.1870  0.1499 -0.0793
  187loPI   PO4 2980   7.569   3.995  11.655 -0.2173  0.1763  0.1043
  187loPI   GL1 2981   7.666   3.938  11.267  0.0926 -0.1100  0.0707
  187loPI   GL2 2982   7.781   4.263  11.089  0.1585  0.1196 -0.0607
  187loPI   C1A 2983   7.605   3.713  10.893  0.1409  0.2860  0.1043
  187loPI   C2A 2984   7.606   3.754  10.506  0.2408 -0.1708  0.1035
  187loPI   C3A 2985   7.642   3.768  10.019 -0.2176 -0.0838 -0.0958
  187loPI   C4A 2986   7.733   3.691   9.645 -0.0651 -0.1368 -0.1358
  187loPI   C5A 2987   7.493   3.730   9.262  0.0895  0.0737 -0.2483
  187loPI   C6A 2988   7.085   3.789   9.218  0.1238  0.0089  0.3119
  187loPI   C1B 2989   7.849   4.188  10.651 -0.0529 -0.1767  0.0584
  187loPI   C2B 2990   7.813   4.234  10.189 -0.0438  0.1944 -0.0430
  187loPI   C3B 2991   7.769   4.250   9.816  0.0555  0.1327  0.0308
  187loPI   C4B 2992   7.760   4.094   9.396  0.1674  0.0315 -0.2902
  188loPI    C1 2993  13.488   6.616  11.988  0.1031  0.0253  0.2478
  188loPI    C2 2994  13.703   6.289  12.069  0.1564 -0.0569 -0.2030
  188loPI    C3 2995  13.868   6.651  12.110  0.1504 -0.0896  0.1352
  188loPI   PO4 2996  13.387   6.537  11.752 -0.4435  0.1749 -0.1236
  188loPI   GL1 2997  13.477   6.502  11.304  0.0581 -0.3228 -0.2135
  188loPI   GL2 2998  13.142   6.464  11.256 -0.0937  0.0370 -0.4442
  188loPI   C1A 2999  13.447   6.572  10.898 -0.0804  0.0339 -0.0879
  188loPI   C2A 3000  13.520   6.494  10.426  0.2436 -0.0246  0.1072
  188loPI   C3A 3001  13.583   6.549  10.048  0.2007  0.1357 -0.1545
  188loPI   C4A 3002  13.608   6.491   9.634  0.0441  0.1906  0.2250
  188loPI   C5A 3003  13.620   6.610   9.202  0.0531  0.0040 -0.0896
  188loPI   C6A 3004  13.645   7.077   9.075  0.1314  0.1791  0.0011
  188loPI   C1B 3005  13.023   6.443  10.790 -0.0524 -0.2860  0.0445
  188loPI   C2B 3006  12.985   6.380  10.376 -0.0833 -0.1291 -0.0930
  188loPI   C3B 3007  13.080   6.441   9.937 -0.1137  0.3909  0.0436
  188loPI   C4B 3008  13.049   6.404   9.539  0.0313  0.2754  0.1757
  189loPI    C1 3009  10.540   3.781  11.894 -0.0920  0.1171  0.0282
  189loPI    C2 3010  10.520   3.664  12.276 -0.0613 -0.1502 -0.0502
  189loPI    C3 3011  10.861   3.814  12.129 -0.0650 -0.0731  0.0199
  189loPI   PO4 3012  10.320   3.698  11.630 -0.0887 -0.0224  0.1479
  189loPI   GL1 3013  10.295   3.602  11.175  0.0869 -0.1091  0.1452
  189loPI   GL2 3014  10.662   3.577  11.142  0.3659 -0.1951  0.0591
  189loPI   C1A 3015  10.226   3.512  10.713 -0.3155 -0.0333 -0.2366
  189loPI   C2A 3016  10.204   3.526  10.307 -0.0201 -0.2234 -0.1591
  189loPI   C3A 3017  10.383   3.519   9.934 -0.4687  0.0178 -0.1981
  189loPI   C4A 3018  10.349   3.542   9.523  0.1178  0.2139  0.3102
  189loPI   C5A 3019  10.487   3.729   9.163  0.0006 -0.0075  0.1939
  189loPI   C6A 3020  10.610   3.776   8.842 -0.0970 -0.1182 -0.2758
  189loPI   C1B 3021  10.826   3.692  10.786 -0.1481 -0.1876 -0.1028
  189loPI   C2B 3022  10.755   3.590  10.350  0.0728 -0.0183  0.1920
  189loPI   C3B 3023  10.883   3.627   9.994 -0.0462 -0.0549  0.2426
  189loPI   C4B 3024  10.827   3.566   9.650  0.0389 -0.1635  0.0525
  190loPI    C1 3025  15.683  12.998  11.465  0.2673 -0.1188  0.0065
  190loPI    C2 3026  15.551  13.005  11.843 -0.0154 -0.0492 -0.0914
  190loPI    C3 3027  15.940  13.052  11.766  0.0591 -0.1740  0.1976
  190loPI   PO4 3028  15.529  13.175  11.309 -0.2401 -0.0124  0.0555
  190loPI   GL1 3029  15.388  12.901  11.009  0.3090 -0.4616  0.1908
  190loPI   GL2 3030  15.037  12.779  11.040  0.0445  0.2275  0.0314
  190loPI   C1A 3031  15.433  12.984  10.537 -0.0382 -0.3760 -0.0191
  190loPI   C2A 3032  15.398  12.934  10.146  0.1508  0.2431  0.0223
  190loPI   C3A 3033  15.454  12.885   9.696 -0.0173 -0.0767 -0.1231
  190loPI   C4A 3034  15.402  12.897   9.239 -0.0132 -0.1691 -0.0948
  190loPI   C5A 3035  15.209  12.985   8.930  0.3109  0.2665 -0.0450
  190loPI   C6A 3036  15.018  13.252   8.731  0.1109 -0.2314  0.2161
  190loPI   C1B 3037  14.940  12.766  10.600  0.0361  0.1792  0.1570
  190loPI   C2B 3038  14.919  12.761  10.247 -0.1870 -0.1939  0.1033
  190loPI   C3B 3039  14.992  12.754   9.824  0.0050 -0.2931 -0.0602
  190loPI   C4B 3040  14.919  12.879   9.392 -0.1023 -0.0178 -0.1857
  191loPI    C1 3041   9.890  13.481  11.610  0.0083 -0.0900 -0.0473
  191loPI    C2 3042   9.785  13.867  11.593  0.1865 -0.0257  0.2401
  191loPI    C3 3043   9.656  13.638  11.895  0.0933 -0.1893  0.0784
  191loPI   PO4 3044   9.818  13.307  11.427 -0.3485  0.0645  0.0574
  191loPI   GL1 3045   9.852  13.423  11.020  0.0600 -0.1145 -0.2021
  191loPI   GL2 3046   9.487  13.387  10.950  0.0257 -0.1497  0.0552
  191loPI   C1A 3047  10.032  13.469  10.664 -0.0544 -0.0453 -0.1648
  191loPI   C2A 3048   9.958  13.411  10.266  0.2258  0.1603 -0.0414
  191loPI   C3A 3049   9.970  13.410   9.761  0.2475 -0.0284 -0.2104
  191loPI   C4A 3050   9.936  13.452   9.380  0.3043 -0.0555 -0.1171
  191loPI   C5A 3051   9.917  13.218   8.939 -0.3563 -0.2016 -0.0584
  191loPI   C6A 3052   9.789  13.135   8.524  0.0644 -0.0674  0.1858
  191loPI   C1B 3053   9.530  13.411  10.511  0.1616  0.0919 -0.1130
  191loPI   C2B 3054   9.520  13.279  10.121 -0.0660 -0.0488  0.0673
  191loPI   C3B 3055   9.519  13.271   9.664  0.0028  0.1296  0.1384
  191loPI   C4B 3056   9.401  13.229   9.280  0.0788  0.0101 -0.1901
  192loPI    C1 3057  15.446   7.572  11.955  0.1800  0.0750  0.1537
  192loPI    C2 3058  15.301   7.306  12.216  0.2283  0.0029  0.1077
  192loPI    C3 3059  15.205   7.693  12.250 -0.2238 -0.0844 -0.1013
  192loPI   PO4 3060  15.436   7.415  11.698 -0.0880 -0.0175 -0.0396
  192loPI   GL1 3061  15.490   7.347  11.310  0.2191  0.2856 -0.0180
  192loPI   GL2 3062  15.350   7.685  11.211  0.1404  0.1258 -0.4755
  192loPI   C1A 3063  15.656   7.424  10.877  0.1188  0.1805  0.1311
  192loPI   C2A 3064  15.653   7.426  10.421  0.1298  0.0749  0.0107
  192loPI   C3A 3065  15.697   7.523   9.968  0.1332 -0.0293 -0.0267
  192loPI   C4A 3066  15.762   7.430   9.516  0.1982 -0.1771 -0.3642
  192loPI   C5A 3067  15.748   7.524   9.087 -0.3329 -0.1758 -0.1126
  192loPI   C6A 3068  15.781   7.949   8.845 -0.1543  0.2129  0.1410
  192loPI   C1B 3069  15.271   7.658  10.770 -0.1161 -0.2797 -0.4085
  192loPI   C2B 3070  15.232   7.784  10.391  0.0064 -0.2603  0.1960
  192loPI   C3B 3071  15.283   7.853   9.907 -0.0624  0.3956 -0.1361
  192loPI   C4B 3072  15.476   7.825   9.411 -0.0048  0.0326 -0.3026
  193loPI    C1 3073   8.787  10.007  11.786 -0.1587 -0.1516 -0.1910
  193loPI    C2 3074   8.431  10.146  11.901 -0.1197 -0.0049 -0.2463
  193loPI    C3 3075   8.702  10.040  12.175 -0.0956  0.1677 -0.2022
  193loPI   PO4 3076   8.711   9.872  11.559  0.1133 -0.1096  0.1229
  193loPI   GL1 3077   8.579   9.836  11.138 -0.1343  0.0615  0.1085
  193loPI   GL2 3078   8.689  10.173  11.186 -0.4314  0.1472 -0.1834
  193loPI   C1A 3079   8.547   9.829  10.743 -0.1634 -0.1250  0.1052
  193loPI   C2A 3080   8.451   9.852  10.400  0.1570  0.1259 -0.1818
  193loPI   C3A 3081   8.391   9.834   9.922  0.2471 -0.0361  0.4269
  193loPI   C4A 3082   8.339   9.800   9.548 -0.1873 -0.0569  0.1109
  193loPI   C5A 3083   8.545   9.967   9.196 -0.2018  0.1304  0.0806
  193loPI   C6A 3084   8.916   9.913   8.872 -0.1167 -0.1666 -0.2316
  193loPI   C1B 3085   8.505  10.296  10.853 -0.1200 -0.3142 -0.2051
  193loPI   C2B 3086   8.587  10.313  10.502 -0.1879 -0.0839 -0.1138
  193loPI   C3B 3087   8.528  10.323  10.082 -0.1194 -0.0502 -0.1893
  193loPI   C4B 3088   8.514  10.363   9.646  0.0062  0.3679 -0.0674
  194loPI    C1 3089  13.454   5.972  11.768  0.1733 -0.1027  0.1375
  194loPI    C2 3090  13.193   6.137  12.021  0.0163  0.0030 -0.0899
  194loPI    C3 3091  13.155   5.753  11.917  0.0187 -0.0120 -0.0361
  194loPI   PO4 3092  13.476   6.066  11.519  0.0724  0.4737  0.0152
  194loPI   GL1 3093  13.132   5.983  11.111  0.0211  0.4021 -0.2735
  194loPI   GL2 3094  13.365   6.057  10.997  0.1592  0.0278 -0.2116
  194loPI   C1A 3095  12.869   5.913  10.782  0.1287 -0.0104  0.1548
  194loPI   C2A 3096  12.848   5.921  10.297 -0.2803 -0.2433  0.0800
  194loPI   C3A 3097  12.939   5.962   9.801 -0.0216 -0.1782 -0.1983
  194loPI   C4A 3098  12.898   5.973   9.409 -0.0697  0.0393 -0.0157
  194loPI   C5A 3099  12.881   6.275   9.035 -0.0154  0.2252  0.0830
  194loPI   C6A 3100  13.163   6.542   8.904 -0.1160  0.0152  0.1097
  194loPI   C1B 3101  13.308   6.011  10.524  0.0020 -0.2192 -0.0509
  194loPI   C2B 3102  13.393   6.095  10.161  0.2020  0.0484  0.2911
  194loPI   C3B 3103  13.400   6.054   9.626 -0.2115 -0.1146  0.3614
  194loPI   C4B 3104  13.370   6.170   9.202 -0.0060  0.1671  0.3562
  195loPI    C1 3105   3.647  13.083  11.644  0.1107 -0.1971 -0.0471
  195loPI    C2 3106   3.480  13.137  12.003  0.2510 -0.2544  0.0276
  195loPI    C3 3107   3.776  12.871  11.958  0.2061 -0.2771 -0.1394
  195loPI   PO4 3108   3.385  13.023  11.479  0.0825 -0.0402  0.1732
  195loPI   GL1 3109   3.366  13.269  11.114 -0.3562 -0.0393  0.1589
  195loPI   GL2 3110   3.075  13.141  11.105  0.3536 -0.0157  0.0027
  195loPI   C1A 3111   3.435  13.209  10.718 -0.0918  0.1561  0.1139
  195loPI   C2A 3112   3.423  13.203  10.260  0.0718 -0.1446 -0.1377
  195loPI   C3A 3113   3.417  13.228   9.792 -0.1120 -0.0609  0.1595
  195loPI   C4A 3114   3.309  13.283   9.386  0.1390  0.0188  0.1027
  195loPI   C5A 3115   3.355  13.186   8.940  0.1196 -0.2347  0.1524
  195loPI   C6A 3116   3.490  12.949   8.547 -0.1429 -0.0573 -0.0353
  195loPI   C1B 3117   2.831  13.062  10.715 -0.0497  0.1461 -0.0588
  195loPI   C2B 3118   2.858  12.962  10.216 -0.1689  0.0853  0.0545
  195loPI   C3B 3119   2.835  13.074   9.827 -0.2714  0.1596 -0.2575
  195loPI   C4B 3120   2.858  13.015   9.412  0.1814  0.1901 -0.2158
  196loPI    C1 3121  13.261  10.796  11.821 -0.0690  0.2574  0.0574
  196loPI    C2 3122  13.474  10.553  12.058 -0.2182  0.1611  0.0938
  196loPI    C3 3123  13.080  10.496  12.014 -0.2155  0.2619 -0.0712
  196loPI   PO4 3124  13.351  10.786  11.542  0.0485 -0.0352 -0.3121
  196loPI   GL1 3125  13.418  10.540  11.167 -0.1362  0.0170  0.0508
  196loPI   GL2 3126  13.100  10.524  11.065 -0.2352  0.2709 -0.1990
  196loPI   C1A 3127  13.325  10.616  10.625  0.0259  0.1876 -0.1460
  196loPI   C2A 3128  13.352  10.590  10.095 -0.4199  0.0670 -0.1379
  196loPI   C3A 3129  13.316  10.620   9.630 -0.1675 -0.0626  0.0039
  196loPI   C4A 3130  13.264  10.499   9.154  0.1697 -0.1121  0.0156
  196loPI   C5A 3131  13.460  10.204   8.846 -0.2351  0.0748 -0.1105
  196loPI   C6A 3132  13.686   9.946   8.500  0.2845 -0.0389 -0.2547
  196loPI   C1B 3133  12.877  10.480  10.704 -0.1247 -0.1348  0.1594
  196loPI   C2B 3134  12.868  10.507  10.273 -0.0915  0.0474 -0.0789
  196loPI   C3B 3135  12.834  10.495   9.887  0.0510  0.0863 -0.2748
  196loPI   C4B 3136  12.835  10.460   9.438 -0.2466 -0.0742 -0.0933
  197loPI    C1 3137  13.996   9.062  11.730  0.0293 -0.1147 -0.0932
  197loPI    C2 3138  13.873   8.683  11.766  0.2743 -0.1871 -0.0032
  197loPI    C3 3139  14.151   8.827  12.015  0.1884  0.0500 -0.0427
  197loPI   PO4 3140  14.010   9.046  11.480  0.5040  0.0148  0.2828
  197loPI   GL1 3141  13.796   9.127  11.129 -0.2743  0.1076  0.2306
  197loPI   GL2 3142  14.046   9.359  10.983 -0.3217  0.0545  0.0349
  197loPI   C1A 3143  13.833   8.873  10.712 -0.0011 -0.0566 -0.1971
  197loPI   C2A 3144  13.791   8.962  10.224  0.0050  0.3572 -0.0356
  197loPI   C3A 3145  13.889   8.875   9.763  0.0650  0.3374  0.4041
  197loPI   C4A 3146  13.814   8.826   9.252  0.1933 -0.2396 -0.0368
  197loPI   C5A 3147  13.957   8.931   8.813  0.0727 -0.0671  0.2062
  197loPI   C6A 3148  13.772   9.028   8.438  0.2853  0.0756 -0.1489
  197loPI   C1B 3149  13.947   9.379  10.544  0.0591  0.0266 -0.0006
  197loPI   C2B 3150  13.920   9.464  10.147  0.0935 -0.3647  0.1976
  197loPI   C3B 3151  14.027   9.349   9.695  0.2742  0.0801  0.0245
  197loPI   C4B 3152  13.960   9.450   9.316  0.1464 -0.2943  0.2757
  198loPI    C1 3153  11.211   8.094  11.879  0.1089  0.2529 -0.0010
  198loPI    C2 3154  11.242   8.355  12.180 -0.1562  0.0256  0.2281
  198loPI    C3 3155  11.313   7.967  12.244  0.0278  0.0087 -0.0616
  198loPI   PO4 3156  11.231   8.212  11.674  0.0995  0.0175 -0.0751
  198loPI   GL1 3157  11.267   8.248  11.227 -0.2343  0.1448 -0.2412
  198loPI   GL2 3158  11.369   7.984  11.244 -0.2419  0.0121 -0.0314
  198loPI   C1A 3159  11.213   8.281  10.810  0.0834  0.0072  0.3833
  198loPI   C2A 3160  11.282   8.274  10.431  0.4006 -0.0060  0.1699
  198loPI   C3A 3161  11.338   8.272   9.924  0.2777  0.0376  0.2630
  198loPI   C4A 3162  11.252   8.352   9.551 -0.0971  0.0326  0.0860
  198loPI   C5A 3163  11.398   8.309   9.123 -0.0283 -0.1938  0.0423
  198loPI   C6A 3164  11.194   8.383   8.706  0.3089 -0.1417  0.1467
  198loPI   C1B 3165  11.561   7.929  10.899 -0.0687  0.0520  0.0168
  198loPI   C2B 3166  11.599   7.927  10.435 -0.0674 -0.0304 -0.1322
  198loPI   C3B 3167  11.551   7.836   9.995  0.5420 -0.0914 -0.0148
  198loPI   C4B 3168  11.616   7.980   9.563  0.1600  0.1269  0.0218
  199loPI    C1 3169  10.604  12.295  11.638  0.2259  0.1105  0.2975
  199loPI    C2 3170  10.252  12.459  11.541  0.2365 -0.0768 -0.0778
  199loPI    C3 3171  10.554  12.691  11.664 -0.0183  0.0840  0.2617
  199loPI   PO4 3172  10.608  12.121  11.405 -0.2899  0.2660  0.2469
  199loPI   GL1 3173  10.467  12.292  11.032 -0.0411  0.3637 -0.1350
  199loPI   GL2 3174  10.469  11.879  11.013  0.0367 -0.3738  0.2314
  199loPI   C1A 3175  10.534  12.202  10.639 -0.1091 -0.2524  0.4473
  199loPI   C2A 3176  10.459  12.172  10.241 -0.2362  0.2649  0.1794
  199loPI   C3A 3177  10.505  12.146   9.832 -0.0511 -0.0456  0.4167
  199loPI   C4A 3178  10.479  12.103   9.378 -0.1053  0.2761 -0.0699
  199loPI   C5A 3179  10.620  12.019   8.984  0.0636 -0.1524 -0.2047
  199loPI   C6A 3180  10.784  12.032   8.572 -0.0505  0.2181 -0.0461
  199loPI   C1B 3181  10.408  11.725  10.628  0.0619  0.3099  0.0519
  199loPI   C2B 3182  10.352  11.672  10.150 -0.1326 -0.0048  0.1409
  199loPI   C3B 3183  10.379  11.633   9.689 -0.1698  0.1013 -0.1509
  199loPI   C4B 3184  10.488  11.604   9.250 -0.1595  0.3163  0.0491
  200loPI    C1 3185   7.119  11.283  11.658  0.1001  0.0990 -0.0852
  200loPI    C2 3186   6.754  11.258  11.820  0.1476 -0.0359  0.0020
  200loPI    C3 3187   7.079  11.211  12.049  0.2257  0.3309 -0.0274
  200loPI   PO4 3188   7.123  11.161  11.445 -0.1357  0.0366  0.1017
  200loPI   GL1 3189   7.101  11.279  11.011 -0.1064 -0.1848  0.0859
  200loPI   GL2 3190   7.022  10.877  11.031 -0.0495  0.1440 -0.3313
  200loPI   C1A 3191   7.032  11.223  10.533 -0.3690 -0.0990  0.0032
  200loPI   C2A 3192   7.043  11.220  10.039  0.1122 -0.1351  0.1739
  200loPI   C3A 3193   7.135  11.197   9.642 -0.0870  0.0843  0.0372
  200loPI   C4A 3194   7.110  11.380   9.339  0.1217 -0.0268  0.0119
  200loPI   C5A 3195   7.433  11.639   9.166  0.2264  0.2677  0.1135
  200loPI   C6A 3196   7.325  12.010   9.029  0.1342  0.0217 -0.0751
  200loPI   C1B 3197   6.916  10.756  10.698 -0.1545 -0.1807 -0.0882
  200loPI   C2B 3198   6.795  10.883  10.246  0.0558  0.1022 -0.2332
  200loPI   C3B 3199   6.827  10.683   9.841  0.1227 -0.5364  0.3178
  200loPI   C4B 3200   6.816  10.806   9.460  0.0602 -0.0266  0.0003
  201loPI    C1 3201   6.868  16.137  11.684  0.0596 -0.1334 -0.0055
  201loPI    C2 3202   7.121  16.296  11.950 -0.2799  0.3959  0.0158
  201loPI    C3 3203   6.728  16.360  11.985 -0.3686  0.0940 -0.3613
  201loPI   PO4 3204   6.929  16.129  11.479  0.0454  0.0320 -0.2001
  201loPI   GL1 3205   6.846  16.037  11.181  0.1737  0.2063 -0.0814
  201loPI   GL2 3206   6.624  16.263  11.139  0.1578 -0.0116  0.2330
  201loPI   C1A 3207   6.985  15.914  10.778 -0.2755  0.1408 -0.0857
  201loPI   C2A 3208   6.892  15.961  10.372  0.0121 -0.1498  0.3060
  201loPI   C3A 3209   6.924  15.966   9.944 -0.1989  0.0606 -0.1255
  201loPI   C4A 3210   6.794  15.971   9.465  0.0667 -0.0134  0.0069
  201loPI   C5A 3211   6.966  15.872   9.098 -0.0601 -0.0296  0.0712
  201loPI   C6A 3212   7.250  16.145   8.894  0.1084 -0.2355  0.0181
  201loPI   C1B 3213   6.566  16.231  10.634 -0.1070 -0.0354  0.1994
  201loPI   C2B 3214   6.566  16.355  10.209 -0.0401 -0.3193  0.0837
  201loPI   C3B 3215   6.575  16.350   9.787 -0.0709  0.1274 -0.1267
  201loPI   C4B 3216   6.498  16.382   9.315 -0.0708  0.0268 -0.1071
  202loPI    C1 3217   2.169  11.387  11.602  0.3137 -0.0835  0.1753
  202loPI    C2 3218   1.947  11.080  11.730  0.1294 -0.0396 -0.0328
  202loPI    C3 3219   2.088  11.347  11.992 -0.0187 -0.0976  0.1083
  202loPI   PO4 3220   2.395  11.282  11.429 -0.1153  0.1119 -0.2185
  202loPI   GL1 3221   2.406  11.401  11.160  0.1579 -0.3407 -0.1839
  202loPI   GL2 3222   2.093  11.554  11.126  0.0796 -0.2333  0.0704
  202loPI   C1A 3223   2.402  11.222  10.721 -0.0123  0.1201 -0.3776
  202loPI   C2A 3224   2.281  11.139  10.374 -0.0030  0.1407 -0.1173
  202loPI   C3A 3225   2.290  11.120   9.931 -0.0438 -0.0669 -0.2234
  202loPI   C4A 3226   2.148  11.033   9.581  0.2826 -0.0406  0.3425
  202loPI   C5A 3227   2.250  10.955   9.083 -0.0542 -0.1323 -0.1645
  202loPI   C6A 3228   2.158  11.070   8.648  0.1813  0.0885 -0.0640
  202loPI   C1B 3229   1.951  11.534  10.666  0.0269 -0.2429  0.1800
  202loPI   C2B 3230   1.886  11.428  10.209  0.1585 -0.0510  0.0015
  202loPI   C3B 3231   1.885  11.341   9.800  0.2244 -0.1341 -0.0304
  202loPI   C4B 3232   1.849  11.378   9.302 -0.0723 -0.0518 -0.0717
  203loPI    C1 3233   2.321   4.820  11.824 -0.2406  0.0772  0.1766
  203loPI    C2 3234   2.550   4.937  12.130  0.0641  0.0463 -0.0362
  203loPI    C3 3235   2.543   4.552  12.022 -0.4396 -0.0338  0.2529
  203loPI   PO4 3236   2.435   5.140  11.661  0.2072 -0.0484  0.1415
  203loPI   GL1 3237   2.285   5.242  11.230  0.0290 -0.1969  0.3717
  203loPI   GL2 3238   2.426   5.010  10.886  0.0071 -0.0118 -0.0330
  203loPI   C1A 3239   2.528   5.508  10.781  0.2161  0.1509  0.0109
  203loPI   C2A 3240   2.476   5.586  10.262  0.0936 -0.0737 -0.0152
  203loPI   C3A 3241   2.491   5.531   9.809 -0.0544  0.3393 -0.6127
  203loPI   C4A 3242   2.568   5.327   9.264 -0.2097  0.1992  0.2050
  203loPI   C5A 3243   2.818   5.326   8.930 -0.1074 -0.0349  0.1201
  203loPI   C6A 3244   2.991   5.349   8.535  0.3051 -0.3322 -0.0003
  203loPI   C1B 3245   2.414   5.030  10.362  0.0477 -0.2008 -0.0238
  203loPI   C2B 3246   2.347   5.026   9.909  0.1110  0.0044 -0.2353
  203loPI   C3B 3247   2.290   5.048   9.575 -0.3160  0.1357 -0.0129
  203loPI   C4B 3248   2.467   4.826   9.271 -0.2177 -0.1443  0.3426
  204loPI    C1 3249  11.289   7.625  11.740  0.0667 -0.1317  0.1907
  204loPI    C2 3250  11.609   7.861  11.692  0.1187 -0.1782  0.3052
  204loPI    C3 3251  11.586   7.616  12.007  0.1860 -0.5190  0.0514
  204loPI   PO4 3252  11.293   7.517  11.486 -0.1169  0.0642  0.4292
  204loPI   GL1 3253  11.501   7.143  11.269 -0.1568 -0.1209  0.0127
  204loPI   GL2 3254  11.495   7.457  11.051  0.0395  0.1850 -0.2194
  204loPI   C1A 3255  11.399   6.993  10.890 -0.0330 -0.0328  0.4518
  204loPI   C2A 3256  11.333   6.907  10.472 -0.2239  0.0054  0.1172
  204loPI   C3A 3257  11.287   6.905  10.018  0.1169  0.2102  0.3680
  204loPI   C4A 3258  11.328   6.881   9.609  0.3235 -0.2158 -0.0688
  204loPI   C5A 3259  11.455   6.814   9.215  0.0959 -0.2584 -0.2307
  204loPI   C6A 3260  11.750   6.691   8.842 -0.1620  0.3025 -0.1738
  204loPI   C1B 3261  11.479   7.446  10.602 -0.1139  0.0328  0.4797
  204loPI   C2B 3262  11.447   7.370  10.195 -0.0283  0.0690 -0.0931
  204loPI   C3B 3263  11.466   7.373   9.779  0.0005  0.0240  0.0659
  204loPI   C4B 3264  11.518   7.425   9.400  0.1100  0.1195 -0.1609
  205loPI    C1 3265   2.652   4.293  11.590 -0.1508  0.0415  0.0453
  205loPI    C2 3266   2.971   4.385  11.812  0.0589 -0.1805 -0.1584
  205loPI    C3 3267   2.726   4.091  11.927 -0.1212  0.0438  0.0402
  205loPI   PO4 3268   2.743   4.258  11.339  0.1377 -0.0881 -0.0469
  205loPI   GL1 3269   2.771   4.489  11.047  0.0809 -0.0790 -0.1178
  205loPI   GL2 3270   2.712   4.641  10.811  0.1239  0.0452  0.0440
  205loPI   C1A 3271   3.157   4.350  10.802 -0.1812 -0.3586  0.0216
  205loPI   C2A 3272   3.143   4.238  10.331 -0.1095  0.0210  0.1630
  205loPI   C3A 3273   3.028   4.242   9.913  0.0570 -0.2562  0.0433
  205loPI   C4A 3274   3.091   4.127   9.434 -0.2296 -0.0670  0.4218
  205loPI   C5A 3275   3.360   4.017   9.024 -0.2398 -0.1331 -0.1640
  205loPI   C6A 3276   3.609   3.861   8.832 -0.1864  0.4196  0.0151
  205loPI   C1B 3277   2.751   4.674  10.384 -0.0081  0.2279  0.1744
  205loPI   C2B 3278   2.689   4.652   9.943  0.3434  0.0296 -0.0142
  205loPI   C3B 3279   2.805   4.584   9.535 -0.0416 -0.0670  0.3733
  205loPI   C4B 3280   2.799   4.513   9.096  0.1199 -0.1084 -0.0143
  206loPI    C1 3281  10.611   9.707  11.497  0.1675  0.0576  0.1187
  206loPI    C2 3282  10.531  10.050  11.686 -0.0214  0.0508  0.0530
  206loPI    C3 3283  10.312   9.724  11.762  0.1946 -0.0718  0.1580
  206loPI   PO4 3284  10.660   9.765  11.251 -0.1225  0.0156  0.0630
  206loPI   GL1 3285  10.437   9.767  10.890 -0.3563 -0.0635 -0.4108
  206loPI   GL2 3286  10.682   9.542  10.720 -0.2312  0.1564 -0.0917
  206loPI   C1A 3287  10.374   9.796  10.399  0.0975 -0.0789  0.1974
  206loPI   C2A 3288  10.235   9.752  10.015 -0.0251  0.0914 -0.0474
  206loPI   C3A 3289  10.333   9.663   9.634  0.0036 -0.0218 -0.0242
  206loPI   C4A 3290  10.291   9.593   9.128  0.2619  0.2070  0.4389
  206loPI   C5A 3291  10.303   9.418   8.740  0.2605  0.1475  0.2428
  206loPI   C6A 3292  10.341   9.126   8.407 -0.1994  0.0446  0.2243
  206loPI   C1B 3293  10.654   9.441  10.257 -0.0915  0.0328 -0.0023
  206loPI   C2B 3294  10.682   9.413   9.871  0.2233  0.2044  0.1691
  206loPI   C3B 3295  10.733   9.482   9.415 -0.0409  0.1682 -0.2254
  206loPI   C4B 3296  10.833   9.435   9.007  0.1959  0.1245  0.5951
  207loPI    C1 3297  10.298   2.187  11.505  0.0569  0.0817  0.0370
  207loPI    C2 3298  10.652   2.305  11.650  0.1745  0.0283 -0.2026
  207loPI    C3 3299  10.314   2.441  11.814  0.3051  0.0887  0.0209
  207loPI   PO4 3300  10.318   2.059  11.338  0.1569 -0.3409 -0.1800
  207loPI   GL1 3301  10.410   2.012  10.981  0.3802  0.0592  0.0155
  207loPI   GL2 3302  10.400   1.679  11.036  0.2266 -0.0359  0.1213
  207loPI   C1A 3303  10.414   2.141  10.550  0.1038  0.2889  0.3969
  207loPI   C2A 3304  10.419   2.206  10.035 -0.0914 -0.0158  0.2673
  207loPI   C3A 3305  10.441   2.183   9.605  0.0646  0.3581  0.0285
  207loPI   C4A 3306  10.421   2.200   9.170  0.0073 -0.2058  0.0787
  207loPI   C5A 3307  10.504   2.400   8.811 -0.0061 -0.1322  0.0358
  207loPI   C6A 3308  10.585   2.488   8.487 -0.2982  0.1601 -0.1524
  207loPI   C1B 3309  10.323   1.685  10.641 -0.0853 -0.0244  0.1233
  207loPI   C2B 3310  10.251   1.645  10.161 -0.2079  0.2748 -0.0025
  207loPI   C3B 3311  10.269   1.647   9.745 -0.2341 -0.1733  0.0504
  207loPI   C4B 3312  10.261   1.738   9.304 -0.0806 -0.2180 -0.1090
  208loPI    C1 3313   3.646  16.318  11.932  0.1962  0.1181  0.1632
  208loPI    C2 3314   4.018  16.353  12.074  0.1524  0.1500  0.2720
  208loPI    C3 3315   3.707  16.382  12.322  0.0890 -0.3161  0.2572
  208loPI   PO4 3316   3.637  16.463  11.652 -0.1999 -0.0924  0.1160
  208loPI   GL1 3317   3.684  16.242  11.279  0.2184  0.1184  0.2807
  208loPI   GL2 3318   3.985  16.504  11.149  0.1658  0.1472 -0.0749
  208loPI   C1A 3319   3.767  16.133  10.865 -0.1266  0.0027 -0.1883
  208loPI   C2A 3320   3.778  16.224  10.468  0.3412 -0.2629 -0.1290
  208loPI   C3A 3321   3.787  16.179  10.051 -0.3228  0.3622  0.1508
  208loPI   C4A 3322   3.699  16.137   9.573 -0.0797 -0.1745  0.1673
  208loPI   C5A 3323   3.509  16.204   9.238 -0.1143  0.1678 -0.2056
  208loPI   C6A 3324   3.378  16.457   8.916 -0.0769  0.2097  0.1952
  208loPI   C1B 3325   3.981  16.772  10.729  0.2899  0.4761  0.0761
  208loPI   C2B 3326   3.994  16.627  10.288 -0.2664 -0.2181 -0.2684
  208loPI   C3B 3327   3.911  16.628   9.877  0.2083 -0.2871  0.0820
  208loPI   C4B 3328   3.721  16.729   9.410 -0.1724 -0.0532  0.2310
  209loPI    C1 3329  11.065  12.782  11.610  0.3591 -0.2695  0.2367
  209loPI    C2 3330  10.982  12.548  11.923 -0.0860 -0.0381  0.2999
  209loPI    C3 3331  11.038  12.940  11.977 -0.2023  0.0092  0.0861
  209loPI   PO4 3332  11.276  12.676  11.403  0.0844  0.1778 -0.0082
  209loPI   GL1 3333  11.364  12.582  11.055 -0.0002  0.3183  0.0382
  209loPI   GL2 3334  11.144  12.797  10.860 -0.0238  0.2794 -0.1140
  209loPI   C1A 3335  11.548  12.458  10.753  0.0605 -0.2096 -0.0501
  209loPI   C2A 3336  11.556  12.528  10.307  0.1037 -0.0066 -0.3840
  209loPI   C3A 3337  11.541  12.488   9.870 -0.1074  0.0933 -0.0150
  209loPI   C4A 3338  11.528  12.383   9.396 -0.1065  0.3356  0.0457
  209loPI   C5A 3339  11.660  12.379   8.979 -0.0616  0.1829 -0.1071
  209loPI   C6A 3340  11.985  12.559   8.690  0.0157 -0.1252 -0.1336
  209loPI   C1B 3341  11.074  12.837  10.458  0.0431  0.3071 -0.1151
  209loPI   C2B 3342  11.128  12.853   9.998 -0.0241 -0.0144  0.1705
  209loPI   C3B 3343  11.161  12.718   9.526  0.1511 -0.0742  0.1990
  209loPI   C4B 3344  11.188  12.736   9.174 -0.1962  0.0101  0.0831
  210loPI    C1 3345   4.155  11.235  12.001  0.1814 -0.1038 -0.0344
  210loPI    C2 3346   4.058  10.934  12.246 -0.2068  0.0686  0.0325
  210loPI    C3 3347   4.418  11.108  12.274 -0.0049 -0.3386  0.0392
  210loPI   PO4 3348   4.179  11.199  11.805  0.3135 -0.0221 -0.0199
  210loPI   GL1 3349   4.407  11.227  11.493 -0.0945  0.0879  0.2424
  210loPI   GL2 3350   4.245  11.238  11.282 -0.1348  0.1850 -0.1785
  210loPI   C1A 3351   4.710  11.367  11.112 -0.0997  0.0810  0.0966
  210loPI   C2A 3352   4.749  11.208  10.625 -0.0532  0.1793 -0.1621
  210loPI   C3A 3353   4.609  11.210  10.277 -0.1077 -0.1925 -0.2656
  210loPI   C4A 3354   4.557  11.187   9.792 -0.0603  0.0750 -0.1345
  210loPI   C5A 3355   4.546  11.092   9.352  0.1170  0.0954 -0.0498
  210loPI   C6A 3356   4.223  10.915   9.144 -0.1002 -0.1300 -0.1278
  210loPI   C1B 3357   4.331  11.105  10.947  0.2208 -0.0307 -0.1630
  210loPI   C2B 3358   4.243  11.086  10.531  0.1269  0.0679 -0.1526
  210loPI   C3B 3359   4.135  11.011  10.088  0.1221  0.1306 -0.2674
  210loPI   C4B 3360   4.022  11.085   9.606  0.0279  0.2731 -0.0618
  211loPI    C1 3361   5.667  10.503  11.587  0.0000 -0.0742  0.1984
  211loPI    C2 3362   5.464  10.337  11.889 -0.3942 -0.0355 -0.0383
  211loPI    C3 3363   5.395  10.717  11.787 -0.0105  0.0599  0.0426
  211loPI   PO4 3364   5.636  10.364  11.385 -0.0731  0.2000  0.1251
  211loPI   GL1 3365   5.418  10.116  11.043  0.2089  0.0060 -0.1788
  211loPI   GL2 3366   5.714  10.123  10.804 -0.0351  0.1655  0.1046
  211loPI   C1A 3367   5.270  10.044  10.647  0.0351 -0.3517 -0.2758
  211loPI   C2A 3368   5.114   9.886  10.286 -0.1626 -0.0185 -0.1381
  211loPI   C3A 3369   5.159   9.902   9.897 -0.0257  0.1262 -0.1908
  211loPI   C4A 3370   5.036   9.923   9.449 -0.2296 -0.0638  0.1597
  211loPI   C5A 3371   5.193  10.087   9.047  0.0335  0.1080 -0.0527
  211loPI   C6A 3372   5.471  10.086   8.661  0.1284 -0.2033 -0.0060
  211loPI   C1B 3373   5.747  10.123  10.408  0.0235  0.0743  0.1912
  211loPI   C2B 3374   5.577  10.113  10.015  0.1367 -0.1465  0.0070
  211loPI   C3B 3375   5.579  10.114   9.689  0.1096 -0.1930  0.3124
  211loPI   C4B 3376   5.593  10.305   9.279  0.0493  0.0537  0.0380
  212loPI    C1 3377  14.675   5.592  11.527  0.1019 -0.1152 -0.1390
  212loPI    C2 3378  14.757   5.236  11.690  0.1850 -0.0682 -0.0776
  212loPI    C3 3379  14.788   5.569  11.910 -0.2098 -0.0511 -0.0395
  212loPI   PO4 3380  14.620   5.467  11.188  0.1172  0.0540  0.2335
  212loPI   GL1 3381  14.541   5.807  10.960 -0.1060 -0.0894  0.0614
  212loPI   GL2 3382  14.169   5.954  10.823 -0.1833  0.0000 -0.2805
  212loPI   C1A 3383  14.687   5.655  10.562  0.1275 -0.0804  0.1160
  212loPI   C2A 3384  14.676   5.579  10.114  0.3800 -0.0909 -0.1797
  212loPI   C3A 3385  14.556   5.749   9.778 -0.1195  0.0251  0.0184
  212loPI   C4A 3386  14.593   5.560   9.359  0.1458  0.2302  0.3190
  212loPI   C5A 3387  14.546   5.669   8.965 -0.0035 -0.2393  0.1571
  212loPI   C6A 3388  14.643   5.859   8.589  0.1174 -0.1018  0.0704
  212loPI   C1B 3389  14.413   6.063  10.499  0.0699 -0.0345  0.0752
  212loPI   C2B 3390  14.383   6.125  10.065  0.4112  0.1407  0.1072
  212loPI   C3B 3391  14.438   6.277   9.610  0.1181 -0.2080  0.1478
  212loPI   C4B 3392  14.314   5.976   9.273  0.2567  0.0393 -0.1822
  213loPI    C1 3393  11.975  16.987  11.720  0.1382  0.0448 -0.0175
  213loPI    C2 3394  12.351  16.937  11.847  0.1072 -0.1710 -0.0068
  213loPI    C3 3395  12.049  16.932  12.109  0.0813 -0.1764 -0.0367
  213loPI   PO4 3396  11.966  17.193  11.535 -0.2382  0.0798  0.1705
  213loPI   GL1 3397  11.827  17.343  11.132  0.0224  0.0188 -0.1049
  213loPI   GL2 3398  11.760  17.076  10.943  0.1645 -0.1820 -0.1479
  213loPI   C1A 3399  11.833  17.610  10.709 -0.0517 -0.3425  0.0427
  213loPI   C2A 3400  11.794  17.588  10.206 -0.2044  0.2645 -0.0420
  213loPI   C3A 3401  11.685  17.527   9.768 -0.0492  0.1390  0.1923
  213loPI   C4A 3402  11.734  17.551   9.442 -0.0050  0.1243 -0.0872
  213loPI   C5A 3403  11.811  17.429   9.013 -0.1871 -0.0732  0.2190
  213loPI   C6A 3404  11.534  17.502   8.645  0.0380  0.3406 -0.3519
  213loPI   C1B 3405  11.650  17.155  10.493 -0.3196 -0.2070  0.0169
  213loPI   C2B 3406  11.632  17.146  10.065  0.2065  0.0144  0.1475
  213loPI   C3B 3407  11.633  17.024   9.744 -0.0858 -0.1384 -0.0674
  213loPI   C4B 3408  11.573  17.065   9.340  0.1777  0.2121  0.0480
  214loPI    C1 3409  11.110  13.813  11.466 -0.2498 -0.1817  0.0713
  214loPI    C2 3410  11.193  13.807  11.857  0.1717 -0.0023 -0.0096
  214loPI    C3 3411  10.854  13.976  11.727 -0.1500 -0.3859  0.3002
  214loPI   PO4 3412  11.110  13.672  11.336  0.1447 -0.0915 -0.0634
  214loPI   GL1 3413  10.778  13.489  11.011  0.0376 -0.1192 -0.1391
  214loPI   GL2 3414  10.935  13.274  10.820 -0.1934  0.0926  0.1015
  214loPI   C1A 3415  10.490  13.612  10.698 -0.2827 -0.0632 -0.1099
  214loPI   C2A 3416  10.449  13.488  10.256  0.0804 -0.1031  0.0466
  214loPI   C3A 3417  10.469  13.462   9.777  0.0433  0.0923  0.0544
  214loPI   C4A 3418  10.455  13.583   9.413 -0.2470  0.1595  0.2238
  214loPI   C5A 3419  10.531  13.392   9.006  0.0221  0.2130  0.2818
  214loPI   C6A 3420  10.261  13.360   8.550  0.2005  0.2086  0.2133
  214loPI   C1B 3421  10.707  13.148  10.501 -0.0377 -0.1615  0.0476
  214loPI   C2B 3422  10.801  13.218  10.100 -0.0542  0.2408 -0.0506
  214loPI   C3B 3423  10.849  13.113   9.697  0.0801 -0.1031 -0.2247
  214loPI   C4B 3424  10.833  13.033   9.331  0.0902  0.3477  0.3978
  215loPI    C1 3425   8.349   5.086  12.011  0.0492 -0.0269  0.1515
  215loPI    C2 3426   8.338   5.429  12.216 -0.2727  0.0035  0.0882
  215loPI    C3 3427   8.536   5.114  12.364 -0.0081  0.2018  0.1652
  215loPI   PO4 3428   8.353   5.188  11.647 -0.0556  0.0079  0.0101
  215loPI   GL1 3429   8.585   5.382  11.380  0.1368  0.1527  0.5011
  215loPI   GL2 3430   8.736   5.590  11.406  0.1421  0.2937  0.1963
  215loPI   C1A 3431   8.565   5.294  11.022  0.0969 -0.1755 -0.1537
  215loPI   C2A 3432   8.610   5.246  10.626 -0.0745 -0.2904  0.2187
  215loPI   C3A 3433   8.596   5.361  10.269  0.0777 -0.0394  0.0891
  215loPI   C4A 3434   8.500   5.324   9.800 -0.1282  0.0242 -0.1611
  215loPI   C5A 3435   8.625   5.277   9.311 -0.2052 -0.2942 -0.2939
  215loPI   C6A 3436   8.877   5.310   8.940 -0.5008  0.0040 -0.2274
  215loPI   C1B 3437   8.757   5.719  11.014 -0.3210 -0.0649  0.1364
  215loPI   C2B 3438   8.732   5.759  10.516  0.2869  0.0292 -0.0996
  215loPI   C3B 3439   8.670   5.811  10.057 -0.0779 -0.0214  0.0073
  215loPI   C4B 3440   8.733   5.711   9.599  0.0884 -0.0351 -0.0519
  216loPI    C1 3441  12.064   3.612  11.762 -0.1173  0.0044 -0.0197
  216loPI    C2 3442  11.806   3.414  11.994 -0.0976  0.3183  0.2767
  216loPI    C3 3443  12.185   3.463  12.113  0.0483  0.0430 -0.0593
  216loPI   PO4 3444  12.061   3.397  11.495  0.2633 -0.2092  0.0102
  216loPI   GL1 3445  12.318   3.463  11.119  0.0498  0.1029  0.1522
  216loPI   GL2 3446  12.162   3.738  11.112  0.1246  0.0951  0.0826
  216loPI   C1A 3447  12.238   3.524  10.623 -0.1991 -0.0079 -0.1563
  216loPI   C2A 3448  12.132   3.554  10.287 -0.0032  0.1495  0.0104
  216loPI   C3A 3449  12.260   3.439   9.813  0.2318  0.1756 -0.2587
  216loPI   C4A 3450  12.315   3.416   9.390 -0.0256  0.0054  0.0326
  216loPI   C5A 3451  12.138   3.716   9.223 -0.0402  0.0562  0.2256
  216loPI   C6A 3452  11.761   3.778   9.039  0.3298  0.1864 -0.2322
  216loPI   C1B 3453  11.903   3.869  10.797 -0.0706 -0.1315  0.0703
  216loPI   C2B 3454  11.727   3.878  10.435 -0.1114  0.0141  0.0251
  216loPI   C3B 3455  11.829   3.844  10.012  0.0133 -0.2086 -0.0923
  216loPI   C4B 3456  11.893   3.891   9.632 -0.1987  0.0680 -0.0720
  217loPI    C1 3457  10.500   0.432  11.685  0.2487 -0.1890  0.0105
  217loPI    C2 3458  10.527   0.044  11.776  0.0501 -0.2005  0.0259
  217loPI    C3 3459  10.218   0.259  11.911  0.1301 -0.0499 -0.0292
  217loPI   PO4 3460  10.687   0.396  11.488  0.1806 -0.3792  0.1118
  217loPI   GL1 3461  10.759   0.582  11.139  0.1546  0.0349 -0.0919
  217loPI   GL2 3462  10.583   0.767  10.990 -0.3640 -0.0887  0.1550
  217loPI   C1A 3463  10.893   0.446  10.681 -0.2244  0.0439  0.1302
  217loPI   C2A 3464  10.906   0.392  10.261  0.1886 -0.1440  0.1542
  217loPI   C3A 3465  10.849   0.418   9.866 -0.1869 -0.4544 -0.2077
  217loPI   C4A 3466  10.852   0.448   9.482 -0.2822 -0.0083  0.0016
  217loPI   C5A 3467  10.881   0.818   9.150 -0.2808 -0.0004  0.0662
  217loPI   C6A 3468  10.956   0.861   8.732 -0.1199  0.1141 -0.2776
  217loPI   C1B 3469  10.532   0.787  10.529 -0.0352  0.0442  0.0439
  217loPI   C2B 3470  10.566   0.867  10.097  0.1357  0.3000 -0.1816
  217loPI   C3B 3471  10.488   0.753   9.726 -0.1611 -0.2569 -0.1415
  217loPI   C4B 3472  10.407   0.777   9.293 -0.0260 -0.0021 -0.1862
  218loPI    C1 3473   3.081   8.952  11.760 -0.2273  0.1056  0.0687
  218loPI    C2 3474   3.399   9.105  11.948 -0.0780 -0.0029 -0.0925
  218loPI    C3 3475   3.207   8.791  12.104 -0.0439 -0.0011 -0.0468
  218loPI   PO4 3476   3.160   8.824  11.539  0.1546  0.3271 -0.0169
  218loPI   GL1 3477   3.240   8.635  11.159 -0.1390  0.1656  0.0207
  218loPI   GL2 3478   3.502   8.603  11.234 -0.0781  0.0996  0.2321
  218loPI   C1A 3479   3.390   8.498  10.641 -0.1580  0.0267 -0.0370
  218loPI   C2A 3480   3.302   8.420  10.220  0.0553 -0.2192  0.0735
  218loPI   C3A 3481   3.297   8.587   9.832 -0.0143  0.1760 -0.0072
  218loPI   C4A 3482   3.244   8.457   9.340 -0.1569 -0.3493 -0.1025
  218loPI   C5A 3483   3.157   8.468   8.943 -0.2371 -0.0187 -0.2989
  218loPI   C6A 3484   3.228   8.527   8.505 -0.1431  0.0298 -0.0518
  218loPI   C1B 3485   3.512   8.943  10.894 -0.0648  0.3283  0.2384
  218loPI   C2B 3486   3.500   9.113  10.512 -0.0815 -0.2847  0.0535
  218loPI   C3B 3487   3.498   9.013  10.150  0.1058  0.0048  0.0318
  218loPI   C4B 3488   3.470   9.062   9.727 -0.1638  0.0882  0.0736
  219loPI    C1 3489  12.412  13.760  11.433 -0.0081  0.1431  0.0492
  219loPI    C2 3490  12.600  14.066  11.610  0.1332  0.1076 -0.0375
  219loPI    C3 3491  12.559  13.718  11.803  0.2000  0.0999 -0.0372
  219loPI   PO4 3492  12.504  13.738  11.175 -0.0460  0.0245 -0.0180
  219loPI   GL1 3493  12.664  13.527  10.948 -0.2404  0.0389  0.0831
  219loPI   GL2 3494  12.620  13.247  10.934  0.0271 -0.0044 -0.0906
  219loPI   C1A 3495  12.914  13.697  10.643 -0.2151  0.1384 -0.0299
  219loPI   C2A 3496  12.948  13.623  10.275  0.1590  0.0693 -0.0896
  219loPI   C3A 3497  12.947  13.649   9.852 -0.0238  0.1231 -0.0227
  219loPI   C4A 3498  12.825  13.638   9.496  0.1471 -0.0891  0.0583
  219loPI   C5A 3499  12.749  13.655   9.067 -0.2767 -0.4200  0.0701
  219loPI   C6A 3500  12.434  13.829   8.766 -0.0873 -0.5952  0.1762
  219loPI   C1B 3501  12.733  13.254  10.530 -0.0163  0.0072  0.1702
  219loPI   C2B 3502  12.783  13.135  10.129  0.1682 -0.1051 -0.1206
  219loPI   C3B 3503  12.649  13.094   9.688  0.2284 -0.0733  0.0921
  219loPI   C4B 3504  12.678  13.194   9.362 -0.1232  0.1044  0.0645
  220loPI    C1 3505   8.085   0.142  11.868 -0.0753  0.0769 -0.0429
  220loPI    C2 3506   8.026   0.199  12.259  0.0374  0.1727 -0.0394
  220loPI    C3 3507   7.857  -0.113  12.075  0.0654  0.0704  0.1062
  220loPI   PO4 3508   8.068   0.315  11.794  0.0308 -0.1439  0.5121
  220loPI   GL1 3509   8.087   0.402  11.284  0.0838 -0.1688 -0.2038
  220loPI   GL2 3510   8.359   0.213  11.162  0.4444 -0.0092 -0.0162
  220loPI   C1A 3511   7.660   0.467  10.995  0.1564 -0.1555  0.1728
  220loPI   C2A 3512   7.602   0.467  10.527 -0.0425  0.0317 -0.0438
  220loPI   C3A 3513   7.501   0.540  10.137  0.1452  0.3741  0.0155
  220loPI   C4A 3514   7.577   0.565   9.669 -0.1607 -0.2355 -0.1991
  220loPI   C5A 3515   7.508   0.598   9.186  0.0114 -0.1104 -0.2427
  220loPI   C6A 3516   7.588   0.465   8.850  0.3022 -0.0738  0.1740
  220loPI   C1B 3517   8.415   0.326  10.710  0.0023 -0.2603  0.1007
  220loPI   C2B 3518   8.418   0.260  10.246 -0.0050  0.2550 -0.2876
  220loPI   C3B 3519   8.506   0.236   9.873 -0.0758 -0.2075 -0.4338
  220loPI   C4B 3520   8.380   0.299   9.397  0.2496  0.2810  0.0963
  221loPI    C1 3521  16.484   1.731  11.748 -0.0280 -0.0214 -0.0799
  221loPI    C2 3522  16.287   1.435  11.931 -0.1042  0.0825  0.0078
  221loPI    C3 3523  16.287   1.803  12.089 -0.0334  0.1361 -0.1152
  221loPI   PO4 3524  16.641   1.509  11.601 -0.0529 -0.0875  0.1995
  221loPI   GL1 3525  16.557   1.365  11.107 -0.5166  0.1411 -0.1577
  221loPI   GL2 3526  16.224   1.397  11.019 -0.0919  0.2274  0.0953
  221loPI   C1A 3527  16.848   1.451  10.718 -0.1117 -0.2268  0.0520
  221loPI   C2A 3528  16.803   1.534  10.311 -0.2369 -0.0129  0.3415
  221loPI   C3A 3529  16.777   1.541   9.805  0.0644 -0.1389  0.1867
  221loPI   C4A 3530  16.636   1.433   9.362  0.0581 -0.0250  0.4233
  221loPI   C5A 3531  16.343   1.447   8.942  0.1889 -0.0327  0.4052
  221loPI   C6A 3532  16.302   1.700   8.502  0.2142  0.2450  0.0786
  221loPI   C1B 3533  16.375   1.376  10.586  0.0287 -0.1034 -0.0532
  221loPI   C2B 3534  16.330   1.387  10.156  0.1248 -0.0754 -0.1397
  221loPI   C3B 3535  16.204   1.384   9.767  0.0964 -0.0350  0.3102
  221loPI   C4B 3536  16.063   1.308   9.348 -0.0941 -0.3176 -0.0063
  222loPI    C1 3537   5.991  12.821  11.581  0.0871 -0.0485  0.0723
  222loPI    C2 3538   6.016  13.186  11.420  0.1180 -0.0961 -0.0320
  222loPI    C3 3539   5.902  13.142  11.801 -0.1349  0.0064 -0.0936
  222loPI   PO4 3540   6.125  12.687  11.446  0.0085 -0.1377 -0.1413
  222loPI   GL1 3541   6.061  12.800  11.032  0.1429 -0.2182  0.1689
  222loPI   GL2 3542   6.307  12.610  10.960 -0.0104  0.0553 -0.0229
  222loPI   C1A 3543   6.224  12.912  10.614  0.1474  0.1518  0.1942
  222loPI   C2A 3544   6.062  12.906  10.243  0.2396 -0.0297 -0.1613
  222loPI   C3A 3545   6.033  12.929   9.862  0.0508 -0.0509  0.0697
  222loPI   C4A 3546   6.043  12.982   9.454 -0.4242 -0.0836  0.0469
  222loPI   C5A 3547   6.095  12.797   9.029 -0.1240  0.3539  0.0080
  222loPI   C6A 3548   6.091  12.470   8.685  0.1597 -0.3146 -0.0593
  222loPI   C1B 3549   6.041  12.457  10.560  0.2150  0.0196 -0.2431
  222loPI   C2B 3550   5.929  12.350  10.150  0.3860 -0.1755  0.2410
  222loPI   C3B 3551   5.919  12.462   9.680  0.0051 -0.2184  0.0947
  222loPI   C4B 3552   5.835  12.391   9.247  0.2036 -0.1608 -0.1911
  223loPI    C1 3553   4.941   7.386  11.881  0.0215  0.2821 -0.0095
  223loPI    C2 3554   5.064   7.766  11.908 -0.0804  0.3013  0.2033
  223loPI    C3 3555   4.728   7.650  12.092  0.0960  0.0454  0.3731
  223loPI   PO4 3556   4.988   7.370  11.592  0.0462 -0.0604  0.0253
  223loPI   GL1 3557   5.236   7.366  11.179 -0.0053  0.1277  0.1162
  223loPI   GL2 3558   5.538   7.291  10.977 -0.0370 -0.1578  0.3410
  223loPI   C1A 3559   5.006   7.147  10.953 -0.1224 -0.2227 -0.0141
  223loPI   C2A 3560   4.863   6.969  10.520 -0.1275  0.0828  0.2186
  223loPI   C3A 3561   4.820   6.917  10.082  0.0911 -0.0422 -0.2123
  223loPI   C4A 3562   4.889   7.135   9.690  0.0758 -0.1598 -0.0776
  223loPI   C5A 3563   4.882   7.148   9.328  0.0618 -0.3914  0.1439
  223loPI   C6A 3564   5.283   7.019   8.994 -0.1393  0.1630  0.1334
  223loPI   C1B 3565   5.365   7.184  10.632 -0.1383  0.0717  0.0081
  223loPI   C2B 3566   5.293   7.070  10.286  0.0487  0.0245 -0.0117
  223loPI   C3B 3567   5.364   7.040   9.934  0.1959  0.1820 -0.0263
  223loPI   C4B 3568   5.371   7.060   9.530 -0.0243 -0.1804  0.1133
  224loPI    C1 3569  15.725   0.327  11.723  0.2251  0.2220  0.2381
  224loPI    C2 3570  15.549   0.174  12.048 -0.0451 -0.1665 -0.0813
  224loPI    C3 3571  15.476   0.552  11.940 -0.1903 -0.1296  0.1399
  224loPI   PO4 3572  15.730   0.100  11.518 -0.1685  0.3350 -0.1179
  224loPI   GL1 3573  15.724   0.081  11.130 -0.1300  0.0660 -0.1638
  224loPI   GL2 3574  15.823   0.449  11.082  0.3011 -0.2342  0.0023
  224loPI   C1A 3575  15.481   0.261  10.805  0.0491  0.0498 -0.2716
  224loPI   C2A 3576  15.448   0.312  10.340 -0.2184  0.4175 -0.1154
  224loPI   C3A 3577  15.418   0.197   9.886  0.2199 -0.2527 -0.3336
  224loPI   C4A 3578  15.375   0.166   9.474 -0.0603  0.0735 -0.1906
  224loPI   C5A 3579  15.390   0.259   9.035 -0.2720 -0.0149 -0.3750
  224loPI   C6A 3580  15.147   0.559   8.781  0.0398 -0.0253 -0.1287
  224loPI   C1B 3581  15.911   0.385  10.615  0.1228  0.1268 -0.0337
  224loPI   C2B 3582  15.929   0.347  10.081  0.0394 -0.1773  0.1406
  224loPI   C3B 3583  15.933   0.318   9.540  0.1700 -0.3234 -0.2204
  224loPI   C4B 3584  15.818   0.134   9.176 -0.3641  0.3096  0.0250
  225loPI    C1 3585  11.102   2.947  11.910  0.1621 -0.1131 -0.0455
  225loPI    C2 3586  10.728   2.813  11.867  0.1248  0.0609 -0.2849
  225loPI    C3 3587  11.030   2.554  11.909 -0.0123 -0.0818 -0.1668
  225loPI   PO4 3588  11.136   3.147  11.610  0.1859  0.0272 -0.0861
  225loPI   GL1 3589  11.282   3.095  11.253  0.1090  0.1868  0.0753
  225loPI   GL2 3590  11.160   3.360  11.161 -0.0623  0.2096 -0.3127
  225loPI   C1A 3591  11.599   2.987  10.926  0.0631  0.1606  0.2397
  225loPI   C2A 3592  11.554   2.916  10.429  0.0105 -0.5415 -0.0025
  225loPI   C3A 3593  11.578   2.771  10.019 -0.0299  0.1106  0.1213
  225loPI   C4A 3594  11.492   2.853   9.586 -0.1267  0.0842  0.0497
  225loPI   C5A 3595  11.342   3.021   9.150  0.1660  0.0600 -0.4359
  225loPI   C6A 3596  11.458   3.387   8.873  0.0342 -0.0441  0.0313
  225loPI   C1B 3597  11.199   3.277  10.745  0.0383 -0.2074 -0.0269
  225loPI   C2B 3598  11.138   3.283  10.365 -0.0080 -0.0891 -0.0950
  225loPI   C3B 3599  11.208   3.173   9.980  0.0607 -0.0237  0.2651
  225loPI   C4B 3600  11.283   3.281   9.579 -0.0065  0.2057 -0.1128
  226loPI    C1 3601  11.844  14.510  11.515  0.1000 -0.0903 -0.0588
  226loPI    C2 3602  11.733  14.872  11.387 -0.1317 -0.1111  0.0769
  226loPI    C3 3603  11.884  14.828  11.754 -0.0516 -0.1443  0.0400
  226loPI   PO4 3604  11.695  14.366  11.377 -0.0186  0.0816  0.3458
  226loPI   GL1 3605  11.437  14.510  11.041  0.0073 -0.1507  0.0655
  226loPI   GL2 3606  11.718  14.384  10.902  0.1050  0.1900  0.0566
  226loPI   C1A 3607  11.276  14.700  10.675 -0.1956 -0.0594  0.1662
  226loPI   C2A 3608  11.252  14.675  10.215  0.1750 -0.2621  0.0343
  226loPI   C3A 3609  11.272  14.692   9.682 -0.1766  0.0223 -0.2079
  226loPI   C4A 3610  11.281  14.599   9.206  0.1200  0.0355 -0.2443
  226loPI   C5A 3611  11.442  14.490   8.830 -0.0749  0.0104 -0.1878
  226loPI   C6A 3612  11.787  14.280   8.687 -0.1671  0.0841  0.0588
  226loPI   C1B 3613  11.604  14.380  10.501 -0.1508  0.0879  0.0768
  226loPI   C2B 3614  11.649  14.312  10.054  0.2172 -0.1828 -0.3918
  226loPI   C3B 3615  11.565  14.235   9.638 -0.2125  0.1555 -0.0361
  226loPI   C4B 3616  11.699  14.237   9.189 -0.0267  0.1350  0.0788
  227loPI    C1 3617   0.080   2.667  11.587  0.0257  0.0917  0.1566
  227loPI    C2 3618  -0.175   2.443  11.800 -0.0175  0.0348  0.0457
  227loPI    C3 3619   0.128   2.629  11.983  0.1152 -0.2462  0.1165
  227loPI   PO4 3620   0.132   2.612  11.397  0.1233  0.4267 -0.0758
  227loPI   GL1 3621   0.174   2.824  10.991 -0.1743  0.0987  0.0375
  227loPI   GL2 3622  -0.143   2.588  11.014 -0.2912  0.0737  0.2726
  227loPI   C1A 3623   0.257   2.604  10.555 -0.1164  0.0381  0.0405
  227loPI   C2A 3624   0.341   2.570  10.223  0.1718  0.1240 -0.1666
  227loPI   C3A 3625   0.186   2.617   9.873 -0.3001  0.1759  0.1795
  227loPI   C4A 3626   0.151   2.577   9.413 -0.0759 -0.0261  0.0185
  227loPI   C5A 3627   0.246   2.731   9.058  0.0335  0.0128 -0.0431
  227loPI   C6A 3628   0.016   2.624   8.622 -0.0086 -0.2205  0.0014
  227loPI   C1B 3629  -0.235   2.644  10.622 -0.0464 -0.0010 -0.0000
  227loPI   C2B 3630  -0.132   2.722  10.256 -0.3728  0.0545  0.1591
  227loPI   C3B 3631  -0.299   2.565   9.852  0.1587  0.2297 -0.0269
  227loPI   C4B 3632  -0.366   2.489   9.370  0.0197  0.0227  0.2551
  228loPI    C1 3633   5.955   4.964  11.520  0.2477  0.3424  0.0135
  228loPI    C2 3634   5.955   5.226  11.822 -0.1045 -0.0074  0.3281
  228loPI    C3 3635   5.963   4.834  11.898 -0.0713 -0.0998 -0.1239
  228loPI   PO4 3636   6.150   5.092  11.341 -0.2644  0.1321  0.2713
  228loPI   GL1 3637   6.165   5.155  10.958  0.3256  0.0420  0.1242
  228loPI   GL2 3638   6.326   5.554  11.099 -0.1756 -0.0575  0.0779
  228loPI   C1A 3639   6.158   4.961  10.566  0.0883 -0.1672 -0.1645
  228loPI   C2A 3640   6.102   4.929  10.143 -0.4255  0.0263  0.1768
  228loPI   C3A 3641   6.147   5.004   9.731  0.3723  0.2491 -0.2416
  228loPI   C4A 3642   6.098   5.057   9.273  0.2721 -0.0175 -0.0496
  228loPI   C5A 3643   6.258   4.861   8.898 -0.4087  0.0592 -0.0325
  228loPI   C6A 3644   6.552   4.504   8.807 -0.0493 -0.0125  0.2085
  228loPI   C1B 3645   6.336   5.444  10.602 -0.3686 -0.0205  0.0205
  228loPI   C2B 3646   6.278   5.420  10.169 -0.0694 -0.1087 -0.2135
  228loPI   C3B 3647   6.233   5.559   9.774  0.1369  0.2776 -0.0923
  228loPI   C4B 3648   6.268   5.486   9.310 -0.1228 -0.1836 -0.1952
  229loPI    C1 3649  15.983   8.193  11.892 -0.3242 -0.1334 -0.2645
  229loPI    C2 3650  15.905   7.804  11.935  0.1911 -0.2000  0.1848
  229loPI    C3 3651  15.667   8.076  12.106 -0.0510 -0.3213  0.0464
  229loPI   PO4 3652  15.970   8.156  11.573 -0.2285  0.0065 -0.5026
  229loPI   GL1 3653  16.304   8.255  11.271  0.3079 -0.0184  0.0246
  229loPI   GL2 3654  16.461   8.483  11.338 -0.1249  0.0319 -0.1413
  229loPI   C1A 3655  16.415   8.048  10.898  0.0533  0.3438 -0.1942
  229loPI   C2A 3656  16.303   8.043  10.528  0.4536 -0.4253 -0.0832
  229loPI   C3A 3657  16.340   8.080  10.074  0.1323  0.0779  0.0702
  229loPI   C4A 3658  16.349   8.034   9.695 -0.1613 -0.2205  0.1749
  229loPI   C5A 3659  16.497   7.994   9.219  0.1495 -0.0856  0.1341
  229loPI   C6A 3660  16.540   8.394   9.013 -0.1233  0.2067 -0.1977
  229loPI   C1B 3661  16.532   8.558  10.822 -0.3624 -0.0300 -0.0653
  229loPI   C2B 3662  16.513   8.522  10.326 -0.0700 -0.0803  0.2924
  229loPI   C3B 3663  16.500   8.549   9.906  0.1905 -0.0241  0.2833
  229loPI   C4B 3664  16.564   8.454   9.516  0.2713 -0.0011  0.0849
  230loPI    C1 3665   7.042  15.060  11.586 -0.1850  0.0110  0.2319
  230loPI    C2 3666   7.096  14.664  11.566  0.1109  0.0583  0.0307
  230loPI    C3 3667   6.845  14.819  11.837 -0.0049 -0.2648  0.1122
  230loPI   PO4 3668   7.063  15.100  11.295 -0.0205 -0.0394  0.1101
  230loPI   GL1 3669   6.889  14.954  10.921  0.0030  0.0334  0.1760
  230loPI   GL2 3670   7.261  15.065  10.796  0.0524  0.0114  0.1049
  230loPI   C1A 3671   6.729  14.922  10.543 -0.1508 -0.0693  0.3452
  230loPI   C2A 3672   6.734  14.896  10.113 -0.0885  0.2511  0.1010
  230loPI   C3A 3673   6.596  14.953   9.715 -0.2218 -0.1415  0.1464
  230loPI   C4A 3674   6.543  14.969   9.263 -0.2577 -0.0827 -0.0332
  230loPI   C5A 3675   6.615  14.664   8.986 -0.0299  0.0001  0.0159
  230loPI   C6A 3676   6.627  14.540   8.520 -0.1717  0.1563  0.2017
  230loPI   C1B 3677   7.233  14.957  10.371 -0.1640 -0.3733 -0.0741
  230loPI   C2B 3678   7.161  15.115   9.885 -0.0496 -0.0530  0.5063
  230loPI   C3B 3679   7.020  15.058   9.473 -0.0068 -0.0748 -0.3108
  230loPI   C4B 3680   7.076  14.959   9.015  0.1384 -0.3752 -0.1650
  231loPI    C1 3681  12.612  16.382  11.407 -0.0435 -0.0650  0.1885
  231loPI    C2 3682  12.694  16.688  11.651 -0.1097 -0.1688  0.3424
  231loPI    C3 3683  12.980  16.423  11.558  0.0354  0.1141 -0.0454
  231loPI   PO4 3684  12.408  16.529  11.162 -0.0718 -0.1962 -0.2846
  231loPI   GL1 3685  12.386  16.833  10.881  0.1427  0.1214  0.2935
  231loPI   GL2 3686  12.502  16.736  10.666 -0.0271 -0.0009  0.0950
  231loPI   C1A 3687  12.186  17.137  10.681 -0.3041 -0.0162 -0.0315
  231loPI   C2A 3688  12.129  17.182  10.244  0.1747  0.0735  0.2430
  231loPI   C3A 3689  12.100  17.231   9.900 -0.0934 -0.2392  0.1044
  231loPI   C4A 3690  12.072  17.106   9.520 -0.1722 -0.5214 -0.4349
  231loPI   C5A 3691  12.140  17.028   9.099  0.0646  0.0270  0.3159
  231loPI   C6A 3692  12.335  16.666   8.782 -0.5702 -0.2649 -0.0245
  231loPI   C1B 3693  12.487  16.779  10.225 -0.0320  0.0045 -0.2603
  231loPI   C2B 3694  12.431  16.786   9.777 -0.1521 -0.0353  0.0663
  231loPI   C3B 3695  12.499  16.798   9.355 -0.1646  0.1575 -0.0682
  231loPI   C4B 3696  12.791  16.589   9.056 -0.3419  0.3292 -0.1320
  232loPI    C1 3697   7.654  12.456  11.349  0.0215 -0.1237  0.0031
  232loPI    C2 3698   7.319  12.495  11.564  0.0278  0.0628 -0.0193
  232loPI    C3 3699   7.659  12.664  11.690  0.1505 -0.2503  0.0797
  232loPI   PO4 3700   7.587  12.473  10.986 -0.2656  0.0390  0.1039
  232loPI   GL1 3701   7.582  12.837  10.649  0.2640  0.1277  0.1215
  232loPI   GL2 3702   7.315  13.050  10.703  0.2458  0.3626  0.0160
  232loPI   C1A 3703   7.684  13.016  10.310  0.3239  0.0254 -0.1381
  232loPI   C2A 3704   7.659  13.313   9.988  0.1098  0.0234 -0.1252
  232loPI   C3A 3705   7.616  13.306   9.589  0.0207 -0.0092  0.2034
  232loPI   C4A 3706   7.812  13.062   9.236  0.1421  0.0018 -0.0578
  232loPI   C5A 3707   8.086  13.004   8.855 -0.2128 -0.2443  0.0732
  232loPI   C6A 3708   8.295  13.161   8.575  0.1552  0.1287 -0.1851
  232loPI   C1B 3709   7.176  13.187  10.279 -0.0142 -0.2748  0.1692
  232loPI   C2B 3710   7.145  13.233   9.844 -0.1138 -0.1055 -0.0690
  232loPI   C3B 3711   6.984  13.219   9.476  0.0932 -0.1475  0.2076
  232loPI   C4B 3712   7.000  13.332   9.063  0.2045  0.3581  0.1112
  233loPI    C1 3713   0.677   2.039  11.535  0.0340  0.0275 -0.0644
  233loPI    C2 3714   0.346   2.140  11.334  0.0166  0.1290  0.0144
  233loPI    C3 3715   0.385   2.241  11.719  0.0808 -0.0019  0.0430
  233loPI   PO4 3716   0.867   2.121  11.346  0.1529  0.1432  0.1891
  233loPI   GL1 3717   0.844   2.082  10.917 -0.2331  0.2133  0.0416
  233loPI   GL2 3718   0.580   2.281  10.821 -0.2975 -0.0047 -0.0474
  233loPI   C1A 3719   0.911   1.865  10.620 -0.0508 -0.1477  0.0483
  233loPI   C2A 3720   0.926   1.846  10.129  0.0933 -0.3596 -0.0339
  233loPI   C3A 3721   0.900   1.823   9.797  0.1305 -0.0404  0.2308
  233loPI   C4A 3722   0.879   1.782   9.278  0.2241 -0.0475  0.3552
  233loPI   C5A 3723   1.009   1.647   8.832  0.0108 -0.3771 -0.2743
  233loPI   C6A 3724   0.646   1.413   8.643  0.1409 -0.0862  0.4184
  233loPI   C1B 3725   0.597   2.239  10.518  0.0932  0.0124 -0.1149
  233loPI   C2B 3726   0.610   2.267  10.035 -0.2176  0.0301 -0.0521
  233loPI   C3B 3727   0.644   2.225   9.571  0.1994  0.0728  0.0351
  233loPI   C4B 3728   0.487   2.265   9.099 -0.0139 -0.0895  0.0299
  234loPI    C1 3729   7.311   0.180  11.782 -0.1255 -0.0042 -0.1239
  234loPI    C2 3730   7.330   0.575  11.846 -0.0805 -0.0622  0.2469
  234loPI    C3 3731   7.608   0.333  12.003 -0.0865 -0.2402 -0.0092
  234loPI   PO4 3732   7.172   0.179  11.568  0.0258  0.0455  0.1866
  234loPI   GL1 3733   6.965   0.128  11.132  0.0724 -0.0349  0.0613
  234loPI   GL2 3734   6.987  -0.191  11.094 -0.0363  0.2103 -0.1091
  234loPI   C1A 3735   7.165   0.354  10.814  0.0994  0.0579 -0.3255
  234loPI   C2A 3736   7.072   0.460  10.370 -0.3096  0.0927  0.3180
  234loPI   C3A 3737   7.067   0.415   9.832 -0.1399 -0.0035  0.0455
  234loPI   C4A 3738   6.979   0.464   9.362 -0.2358 -0.0564  0.0842
  234loPI   C5A 3739   7.155   0.243   8.956  0.2045  0.0206 -0.0441
  234loPI   C6A 3740   7.038   0.054   8.578 -0.0526 -0.1330 -0.0940
  234loPI   C1B 3741   6.972  -0.157  10.597  0.1628  0.2418 -0.1533
  234loPI   C2B 3742   6.926  -0.041  10.225  0.1263  0.2063 -0.2201
  234loPI   C3B 3743   6.926  -0.049   9.836  0.0394 -0.3982 -0.0655
  234loPI   C4B 3744   6.800  -0.048   9.414 -0.1578 -0.0135  0.0741
  235loPI    C1 3745   9.677   7.260  11.984  0.0555 -0.0636 -0.1040
  235loPI    C2 3746   9.994   7.388  12.193 -0.0842  0.0841  0.0203
  235loPI    C3 3747   9.630   7.394  12.358 -0.1541 -0.0771 -0.1247
  235loPI   PO4 3748   9.636   7.345  11.769  0.2647 -0.2737 -0.0734
  235loPI   GL1 3749   9.521   7.330  11.399  0.1366 -0.1178  0.2114
  235loPI   GL2 3750   9.475   6.980  11.277 -0.1377 -0.1668 -0.2603
  235loPI   C1A 3751   9.578   7.410  10.932 -0.0672 -0.1424  0.3141
  235loPI   C2A 3752   9.534   7.402  10.433 -0.1255 -0.0604 -0.1395
  235loPI   C3A 3753   9.494   7.379   9.988 -0.0248 -0.3016  0.1500
  235loPI   C4A 3754   9.561   7.346   9.577 -0.0851  0.1845 -0.0531
  235loPI   C5A 3755   9.913   7.408   9.326  0.1501 -0.1463 -0.1801
  235loPI   C6A 3756  10.073   7.336   8.911  0.1894 -0.0600  0.0458
  235loPI   C1B 3757   9.460   6.958  10.818 -0.1902  0.2211  0.1558
  235loPI   C2B 3758   9.412   6.912  10.348 -0.4138 -0.0512 -0.1160
  235loPI   C3B 3759   9.389   6.932   9.949 -0.1051  0.0828  0.0498
  235loPI   C4B 3760   9.391   6.880   9.563 -0.2563 -0.1406  0.0231
  236loPI    C1 3761  17.025   9.918  11.723  0.2254  0.0200  0.1952
  236loPI    C2 3762  16.715   9.752  11.915  0.2470 -0.2656 -0.0120
  236loPI    C3 3763  16.940  10.026  12.099 -0.0165 -0.1900  0.2040
  236loPI   PO4 3764  17.010   9.753  11.530  0.0095 -0.2502  0.0630
  236loPI   GL1 3765  17.127   9.549  11.175  0.0221 -0.0030  0.1568
  236loPI   GL2 3766  17.350   9.692  11.132  0.1425  0.0300 -0.0138
  236loPI   C1A 3767  16.859   9.454  10.705  0.0247  0.3186 -0.1587
  236loPI   C2A 3768  16.828   9.481  10.171  0.1675 -0.1592 -0.1031
  236loPI   C3A 3769  16.819   9.453   9.819 -0.1397  0.2632 -0.1549
  236loPI   C4A 3770  16.763   9.498   9.331  0.3807  0.0367 -0.0480
  236loPI   C5A 3771  16.870   9.823   9.043  0.2512  0.2469 -0.0062
  236loPI   C6A 3772  17.096   9.709   8.641  0.0217  0.2813  0.2852
  236loPI   C1B 3773  17.348   9.538  10.737 -0.0313  0.2780 -0.3145
  236loPI   C2B 3774  17.335   9.541  10.265  0.2034  0.0276 -0.3245
  236loPI   C3B 3775  17.305   9.589   9.861 -0.1388 -0.1577  0.2034
  236loPI   C4B 3776  17.341   9.585   9.372  0.0292  0.0376 -0.0295
  237loPI    C1 3777  15.985   7.344  11.648 -0.0398  0.2482  0.1406
  237loPI    C2 3778  15.775   7.127  11.911  0.0988 -0.1564 -0.0735
  237loPI    C3 3779  15.878   6.969  11.558  0.3104  0.2203 -0.1869
  237loPI   PO4 3780  15.897   7.532  11.519 -0.5358 -0.0439 -0.2008
  237loPI   GL1 3781  15.819   7.810  11.189 -0.1805  0.0016  0.1324
  237loPI   GL2 3782  16.127   7.638  11.125  0.1308  0.0715 -0.0144
  237loPI   C1A 3783  15.867   7.849  10.708  0.1957  0.0079 -0.0251
  237loPI   C2A 3784  15.849   7.942  10.201 -0.1513 -0.0001  0.0881
  237loPI   C3A 3785  15.878   7.951   9.742 -0.3414  0.1621 -0.0691
  237loPI   C4A 3786  16.004   7.926   9.279  0.0148  0.2427  0.2491
  237loPI   C5A 3787  16.216   7.676   8.931 -0.1251 -0.1745  0.0729
  237loPI   C6A 3788  16.068   7.333   8.695 -0.2404  0.1518 -0.2173
  237loPI   C1B 3789  16.256   7.539  10.690 -0.1911 -0.1153  0.0271
  237loPI   C2B 3790  16.178   7.563  10.195  0.0085  0.2086  0.3679
  237loPI   C3B 3791  16.230   7.478   9.777 -0.0110  0.1180  0.2218
  237loPI   C4B 3792  16.272   7.482   9.386  0.0796  0.3408 -0.2189
  238loPI    C1 3793   8.437   7.390  11.937 -0.0686 -0.0003  0.0286
  238loPI    C2 3794   8.638   7.602  12.210 -0.0725 -0.1116  0.1190
  238loPI    C3 3795   8.251   7.520  12.265 -0.1518  0.1241 -0.0670
  238loPI   PO4 3796   8.495   7.399  11.659 -0.0587 -0.0079  0.1043
  238loPI   GL1 3797   8.531   7.627  11.385 -0.2358 -0.0282  0.0380
  238loPI   GL2 3798   8.534   7.973  11.391 -0.3231  0.1175  0.1130
  238loPI   C1A 3799   8.759   7.615  11.021  0.1025  0.1426 -0.2615
  238loPI   C2A 3800   8.746   7.657  10.623  0.1566 -0.1107  0.1131
  238loPI   C3A 3801   8.623   7.635  10.208 -0.0625 -0.0508  0.2260
  238loPI   C4A 3802   8.612   7.597   9.810  0.1721  0.0268  0.0237
  238loPI   C5A 3803   8.653   7.700   9.430  0.3395  0.0809  0.0352
  238loPI   C6A 3804   8.435   7.939   9.305 -0.1127 -0.1053 -0.0684
  238loPI   C1B 3805   8.432   7.965  10.914  0.1859 -0.2047 -0.1486
  238loPI   C2B 3806   8.350   7.984  10.554 -0.0294 -0.1913 -0.1642
  238loPI   C3B 3807   8.213   8.001  10.151  0.2553 -0.1410 -0.4377
  238loPI   C4B 3808   8.194   7.976   9.766  0.2014 -0.1502  0.2278
  239loPI    C1 3809   0.145  17.086  11.785 -0.0996 -0.0151  0.1902
  239loPI    C2 3810  -0.122  17.258  12.028 -0.0842 -0.1015  0.2688
  239loPI    C3 3811   0.255  17.203  12.151 -0.0482 -0.0464  0.1848
  239loPI   PO4 3812   0.056  17.119  11.522 -0.1521  0.0464  0.1721
  239loPI   GL1 3813   0.240  16.964  11.068 -0.1878  0.2767  0.0057
  239loPI   GL2 3814   0.355  17.223  11.107 -0.4030 -0.3180  0.0531
  239loPI   C1A 3815   0.238  16.806  10.650 -0.2027 -0.1471  0.1485
  239loPI   C2A 3816   0.209  16.643  10.262 -0.0760 -0.0765  0.3053
  239loPI   C3A 3817   0.195  16.772   9.937 -0.2693  0.0616  0.1545
  239loPI   C4A 3818   0.153  16.674   9.518  0.1963  0.0856  0.2128
  239loPI   C5A 3819   0.120  16.776   9.072  0.0743  0.2664  0.2805
  239loPI   C6A 3820   0.224  16.653   8.716 -0.0059  0.0818 -0.2748
  239loPI   C1B 3821   0.401  17.266  10.603 -0.2778 -0.0663 -0.1125
  239loPI   C2B 3822   0.409  17.226  10.178  0.2343 -0.1334  0.1890
  239loPI   C3B 3823   0.296  17.219   9.750 -0.1137 -0.0690  0.1221
  239loPI   C4B 3824   0.161  17.205   9.354 -0.1521  0.1918 -0.0581
  240loPI    C1 3825  13.056   7.829  11.668 -0.0682 -0.0861 -0.1444
  240loPI    C2 3826  13.339   7.679  11.907  0.2589  0.2322 -0.3227
  240loPI    C3 3827  12.989   7.796  12.061  0.2737 -0.0324 -0.0784
  240loPI   PO4 3828  13.030   7.728  11.490  0.0143  0.3154  0.4338
  240loPI   GL1 3829  12.983   7.909  11.142  0.0869  0.0604  0.2216
  240loPI   GL2 3830  13.047   8.185  11.254  0.2422 -0.2344  0.3371
  240loPI   C1A 3831  13.011   7.851  10.700 -0.1508 -0.4223 -0.2744
  240loPI   C2A 3832  12.927   7.784  10.271  0.3551 -0.0292  0.2018
  240loPI   C3A 3833  12.970   7.790   9.887  0.1481 -0.2820  0.1022
  240loPI   C4A 3834  13.028   7.714   9.477 -0.2427  0.2587  0.3051
  240loPI   C5A 3835  13.034   7.835   9.097  0.0333 -0.2509 -0.2075
  240loPI   C6A 3836  12.982   7.960   8.725 -0.0244  0.2384  0.3036
  240loPI   C1B 3837  13.108   8.365  10.858  0.1376  0.0819  0.1209
  240loPI   C2B 3838  13.169   8.407  10.359  0.0618  0.0265 -0.0131
  240loPI   C3B 3839  13.198   8.314   9.904 -0.0224  0.0838 -0.0387
  240loPI   C4B 3840  13.144   8.187   9.469 -0.0049 -0.0531 -0.1737
  241loPI    C1 3841  15.370   6.948  11.674  0.1066 -0.0708 -0.1002
  241loPI    C2 3842  15.074   6.910  11.941 -0.0834  0.0202 -0.2945
  241loPI    C3 3843  15.447   6.804  12.039 -0.1295  0.1577  0.0434
  241loPI   PO4 3844  15.297   6.811  11.443 -0.0229 -0.4998  0.2082
  241loPI   GL1 3845  15.111   6.894  11.077 -0.3271  0.2512  0.1143
  241loPI   GL2 3846  15.101   7.212  10.940 -0.1489 -0.2951  0.1751
  241loPI   C1A 3847  15.007   6.724  10.649 -0.0208  0.1661 -0.0078
  241loPI   C2A 3848  14.989   6.879  10.192 -0.1010  0.0819  0.2648
  241loPI   C3A 3849  15.058   6.929   9.834 -0.0728  0.1800 -0.0837
  241loPI   C4A 3850  15.028   6.973   9.442  0.1445  0.0443  0.0692
  241loPI   C5A 3851  15.067   6.845   8.970  0.0544 -0.2717 -0.2128
  241loPI   C6A 3852  14.958   7.026   8.605  0.0089  0.4273  0.2549
  241loPI   C1B 3853  15.093   7.305  10.502  0.0516  0.0497  0.1263
  241loPI   C2B 3854  15.205   7.361  10.094  0.2460 -0.1398 -0.0198
  241loPI   C3B 3855  15.146   7.389   9.703  0.0017 -0.1184 -0.2179
  241loPI   C4B 3856  15.265   7.346   9.277 -0.2309  0.2303 -0.2332
  242loPI    C1 3857   9.851   7.940  12.233  0.0564 -0.0857 -0.1709
  242loPI    C2 3858  10.229   7.894  12.354 -0.0330  0.1803  0.2301
  242loPI    C3 3859   9.931   7.729  12.563 -0.1519  0.1088  0.0074
  242loPI   PO4 3860   9.835   7.822  11.931  0.0094 -0.1005 -0.1085
  242loPI   GL1 3861   9.890   7.755  11.445 -0.0904 -0.0526  0.1263
  242loPI   GL2 3862  10.004   7.500  11.496 -0.1303  0.1218  0.0800
  242loPI   C1A 3863   9.684   7.870  11.091 -0.1965 -0.0127  0.4093
  242loPI   C2A 3864   9.700   7.931  10.670  0.0831 -0.0074 -0.0883
  242loPI   C3A 3865   9.691   7.903  10.202  0.2998  0.0649 -0.0287
  242loPI   C4A 3866   9.592   7.817   9.796 -0.0501 -0.0579 -0.3659
  242loPI   C5A 3867   9.658   7.859   9.376  0.1570  0.2372 -0.1067
  242loPI   C6A 3868   9.634   8.230   9.091 -0.2878  0.0522 -0.1274
  242loPI   C1B 3869  10.163   7.457  11.141  0.0524  0.2302  0.3535
  242loPI   C2B 3870  10.051   7.518  10.689  0.0943  0.3129 -0.1014
  242loPI   C3B 3871  10.082   7.503  10.287  0.1913  0.2773  0.1157
  242loPI   C4B 3872  10.070   7.461   9.807  0.0264  0.1708 -0.1025
  243loPI    C1 3873   5.270  14.453  11.452  0.0194 -0.2806  0.0716
  243loPI    C2 3874   4.939  14.231  11.417 -0.0877 -0.1191  0.0455
  243loPI    C3 3875   4.987  14.469  11.734 -0.1685  0.1370 -0.1321
  243loPI   PO4 3876   5.271  14.576  11.236 -0.0676  0.0035 -0.2131
  243loPI   GL1 3877   5.152  14.400  10.912 -0.2562 -0.0517 -0.0559
  243loPI   GL2 3878   4.943  14.714  10.898  0.1776 -0.1190 -0.0320
  243loPI   C1A 3879   5.189  14.553  10.477 -0.1531  0.0026 -0.1342
  243loPI   C2A 3880   5.164  14.492  10.070  0.0078  0.0966 -0.2076
  243loPI   C3A 3881   5.072  14.624   9.715  0.0544  0.0814 -0.3919
  243loPI   C4A 3882   4.938  14.659   9.269 -0.1120  0.0341 -0.1461
  243loPI   C5A 3883   4.675  14.505   9.015 -0.0804  0.0396  0.0486
  243loPI   C6A 3884   4.423  14.772   8.738 -0.0480  0.1202  0.0816
  243loPI   C1B 3885   4.857  14.939  10.470 -0.2724  0.2130  0.0439
  243loPI   C2B 3886   4.737  14.973  10.079 -0.0036  0.0543 -0.1704
  243loPI   C3B 3887   4.677  15.011   9.628 -0.2055 -0.0890 -0.1513
  243loPI   C4B 3888   4.424  14.908   9.234 -0.0797 -0.1052  0.0845
  244loPI    C1 3889   7.736   2.444  11.906 -0.1462 -0.1209 -0.2717
  244loPI    C2 3890   7.470   2.171  12.028 -0.0939 -0.0431  0.0220
  244loPI    C3 3891   7.640   2.419  12.293 -0.0665  0.2098 -0.2273
  244loPI   PO4 3892   7.592   2.573  11.682 -0.0154 -0.0189 -0.1207
  244loPI   GL1 3893   7.556   2.488  11.244 -0.0968  0.1121  0.1842
  244loPI   GL2 3894   7.661   2.233  11.063 -0.2247 -0.1789 -0.1720
  244loPI   C1A 3895   7.290   2.762  11.023  0.0012  0.1514 -0.1812
  244loPI   C2A 3896   7.395   2.793  10.556  0.3064 -0.2470 -0.1758
  244loPI   C3A 3897   7.298   2.834  10.164 -0.0461 -0.1714  0.1872
  244loPI   C4A 3898   7.434   2.747   9.693 -0.1610  0.1784  0.0856
  244loPI   C5A 3899   7.387   2.668   9.161  0.0965  0.0166  0.2153
  244loPI   C6A 3900   7.571   2.444   8.812 -0.3427 -0.1933 -0.0445
  244loPI   C1B 3901   7.645   2.354  10.627 -0.1707  0.2040 -0.2528
  244loPI   C2B 3902   7.730   2.432  10.228  0.0027 -0.0928 -0.0781
  244loPI   C3B 3903   7.814   2.424   9.812  0.2002  0.1149  0.2151
  244loPI   C4B 3904   7.739   2.405   9.368 -0.1125  0.0842  0.0002
  245loPI    C1 3905   3.077   3.482  11.477 -0.1978  0.0680 -0.0620
  245loPI    C2 3906   2.953   3.611  11.835 -0.2435 -0.1403 -0.0011
  245loPI    C3 3907   2.930   3.222  11.744  0.1080 -0.1424 -0.0934
  245loPI   PO4 3908   3.124   3.487  11.296 -0.2367 -0.0848  0.0562
  245loPI   GL1 3909   2.972   3.420  10.984  0.0785  0.0922  0.0484
  245loPI   GL2 3910   2.832   3.296  10.682  0.0989  0.1639  0.3529
  245loPI   C1A 3911   3.290   3.420  10.711  0.2763 -0.1529 -0.0899
  245loPI   C2A 3912   3.384   3.392  10.235 -0.1051 -0.3614  0.1026
  245loPI   C3A 3913   3.300   3.308   9.774 -0.0437 -0.0525 -0.0523
  245loPI   C4A 3914   3.310   3.295   9.384  0.0229 -0.0229 -0.1257
  245loPI   C5A 3915   3.243   3.448   9.056 -0.1310  0.0493  0.0621
  245loPI   C6A 3916   3.148   3.614   8.606  0.0601 -0.0368 -0.1360
  245loPI   C1B 3917   2.880   3.260  10.316  0.1898 -0.0610  0.0678
  245loPI   C2B 3918   2.750   3.293   9.823  0.0538 -0.0773  0.0243
  245loPI   C3B 3919   2.586   3.275   9.372 -0.1378 -0.1117 -0.1524
  245loPI   C4B 3920   2.724   3.517   9.023  0.0683 -0.3422  0.3779
  246loPI    C1 3921   2.941  17.286  11.693  0.4270  0.1868 -0.1657
  246loPI    C2 3922   3.221  17.213  11.969  0.3370  0.3166 -0.0385
  246loPI    C3 3923   3.040  17.569  11.958  0.0583  0.1782 -0.0129
  246loPI   PO4 3924   3.077  17.262  11.481 -0.1216 -0.1581 -0.2839
  246loPI   GL1 3925   3.202  17.283  11.190  0.1133  0.1113  0.2886
  246loPI   GL2 3926   2.992  17.555  11.076 -0.0609 -0.0753  0.0930
  246loPI   C1A 3927   3.261  17.355  10.739  0.2746  0.1644  0.1514
  246loPI   C2A 3928   3.172  17.386  10.349 -0.1946  0.1815 -0.0391
  246loPI   C3A 3929   3.211  17.431   9.964  0.2974  0.2067 -0.0007
  246loPI   C4A 3930   3.127  17.415   9.514  0.0417  0.2957  0.0298
  246loPI   C5A 3931   2.954  17.387   9.172  0.0239  0.0228  0.0812
  246loPI   C6A 3932   2.781  17.135   8.913 -0.0294 -0.3477 -0.0364
  246loPI   C1B 3933   2.980  17.769  10.653 -0.1110 -0.0046  0.4575
  246loPI   C2B 3934   2.814  17.902  10.280 -0.2660 -0.0248  0.0905
  246loPI   C3B 3935   2.854  17.826   9.864  0.0425 -0.3308  0.0366
  246loPI   C4B 3936   2.722  17.859   9.480  0.0051  0.1298 -0.0710
  247loPI    C1 3937   0.954   8.154  11.703  0.0596  0.0999 -0.0914
  247loPI    C2 3938   0.888   7.990  12.062 -0.1332 -0.0021 -0.1722
  247loPI    C3 3939   1.155   8.285  12.023 -0.0545 -0.0437  0.0407
  247loPI   PO4 3940   0.927   8.025  11.499  0.1294  0.1772  0.0784
  247loPI   GL1 3941   0.940   8.069  11.158  0.0067 -0.1729  0.2010
  247loPI   GL2 3942   1.035   8.420  11.095 -0.2240 -0.1669 -0.0639
  247loPI   C1A 3943   0.853   7.899  10.695  0.0664 -0.2048 -0.1095
  247loPI   C2A 3944   0.879   7.841  10.230 -0.0782  0.1158 -0.0538
  247loPI   C3A 3945   0.839   7.917   9.890  0.1468  0.1981 -0.0168
  247loPI   C4A 3946   0.842   7.846   9.497 -0.2212  0.0265 -0.1033
  247loPI   C5A 3947   1.235   7.898   9.193  0.2030  0.1554  0.0940
  247loPI   C6A 3948   1.523   7.915   8.994  0.0675  0.0287  0.0927
  247loPI   C1B 3949   1.024   8.437  10.662 -0.0419  0.0484  0.0583
  247loPI   C2B 3950   0.953   8.447  10.233  0.2460 -0.0245  0.0145
  247loPI   C3B 3951   0.928   8.406   9.738 -0.2541 -0.2231  0.2195
  247loPI   C4B 3952   1.002   8.413   9.278  0.1126  0.3164 -0.0528
  248loPI    C1 3953  12.476   8.429  11.740  0.0126  0.1030  0.1253
  248loPI    C2 3954  12.822   8.257  11.637 -0.1163 -0.0074 -0.1328
  248loPI    C3 3955  12.709   8.266  12.021  0.0251 -0.2480 -0.0835
  248loPI   PO4 3956  12.375   8.354  11.520 -0.0680 -0.1223  0.1074
  248loPI   GL1 3957  12.240   8.517  11.224 -0.1617  0.1711 -0.1038
  248loPI   GL2 3958  12.632   8.494  11.138 -0.2730  0.0620  0.0355
  248loPI   C1A 3959  12.218   8.561  10.822  0.0022  0.1266 -0.0022
  248loPI   C2A 3960  12.267   8.519  10.364 -0.1912  0.0427 -0.1450
  248loPI   C3A 3961  12.152   8.506   9.955 -0.1623  0.2010 -0.0114
  248loPI   C4A 3962  12.324   8.547   9.539  0.1749  0.0809 -0.2718
  248loPI   C5A 3963  12.409   8.597   9.177  0.2743 -0.1330 -0.0974
  248loPI   C6A 3964  12.542   8.797   8.800 -0.2855 -0.2969  0.0165
  248loPI   C1B 3965  12.723   8.693  10.713 -0.2211  0.3229  0.0937
  248loPI   C2B 3966  12.765   8.688  10.351  0.0581 -0.0528  0.0350
  248loPI   C3B 3967  12.823   8.735   9.905  0.1546 -0.1488 -0.2548
  248loPI   C4B 3968  12.861   8.606   9.532  0.3346  0.2438 -0.0809
  249loPI    C1 3969  11.135   9.380  11.665  0.0069 -0.0221 -0.0274
  249loPI    C2 3970  11.118   8.997  11.778  0.2304 -0.0440 -0.0630
  249loPI    C3 3971  11.003   9.285  12.031 -0.2014 -0.1472 -0.1330
  249loPI   PO4 3972  11.009   9.413  11.427  0.2089 -0.0251  0.0226
  249loPI   GL1 3973  11.009   9.086  11.176  0.3419 -0.0242  0.2781
  249loPI   GL2 3974  10.988   8.730  10.953  0.2099  0.1359 -0.2152
  249loPI   C1A 3975  11.082   9.116  10.725  0.0524 -0.0190  0.4015
  249loPI   C2A 3976  11.108   9.109  10.203 -0.0411  0.1269 -0.1422
  249loPI   C3A 3977  11.029   9.086   9.822 -0.1576  0.0901  0.0567
  249loPI   C4A 3978  11.071   9.129   9.346  0.0134  0.0024  0.2847
  249loPI   C5A 3979  11.001   8.887   8.819  0.2285  0.1024 -0.3507
  249loPI   C6A 3980  10.850   8.995   8.480 -0.1052 -0.1818  0.0808
  249loPI   C1B 3981  10.851   8.591  10.570  0.0412  0.0485  0.0877
  249loPI   C2B 3982  10.897   8.638  10.103 -0.0645  0.1193 -0.1642
  249loPI   C3B 3983  10.826   8.632   9.619 -0.0930 -0.4259  0.0285
  249loPI   C4B 3984  10.979   8.649   9.244  0.3982 -0.0591  0.0137
  250loPI    C1 3985   8.420  14.382  11.805  0.1759  0.0178  0.1402
  250loPI    C2 3986   8.434  14.688  12.062 -0.4105  0.0047  0.2013
  250loPI    C3 3987   8.211  14.367  12.146 -0.0630 -0.3006 -0.0148
  250loPI   PO4 3988   8.422  14.528  11.565 -0.2563  0.1379 -0.0898
  250loPI   GL1 3989   8.386  14.423  11.248 -0.2814 -0.1092  0.4653
  250loPI   GL2 3990   8.554  14.469  11.067 -0.1657  0.0234 -0.0585
  250loPI   C1A 3991   8.144  14.666  10.846  0.2562  0.3211 -0.4695
  250loPI   C2A 3992   8.144  14.842  10.374  0.0883 -0.3708 -0.1000
  250loPI   C3A 3993   8.038  14.907   9.980  0.0896 -0.0479  0.1007
  250loPI   C4A 3994   8.011  14.732   9.541  0.0926  0.1670  0.1566
  250loPI   C5A 3995   7.935  14.769   9.087 -0.2401  0.0895  0.4335
  250loPI   C6A 3996   7.581  14.860   8.821 -0.1945 -0.0787  0.2808
  250loPI   C1B 3997   8.431  14.403  10.573  0.0448 -0.0158  0.0561
  250loPI   C2B 3998   8.428  14.508  10.057 -0.2458 -0.5442 -0.3021
  250loPI   C3B 3999   8.425  14.422   9.672 -0.1450 -0.0930 -0.0261
  250loPI   C4B 4000   8.314  14.416   9.179 -0.0766 -0.1614  0.1105
  251loPI    C1 4001   9.440  15.454  11.639  0.2856  0.3322  0.0949
  251loPI    C2 4002   9.209  15.738  11.801 -0.0250 -0.0412  0.3248
  251loPI    C3 4003   9.397  15.475  12.036  0.1601 -0.1047  0.1088
  251loPI   PO4 4004   9.473  15.458  11.401 -0.1487 -0.2648 -0.4123
  251loPI   GL1 4005   9.591  15.292  11.041  0.2351 -0.1283  0.1586
  251loPI   GL2 4006   9.294  15.502  10.891  0.0598 -0.1907  0.1029
  251loPI   C1A 4007   9.601  15.225  10.565  0.0297 -0.1550 -0.2291
  251loPI   C2A 4008   9.535  15.198  10.179 -0.2663  0.0740  0.1380
  251loPI   C3A 4009   9.542  15.052   9.753  0.0503 -0.0212 -0.1682
  251loPI   C4A 4010   9.616  15.106   9.297  0.1825 -0.0686 -0.1276
  251loPI   C5A 4011   9.532  15.345   8.965  0.1699  0.0154 -0.3484
  251loPI   C6A 4012   9.199  15.452   8.811  0.0620 -0.2901  0.1791
  251loPI   C1B 4013   9.187  15.541  10.503 -0.2633 -0.0765  0.3534
  251loPI   C2B 4014   9.202  15.590  10.141  0.0848 -0.0823  0.2043
  251loPI   C3B 4015   9.221  15.608   9.772 -0.2829 -0.1533  0.0369
  251loPI   C4B 4016   9.204  15.541   9.321 -0.1530  0.0632  0.0520
  252loPI    C1 4017  15.836   4.074  11.372  0.0456 -0.0606  0.0048
  252loPI    C2 4018  15.713   4.254  11.707 -0.1690 -0.2894  0.0519
  252loPI    C3 4019  15.900   3.901  11.726 -0.1615 -0.2925 -0.0677
  252loPI   PO4 4020  15.663   4.130  11.213 -0.2893  0.0784  0.0452
  252loPI   GL1 4021  15.802   4.214  10.883 -0.1930  0.1144  0.1630
  252loPI   GL2 4022  15.890   3.902  10.753 -0.1571  0.0730  0.0586
  252loPI   C1A 4023  15.514   4.140  10.401 -0.0790  0.3135 -0.0570
  252loPI   C2A 4024  15.537   4.065  10.022  0.1458 -0.1206  0.2126
  252loPI   C3A 4025  15.604   4.014   9.567 -0.2272  0.3422  0.0367
  252loPI   C4A 4026  15.629   4.134   9.134  0.0680 -0.1912  0.1877
  252loPI   C5A 4027  15.723   4.274   8.793  0.1059  0.1666  0.0001
  252loPI   C6A 4028  15.892   4.531   8.496 -0.1271  0.0318 -0.0096
  252loPI   C1B 4029  15.897   3.801  10.349 -0.0894  0.2992 -0.1302
  252loPI   C2B 4030  15.938   3.791   9.871  0.0247  0.4444 -0.0347
  252loPI   C3B 4031  15.962   3.717   9.403 -0.3618 -0.0954 -0.0636
  252loPI   C4B 4032  15.911   3.769   9.001 -0.0478  0.2014 -0.0136
  253loPI    C1 4033  11.459  16.031  11.835 -0.0146  0.0508  0.0311
  253loPI    C2 4034  11.778  16.205  12.001  0.0798  0.0238 -0.1197
  253loPI    C3 4035  11.418  16.240  12.173  0.1709  0.0175  0.0750
  253loPI   PO4 4036  11.528  16.037  11.566 -0.0174 -0.0598  0.2759
  253loPI   GL1 4037  11.543  16.097  11.081 -0.2335  0.0583  0.0433
  253loPI   GL2 4038  11.428  15.817  11.054  0.0844 -0.1164 -0.1120
  253loPI   C1A 4039  11.687  16.136  10.626 -0.0027  0.3311  0.1077
  253loPI   C2A 4040  11.832  16.097  10.201 -0.0954  0.0320 -0.0374
  253loPI   C3A 4041  11.800  16.100   9.745  0.1241 -0.0212 -0.0511
  253loPI   C4A 4042  11.823  16.168   9.319 -0.3740  0.1844 -0.1047
  253loPI   C5A 4043  11.756  16.051   8.856 -0.1737 -0.1872  0.0695
  253loPI   C6A 4044  11.534  15.708   8.739  0.0341 -0.2177  0.2160
  253loPI   C1B 4045  11.280  15.839  10.724  0.5047  0.1615 -0.1525
  253loPI   C2B 4046  11.189  16.012  10.361  0.2420 -0.0943 -0.2186
  253loPI   C3B 4047  11.172  16.044   9.892 -0.3511 -0.2231  0.2056
  253loPI   C4B 4048  11.365  16.020   9.538 -0.3203  0.0565 -0.1388
  254loPI    C1 4049   6.835   3.255  11.754 -0.0328  0.2299  0.0530
  254loPI    C2 4050   6.536   3.478  11.899 -0.0563  0.1421  0.1409
  254loPI    C3 4051   6.781   3.284  12.149 -0.2709 -0.2404  0.0621
  254loPI   PO4 4052   6.961   3.358  11.578 -0.1522  0.2374 -0.1201
  254loPI   GL1 4053   7.026   3.277  11.188 -0.2237  0.2142  0.1754
  254loPI   GL2 4054   6.653   3.471  11.125  0.1122  0.3575  0.0319
  254loPI   C1A 4055   6.937   3.217  10.797 -0.3423 -0.0275  0.3799
  254loPI   C2A 4056   7.022   3.167  10.385  0.0302  0.0058 -0.1601
  254loPI   C3A 4057   7.012   3.194   9.923  0.1265 -0.2143  0.1460
  254loPI   C4A 4058   6.884   3.317   9.520  0.0848 -0.0874 -0.0033
  254loPI   C5A 4059   6.741   3.239   9.142  0.1940 -0.0423 -0.1384
  254loPI   C6A 4060   6.509   2.904   9.111  0.0252 -0.0721 -0.0860
  254loPI   C1B 4061   6.654   3.639  10.750 -0.1306  0.0974  0.0659
  254loPI   C2B 4062   6.686   3.607  10.321  0.0931  0.2597  0.1551
  254loPI   C3B 4063   6.678   3.614   9.922  0.0182 -0.1581  0.0932
  254loPI   C4B 4064   6.623   3.764   9.444 -0.3510  0.1372 -0.0865
  255loPI    C1 4065   4.394  11.660  12.031 -0.1699 -0.3137  0.0091
  255loPI    C2 4066   4.574  11.578  12.378  0.0403 -0.0850 -0.0432
  255loPI    C3 4067   4.176  11.556  12.349  0.0336 -0.2683  0.1655
  255loPI   PO4 4068   4.565  11.622  11.873 -0.1901  0.1596  0.2032
  255loPI   GL1 4069   4.511  11.817  11.435 -0.1900 -0.1525 -0.0406
  255loPI   GL2 4070   4.868  11.831  11.121  0.0406 -0.2656 -0.1489
  255loPI   C1A 4071   4.327  11.647  11.069  0.0702  0.0580  0.0959
  255loPI   C2A 4072   4.371  11.553  10.748  0.1503 -0.1484  0.1537
  255loPI   C3A 4073   4.296  11.570  10.334 -0.1696  0.2057 -0.2138
  255loPI   C4A 4074   4.284  11.576   9.923 -0.1574 -0.2764  0.4016
  255loPI   C5A 4075   4.272  11.569   9.505 -0.2541  0.1468 -0.0136
  255loPI   C6A 4076   4.276  11.516   9.085 -0.0231  0.2098  0.2326
  255loPI   C1B 4077   4.876  11.730  10.723  0.1683  0.1583 -0.1760
  255loPI   C2B 4078   4.881  11.643  10.336  0.3061 -0.0461  0.0800
  255loPI   C3B 4079   4.811  11.680   9.933  0.1924 -0.0704  0.2162
  255loPI   C4B 4080   4.771  11.683   9.472  0.3648 -0.1103  0.1760
  256loPI    C1 4081  13.586   9.360  11.651  0.1676  0.0760 -0.0544
  256loPI    C2 4082  13.757   9.533  11.968  0.1055  0.0678 -0.0163
  256loPI    C3 4083  13.361   9.475  11.961  0.1217 -0.0407 -0.0437
  256loPI   PO4 4084  13.726   9.498  11.477  0.0727  0.1856 -0.0196
  256loPI   GL1 4085  13.681   9.704  11.152  0.0733  0.0273  0.0593
  256loPI   GL2 4086  13.540  10.007  11.145 -0.0900 -0.1340 -0.0610
  256loPI   C1A 4087  13.593   9.747  10.708  0.1688  0.2970 -0.2695
  256loPI   C2A 4088  13.546   9.818  10.324 -0.0802  0.2538 -0.0009
  256loPI   C3A 4089  13.561   9.781   9.916 -0.0979 -0.1321  0.0818
  256loPI   C4A 4090  13.579   9.690   9.491 -0.0694  0.1051 -0.0778
  256loPI   C5A 4091  13.553   9.686   9.109  0.0948 -0.1207  0.4550
  256loPI   C6A 4092  13.690   9.498   8.840  0.1015 -0.0251  0.2266
  256loPI   C1B 4093  13.701  10.279  10.859  0.0823  0.1024 -0.0594
  256loPI   C2B 4094  13.691  10.277  10.405  0.2457  0.1145  0.1580
  256loPI   C3B 4095  13.771  10.237   9.992  0.1462  0.1105  0.2032
  256loPI   C4B 4096  13.679  10.239   9.538 -0.0573 -0.1676 -0.2370
  257loPI    C1 4097   1.860  13.050  11.958  0.0562  0.0842 -0.1317
  257loPI    C2 4098   2.034  13.088  12.316 -0.0604  0.0875 -0.0751
  257loPI    C3 4099   1.934  13.414  12.106 -0.1474  0.0872 -0.0345
  257loPI   PO4 4100   2.002  12.876  11.763  0.4039 -0.1313 -0.1274
  257loPI   GL1 4101   2.011  12.940  11.342  0.0398 -0.0183  0.1603
  257loPI   GL2 4102   1.625  13.049  11.264 -0.0417  0.1226 -0.1172
  257loPI   C1A 4103   1.849  12.927  10.853 -0.2773  0.1282 -0.0546
  257loPI   C2A 4104   1.884  12.855  10.398  0.0853 -0.1561  0.2643
  257loPI   C3A 4105   1.869  12.838  10.002  0.0130 -0.1816  0.1629
  257loPI   C4A 4106   1.835  12.786   9.571  0.0531 -0.1965 -0.2236
  257loPI   C5A 4107   1.819  12.820   9.096 -0.0874  0.0212  0.0679
  257loPI   C6A 4108   1.840  12.911   8.645 -0.4188 -0.3811 -0.0547
  257loPI   C1B 4109   1.515  13.285  10.879 -0.3507 -0.1486 -0.4455
  257loPI   C2B 4110   1.444  13.280  10.468  0.0637 -0.1541 -0.0397
  257loPI   C3B 4111   1.555  13.255   9.984 -0.4021 -0.1599 -0.1135
  257loPI   C4B 4112   1.531  13.197   9.549 -0.0596  0.1440 -0.0930
  258loPI    C1 4113  13.454  13.632  11.486  0.0807 -0.2140  0.0797
  258loPI    C2 4114  13.448  13.470  11.852 -0.1531 -0.1201  0.1192
  258loPI    C3 4115  13.746  13.714  11.747 -0.0401 -0.2145  0.2166
  258loPI   PO4 4116  13.441  13.447  11.328 -0.0905 -0.2945 -0.0452
  258loPI   GL1 4117  13.620  13.511  10.973 -0.2079  0.1921  0.0876
  258loPI   GL2 4118  13.360  13.757  11.006 -0.0376  0.1639  0.0874
  258loPI   C1A 4119  13.746  13.354  10.639  0.0246  0.1156 -0.1858
  258loPI   C2A 4120  13.783  13.346  10.145  0.0305 -0.1388 -0.0449
  258loPI   C3A 4121  13.714  13.371   9.681  0.0861 -0.0671 -0.4986
  258loPI   C4A 4122  13.701  13.461   9.234  0.2713  0.1159 -0.0585
  258loPI   C5A 4123  13.700  13.618   8.794  0.1020 -0.0377  0.0905
  258loPI   C6A 4124  14.128  13.721   8.588  0.1088  0.0468  0.2814
  258loPI   C1B 4125  13.399  13.705  10.575  0.1593 -0.1815 -0.0652
  258loPI   C2B 4126  13.430  13.686  10.124  0.3258  0.2575  0.1483
  258loPI   C3B 4127  13.417  13.748   9.655  0.0741 -0.0685  0.0024
  258loPI   C4B 4128  13.243  13.789   9.165  0.1317  0.0701 -0.0134
  259loPI    C1 4129  13.749   9.982  11.693  0.3313  0.0700 -0.0335
  259loPI    C2 4130  13.946  10.209  11.957  0.2108 -0.3452  0.4268
  259loPI    C3 4131  13.585  10.062  12.048 -0.0350 -0.1284 -0.1530
  259loPI   PO4 4132  13.944   9.962  11.497 -0.0640 -0.0473 -0.1303
  259loPI   GL1 4133  14.103  10.204  11.155 -0.0729 -0.0931  0.0585
  259loPI   GL2 4134  14.259   9.907  11.021  0.2783  0.1075  0.0396
  259loPI   C1A 4135  14.209  10.370  10.696 -0.0630  0.1259  0.1085
  259loPI   C2A 4136  14.213  10.364  10.216  0.3127 -0.1976  0.2348
  259loPI   C3A 4137  14.196  10.340   9.753  0.1551 -0.1606 -0.0061
  259loPI   C4A 4138  14.308  10.312   9.327 -0.1492  0.0020  0.2157
  259loPI   C5A 4139  14.209  10.298   8.980  0.1405 -0.1271  0.0181
  259loPI   C6A 4140  13.955  10.504   8.622 -0.0900  0.1355 -0.0634
  259loPI   C1B 4141  14.073   9.823  10.693  0.0772  0.3757 -0.2108
  259loPI   C2B 4142  14.060   9.934  10.332 -0.0304 -0.4272  0.2104
  259loPI   C3B 4143  14.102   9.813   9.857 -0.1555 -0.0138 -0.0341
  259loPI   C4B 4144  14.049   9.964   9.517  0.3091 -0.1949  0.4804
  260loPI    C1 4145   0.460   3.085  11.619  0.0171  0.1232  0.0892
  260loPI    C2 4146   0.572   2.727  11.758 -0.1016  0.0719  0.0549
  260loPI    C3 4147   0.455   3.013  12.012  0.1147  0.1297  0.0919
  260loPI   PO4 4148   0.504   3.029  11.337  0.3295  0.2679  0.0749
  260loPI   GL1 4149   0.751   2.976  10.998  0.0759 -0.1109  0.2702
  260loPI   GL2 4150   0.850   3.313  10.960 -0.0432  0.1854 -0.3988
  260loPI   C1A 4151   0.721   2.774  10.528 -0.2532 -0.0441 -0.1820
  260loPI   C2A 4152   0.764   2.770  10.098 -0.1143 -0.0196 -0.1283
  260loPI   C3A 4153   0.681   2.737   9.713 -0.0000 -0.1752 -0.3580
  260loPI   C4A 4154   0.675   2.767   9.321  0.3138  0.1414 -0.0121
  260loPI   C5A 4155   0.785   2.721   8.946 -0.1688 -0.1970 -0.1784
  260loPI   C6A 4156   0.601   2.563   8.718 -0.1406 -0.3093  0.0073
  260loPI   C1B 4157   0.825   3.269  10.556  0.2947 -0.2061  0.0860
  260loPI   C2B 4158   0.956   3.251  10.204  0.0251 -0.2420 -0.0933
  260loPI   C3B 4159   0.762   3.338   9.871 -0.3223 -0.0896  0.0576
  260loPI   C4B 4160   0.785   3.283   9.485  0.0231  0.4244  0.0023
  261loPI    C1 4161   8.102  16.844  11.834 -0.1436  0.0653 -0.1256
  261loPI    C2 4162   8.463  16.680  11.882 -0.1829 -0.0057 -0.0697
  261loPI    C3 4163   8.187  16.641  12.169 -0.2349  0.0483 -0.1125
  261loPI   PO4 4164   8.107  16.993  11.678  0.2135 -0.2461  0.0909
  261loPI   GL1 4165   8.043  17.124  11.230 -0.1026  0.2545 -0.0434
  261loPI   GL2 4166   8.272  17.058  11.105  0.0748 -0.0623  0.3474
  261loPI   C1A 4167   7.938  17.392  10.884 -0.0144  0.3632  0.1481
  261loPI   C2A 4168   7.969  17.487  10.491 -0.3650  0.1523 -0.1096
  261loPI   C3A 4169   7.943  17.581  10.112 -0.4262 -0.0640  0.0859
  261loPI   C4A 4170   7.925  17.480   9.689  0.0615 -0.2989  0.1986
  261loPI   C5A 4171   7.902  17.471   9.185  0.1021 -0.2216  0.0801
  261loPI   C6A 4172   8.004  17.244   8.764  0.2638  0.0344 -0.0902
  261loPI   C1B 4173   8.345  17.059  10.657 -0.0443  0.0535 -0.2703
  261loPI   C2B 4174   8.246  17.134  10.144  0.2598 -0.3623 -0.1349
  261loPI   C3B 4175   8.280  17.059   9.709  0.0225 -0.0895 -0.1464
  261loPI   C4B 4176   8.234  17.120   9.256 -0.0457 -0.1888 -0.0389
  262loPI    C1 4177   3.636  14.079  11.766 -0.1852 -0.3338  0.0029
  262loPI    C2 4178   3.390  14.323  11.965  0.0368 -0.0714 -0.0371
  262loPI    C3 4179   3.584  14.032  12.160 -0.1295 -0.1355  0.0351
  262loPI   PO4 4180   3.571  14.042  11.566 -0.0346 -0.1274 -0.0204
  262loPI   GL1 4181   3.648  14.121  11.119  0.0082 -0.0046  0.1294
  262loPI   GL2 4182   3.785  14.330  10.958 -0.1262  0.1453  0.3675
  262loPI   C1A 4183   3.461  13.762  10.991 -0.1391 -0.4064 -0.3951
  262loPI   C2A 4184   3.599  13.641  10.531  0.0782  0.1204 -0.0123
  262loPI   C3A 4185   3.552  13.666  10.076 -0.2298 -0.1993 -0.0185
  262loPI   C4A 4186   3.492  13.735   9.644  0.0491  0.1380  0.3708
  262loPI   C5A 4187   3.316  13.741   9.235 -0.0895 -0.1090 -0.0799
  262loPI   C6A 4188   3.109  13.593   8.765 -0.3393  0.0847  0.1524
  262loPI   C1B 4189   3.752  14.208  10.547 -0.0712  0.1052 -0.0932
  262loPI   C2B 4190   3.707  14.111  10.023 -0.0146  0.1033  0.0087
  262loPI   C3B 4191   3.554  14.221   9.628  0.1512  0.0414 -0.0036
  262loPI   C4B 4192   3.578  14.144   9.067  0.0022 -0.2867 -0.0827
  263loPI    C1 4193  10.095  17.039  12.020 -0.2179  0.1159 -0.1819
  263loPI    C2 4194  10.052  16.642  12.033 -0.0547  0.0947 -0.2620
  263loPI    C3 4195   9.757  16.879  12.163 -0.1799 -0.0510 -0.2769
  263loPI   PO4 4196  10.151  17.100  11.708 -0.1357  0.2914 -0.0792
  263loPI   GL1 4197   9.999  17.060  11.243  0.2160  0.1392  0.0337
  263loPI   GL2 4198  10.181  16.746  11.004  0.0033  0.2118  0.2958
  263loPI   C1A 4199   9.575  17.064  10.947  0.3432 -0.2234  0.1266
  263loPI   C2A 4200   9.558  17.133  10.466 -0.1669  0.2855 -0.0943
  263loPI   C3A 4201   9.614  17.040  10.040  0.0673 -0.2557 -0.0098
  263loPI   C4A 4202   9.642  16.950   9.692 -0.0089 -0.0738  0.2132
  263loPI   C5A 4203   9.721  16.878   9.199  0.2590 -0.0036  0.0228
  263loPI   C6A 4204   9.931  16.965   8.737  0.0196 -0.2838  0.0215
  263loPI   C1B 4205   9.965  16.739  10.701 -0.1372 -0.0840  0.0761
  263loPI   C2B 4206   9.989  16.607  10.314  0.0530 -0.0919  0.0477
  263loPI   C3B 4207  10.060  16.554   9.876 -0.0194  0.1065 -0.0264
  263loPI   C4B 4208  10.033  16.636   9.479 -0.1266 -0.0666 -0.0042
  264loPI    C1 4209   6.600   8.846  11.700  0.0509 -0.1273  0.0342
  264loPI    C2 4210   6.386   9.110  11.910 -0.0704 -0.2900  0.1174
  264loPI    C3 4211   6.544   8.791  12.092 -0.0008 -0.3227  0.0006
  264loPI   PO4 4212   6.567   9.032  11.434 -0.0977 -0.0894  0.2136
  264loPI   GL1 4213   6.487   8.899  11.012  0.3040 -0.2396  0.2982
  264loPI   GL2 4214   6.385   9.228  10.959  0.1155 -0.1194 -0.0697
  264loPI   C1A 4215   6.736   8.977  10.667 -0.0505 -0.2920  0.1879
  264loPI   C2A 4216   6.808   8.950  10.242 -0.2270  0.1617  0.2397
  264loPI   C3A 4217   6.750   8.970   9.808 -0.2586  0.3556 -0.0439
  264loPI   C4A 4218   6.592   8.975   9.443  0.2328  0.1114 -0.1131
  264loPI   C5A 4219   6.573   8.871   9.030 -0.1872  0.2050 -0.0856
  264loPI   C6A 4220   6.539   8.696   8.673  0.0359  0.1062  0.0065
  264loPI   C1B 4221   6.427   9.313  10.503 -0.1771  0.1320  0.0574
  264loPI   C2B 4222   6.447   9.302  10.064 -0.2078  0.4943 -0.1720
  264loPI   C3B 4223   6.274   9.407   9.664  0.0869 -0.0106 -0.1271
  264loPI   C4B 4224   6.361   9.355   9.203 -0.0274  0.1642 -0.2138
  265loPI    C1 4225   5.318   4.452  11.993 -0.1651 -0.1044 -0.1586
  265loPI    C2 4226   5.416   4.365  12.371 -0.0086  0.1300 -0.1429
  265loPI    C3 4227   5.145   4.649  12.295  0.1612  0.2765 -0.2103
  265loPI   PO4 4228   5.365   4.231  11.816  0.3810 -0.1533  0.2588
  265loPI   GL1 4229   5.320   4.234  11.464  0.0035  0.2010 -0.1281
  265loPI   GL2 4230   5.610   4.126  11.285 -0.1389 -0.1010  0.0082
  265loPI   C1A 4231   5.158   4.299  11.089  0.0326 -0.0236 -0.4380
  265loPI   C2A 4232   5.007   4.230  10.589  0.1545 -0.4356 -0.4278
  265loPI   C3A 4233   5.002   4.266  10.179  0.1285 -0.1897  0.0099
  265loPI   C4A 4234   4.974   4.218   9.705 -0.1602 -0.0416 -0.0808
  265loPI   C5A 4235   4.782   4.225   9.291 -0.0126 -0.2124  0.0040
  265loPI   C6A 4236   4.517   4.265   8.988 -0.1873  0.0607  0.0660
  265loPI   C1B 4237   5.487   3.990  10.986  0.0514  0.1416 -0.1016
  265loPI   C2B 4238   5.315   3.846  10.530 -0.1124 -0.2104 -0.0270
  265loPI   C3B 4239   5.362   3.775  10.144 -0.2916 -0.3448 -0.2408
  265loPI   C4B 4240   5.469   3.757   9.694 -0.1112  0.1878  0.1007
  266loPI    C1 4241   0.047   5.209  11.684  0.0359 -0.1749 -0.1974
  266loPI    C2 4242  -0.228   5.232  11.974  0.2314 -0.0720 -0.0177
  266loPI    C3 4243   0.038   4.933  11.974  0.2438 -0.0610 -0.0796
  266loPI   PO4 4244  -0.103   5.198  11.462 -0.2113 -0.0660  0.0841
  266loPI   GL1 4245   0.130   5.166  11.112  0.1216  0.1793  0.0926
  266loPI   GL2 4246  -0.180   5.054  10.981 -0.0520  0.0529  0.1166
  266loPI   C1A 4247   0.100   5.521  10.856  0.1707  0.3096 -0.1681
  266loPI   C2A 4248   0.062   5.591  10.452 -0.1311  0.2264  0.4102
  266loPI   C3A 4249   0.070   5.509  10.079  0.0309  0.1492  0.0917
  266loPI   C4A 4250   0.112   5.410   9.712 -0.1902 -0.0152  0.1175
  266loPI   C5A 4251   0.022   5.453   9.249 -0.1543  0.0757 -0.2646
  266loPI   C6A 4252  -0.281   5.492   9.000  0.1852 -0.2500  0.1183
  266loPI   C1B 4253  -0.036   5.029  10.481 -0.0416 -0.0396  0.0246
  266loPI   C2B 4254  -0.064   4.980  10.086 -0.0732 -0.0829 -0.3582
  266loPI   C3B 4255  -0.088   4.961   9.631 -0.0132  0.0323 -0.2153
  266loPI   C4B 4256  -0.163   4.913   9.193 -0.1747 -0.2378  0.0974
  267loPI    C1 4257  16.487  12.550  11.291  0.0318  0.1385  0.0217
  267loPI    C2 4258  16.722  12.637  11.603 -0.0865  0.2300  0.0865
  267loPI    C3 4259  16.884  12.557  11.246  0.0428  0.2822  0.1329
  267loPI   PO4 4260  16.198  12.767  11.353  0.2422 -0.0137 -0.0971
  267loPI   GL1 4261  16.158  12.891  10.955 -0.0561 -0.3353  0.0724
  267loPI   GL2 4262  15.876  12.983  11.007 -0.0419  0.0453  0.0560
  267loPI   C1A 4263  16.253  12.647  10.566  0.2651  0.1641 -0.2410
  267loPI   C2A 4264  16.267  12.673  10.166 -0.0600  0.0025  0.1264
  267loPI   C3A 4265  16.272  12.566   9.740 -0.3572 -0.3206 -0.2811
  267loPI   C4A 4266  16.287  12.598   9.287 -0.0674 -0.0286 -0.0703
  267loPI   C5A 4267  16.248  12.755   8.863 -0.1797  0.1987 -0.2854
  267loPI   C6A 4268  16.483  13.050   8.517  0.0050  0.1799  0.1279
  267loPI   C1B 4269  15.924  13.057  10.509 -0.2403 -0.1094 -0.2464
  267loPI   C2B 4270  15.890  12.934  10.065  0.1299 -0.0120  0.0629
  267loPI   C3B 4271  15.948  12.900   9.575  0.1104  0.0543 -0.0547
  267loPI   C4B 4272  15.916  13.035   9.246 -0.2310  0.0032  0.0411
  268loPI    C1 4273  10.995   4.876  11.956 -0.0073 -0.0577 -0.0502
  268loPI    C2 4274  10.957   4.782  12.343 -0.0179  0.2314  0.0218
  268loPI    C3 4275  11.040   5.158  12.236  0.0825  0.1337 -0.2539
  268loPI   PO4 4276  10.904   4.822  11.837 -0.1874  0.4849  0.1597
  268loPI   GL1 4277  10.971   4.577  11.463 -0.0208 -0.1808  0.2498
  268loPI   GL2 4278  10.710   4.548  11.367 -0.2433  0.1010  0.0576
  268loPI   C1A 4279  11.062   4.623  11.009  0.0289 -0.0510 -0.1378
  268loPI   C2A 4280  10.996   4.598  10.608 -0.0768 -0.0348 -0.1075
  268loPI   C3A 4281  11.079   4.567  10.151 -0.0736 -0.0866 -0.1993
  268loPI   C4A 4282  11.055   4.557   9.809  0.0517 -0.0631 -0.6747
  268loPI   C5A 4283  11.126   4.519   9.327 -0.0496  0.0285  0.0614
  268loPI   C6A 4284  10.892   4.301   8.940 -0.3956  0.0813  0.0453
  268loPI   C1B 4285  10.588   4.472  10.844 -0.1679 -0.0702  0.1749
  268loPI   C2B 4286  10.522   4.475  10.377  0.2675 -0.1621 -0.2149
  268loPI   C3B 4287  10.565   4.416   9.932  0.1629  0.0408  0.3050
  268loPI   C4B 4288  10.659   4.483   9.527  0.0850 -0.0024  0.2029
  269loPI    C1 4289   2.733  12.153  11.936 -0.0389  0.0728  0.0260
  269loPI    C2 4290   2.546  11.909  12.191  0.0804  0.2383  0.2760
  269loPI    C3 4291   2.933  11.993  12.243  0.1182  0.2356  0.0103
  269loPI   PO4 4292   2.525  12.201  11.761 -0.0049 -0.0507 -0.0953
  269loPI   GL1 4293   2.393  12.207  11.341  0.2923 -0.4746 -0.1147
  269loPI   GL2 4294   2.394  11.879  11.316 -0.3357 -0.0372 -0.0571
  269loPI   C1A 4295   2.093  12.419  11.113  0.2077 -0.0427  0.0318
  269loPI   C2A 4296   2.230  12.444  10.696  0.1499  0.1727  0.0691
  269loPI   C3A 4297   2.241  12.395  10.303 -0.3058  0.0537 -0.2411
  269loPI   C4A 4298   2.201  12.452   9.838  0.2869 -0.2964  0.3354
  269loPI   C5A 4299   2.206  12.412   9.354 -0.1030  0.0832  0.1862
  269loPI   C6A 4300   2.092  12.228   8.973  0.1740  0.0796 -0.1419
  269loPI   C1B 4301   2.422  11.739  10.833 -0.0085 -0.1261 -0.1555
  269loPI   C2B 4302   2.439  11.577  10.444 -0.2250 -0.0039  0.3099
  269loPI   C3B 4303   2.421  11.567  10.063 -0.0117  0.0668  0.0118
  269loPI   C4B 4304   2.292  11.502   9.592 -0.0816 -0.1557 -0.1168
  270loPI    C1 4305  11.263  11.594  11.621  0.0473  0.3928  0.0234
  270loPI    C2 4306  11.279  11.379  11.958  0.0760 -0.1087 -0.2873
  270loPI    C3 4307  11.432  11.749  11.948  0.2272 -0.1519  0.1989
  270loPI   PO4 4308  11.345  11.449  11.418 -0.1060  0.1167 -0.1404
  270loPI   GL1 4309  11.340  11.661  11.129 -0.0729 -0.2538  0.1214
  270loPI   GL2 4310  11.422  11.950  11.025 -0.2479 -0.0337  0.0668
  270loPI   C1A 4311  11.267  11.538  10.768 -0.3464 -0.0979 -0.1070
  270loPI   C2A 4312  11.258  11.578  10.346  0.1131 -0.0956  0.1202
  270loPI   C3A 4313  11.235  11.403   9.887 -0.0736  0.0743  0.1765
  270loPI   C4A 4314  11.256  11.401   9.483 -0.0005  0.1082  0.2173
  270loPI   C5A 4315  11.290  11.269   9.095 -0.0183  0.3437  0.1990
  270loPI   C6A 4316  11.199  11.255   8.636  0.1731 -0.2237 -0.1782
  270loPI   C1B 4317  11.450  12.008  10.527  0.3053 -0.1218  0.1210
  270loPI   C2B 4318  11.473  12.029  10.156  0.1196 -0.1879 -0.0007
  270loPI   C3B 4319  11.392  11.993   9.763  0.0344  0.1305  0.1974
  270loPI   C4B 4320  11.430  11.869   9.269 -0.0089  0.0265  0.0984
  271loPI    C1 4321  13.538  17.093  11.600  0.0234 -0.0381 -0.1725
  271loPI    C2 4322  13.870  17.273  11.732  0.0028 -0.0842 -0.0559
  271loPI    C3 4323  13.793  16.895  11.836 -0.0904 -0.0711 -0.0761
  271loPI   PO4 4324  13.469  17.232  11.395 -0.3735  0.1860  0.0602
  271loPI   GL1 4325  13.577  17.134  10.959 -0.0815  0.1743 -0.0213
  271loPI   GL2 4326  13.906  17.230  10.853 -0.1627 -0.1362  0.2349
  271loPI   C1A 4327  13.502  17.009  10.489 -0.0232  0.1215 -0.0120
  271loPI   C2A 4328  13.419  16.998  10.083  0.0657 -0.1150 -0.0495
  271loPI   C3A 4329  13.464  16.975   9.622 -0.0401  0.0096 -0.2425
  271loPI   C4A 4330  13.402  17.127   9.227  0.0516 -0.1883 -0.3162
  271loPI   C5A 4331  13.166  17.042   8.835  0.0255  0.2525  0.0856
  271loPI   C6A 4332  13.177  17.029   8.435 -0.2378  0.2612  0.1327
  271loPI   C1B 4333  14.051  17.199  10.342 -0.0482 -0.0887 -0.0400
  271loPI   C2B 4334  13.918  17.082   9.973 -0.3611  0.1933  0.0199
  271loPI   C3B 4335  13.909  17.122   9.476 -0.2090  0.1427 -0.3547
  271loPI   C4B 4336  13.909  17.043   9.064 -0.1651 -0.0405 -0.1670
  272loPI    C1 4337  15.333  15.195  11.507  0.0258  0.1222  0.0645
  272loPI    C2 4338  15.098  14.895  11.628  0.1195 -0.0195 -0.0991
  272loPI    C3 4339  15.118  15.232  11.842  0.1414 -0.1928  0.1778
  272loPI   PO4 4340  15.332  15.235  11.251 -0.0797  0.2341 -0.0803
  272loPI   GL1 4341  15.172  14.970  10.968 -0.2184 -0.0786  0.0732
  272loPI   GL2 4342  15.253  15.188  10.685 -0.1174 -0.0319 -0.0347
  272loPI   C1A 4343  15.073  14.745  10.549 -0.0610  0.0160  0.0833
  272loPI   C2A 4344  15.006  14.654  10.182  0.1549  0.0154  0.0738
  272loPI   C3A 4345  15.017  14.643   9.709 -0.0098 -0.2436 -0.0722
  272loPI   C4A 4346  14.962  14.562   9.287 -0.0644  0.1717  0.2605
  272loPI   C5A 4347  14.835  14.606   8.788 -0.0878  0.3690 -0.1185
  272loPI   C6A 4348  14.719  14.945   8.528  0.1333  0.0519 -0.0008
  272loPI   C1B 4349  15.237  15.189  10.205 -0.2628  0.1149  0.0605
  272loPI   C2B 4350  15.187  15.164   9.737 -0.0124 -0.2197  0.1382
  272loPI   C3B 4351  15.214  15.085   9.324 -0.1409  0.0029  0.0462
  272loPI   C4B 4352  14.922  15.128   8.955  0.0720 -0.1484  0.2810
  273loPI    C1 4353  13.843   7.689  11.775 -0.1604  0.1856  0.1580
  273loPI    C2 4354  13.928   7.327  11.923  0.1836  0.1085 -0.2098
  273loPI    C3 4355  14.009   7.655  12.138 -0.0008 -0.0227  0.0673
  273loPI   PO4 4356  13.954   7.690  11.585 -0.2093  0.0446 -0.1049
  273loPI   GL1 4357  14.068   7.636  11.175 -0.0625 -0.2892  0.0845
  273loPI   GL2 4358  13.813   7.453  11.163  0.2802  0.2475  0.2000
  273loPI   C1A 4359  14.326   7.614  10.847 -0.0535  0.1860 -0.0320
  273loPI   C2A 4360  14.282   7.575  10.405 -0.4236 -0.2812  0.0031
  273loPI   C3A 4361  14.262   7.624  10.050 -0.0375  0.1670 -0.0630
  273loPI   C4A 4362  14.346   7.628   9.633  0.1748  0.1517 -0.1766
  273loPI   C5A 4363  14.347   7.625   9.133  0.3417 -0.0069 -0.2397
  273loPI   C6A 4364  13.983   7.510   8.888 -0.0666 -0.1352  0.0110
  273loPI   C1B 4365  13.846   7.493  10.679  0.3884 -0.1122  0.0100
  273loPI   C2B 4366  13.822   7.602  10.252  0.2297  0.3564 -0.0960
  273loPI   C3B 4367  13.879   7.484   9.794  0.1235 -0.2337  0.0930
  273loPI   C4B 4368  13.881   7.486   9.398 -0.0767 -0.0572  0.0164
  274loPI    C1 4369   5.526   5.930  11.597  0.2075 -0.0925 -0.1796
  274loPI    C2 4370   5.802   5.745  11.820  0.2682 -0.0278 -0.2007
  274loPI    C3 4371   5.774   6.144  11.826 -0.1373 -0.0550  0.1676
  274loPI   PO4 4372   5.377   5.709  11.520 -0.1008  0.2630  0.1500
  274loPI   GL1 4373   5.239   5.372  11.124 -0.0999 -0.2686 -0.0735
  274loPI   GL2 4374   4.958   5.562  11.118  0.5444 -0.1550 -0.3459
  274loPI   C1A 4375   5.264   5.232  10.695 -0.1584 -0.0026  0.2177
  274loPI   C2A 4376   5.318   5.267  10.305  0.1346  0.1099 -0.0991
  274loPI   C3A 4377   5.337   5.245   9.876 -0.3677  0.1538  0.0754
  274loPI   C4A 4378   5.274   5.233   9.502 -0.1057  0.2685  0.1011
  274loPI   C5A 4379   5.432   5.068   9.170  0.1258  0.0149  0.1087
  274loPI   C6A 4380   5.796   5.092   8.896  0.0617  0.0824 -0.1692
  274loPI   C1B 4381   4.971   5.604  10.699  0.1210 -0.0971 -0.2825
  274loPI   C2B 4382   4.882   5.525  10.282  0.0010  0.0530 -0.0420
  274loPI   C3B 4383   4.991   5.615   9.827  0.1441 -0.0733 -0.3467
  274loPI   C4B 4384   4.846   5.625   9.407  0.1703 -0.1222  0.0771
  275loPI    C1 4385  16.748  10.927  11.545 -0.0892  0.2275 -0.0004
  275loPI    C2 4386  16.899  11.261  11.705 -0.1601  0.1128  0.3123
  275loPI    C3 4387  16.992  10.904  11.861 -0.1324 -0.0115  0.0177
  275loPI   PO4 4388  16.766  10.983  11.265  0.0348 -0.1589 -0.3916
  275loPI   GL1 4389  16.729  11.383  11.072 -0.1870 -0.2158 -0.0905
  275loPI   GL2 4390  16.597  11.575  11.036  0.2094 -0.2418  0.0312
  275loPI   C1A 4391  16.854  11.314  10.655 -0.1207 -0.0458  0.0031
  275loPI   C2A 4392  16.831  11.465  10.204  0.2797  0.0424  0.0589
  275loPI   C3A 4393  16.869  11.490   9.774  0.0242 -0.0143 -0.1571
  275loPI   C4A 4394  16.785  11.420   9.355 -0.2811  0.0401 -0.2408
  275loPI   C5A 4395  16.838  11.417   8.888 -0.3784 -0.0953 -0.1533
  275loPI   C6A 4396  16.875  11.706   8.595  0.2823 -0.0145 -0.0008
  275loPI   C1B 4397  16.559  11.727  10.592 -0.0457  0.0438 -0.0868
  275loPI   C2B 4398  16.551  11.910  10.188  0.0388  0.0005 -0.0334
  275loPI   C3B 4399  16.485  11.768   9.734  0.0733  0.0188 -0.0014
  275loPI   C4B 4400  16.438  11.760   9.294 -0.0371  0.0901  0.1121
  276loPI    C1 4401  12.948  12.071  11.871  0.0619 -0.0291  0.0015
  276loPI    C2 4402  12.851  11.735  12.065 -0.0935  0.1027  0.1547
  276loPI    C3 4403  13.231  11.859  12.057 -0.0671  0.0305  0.2707
  276loPI   PO4 4404  12.918  12.044  11.652  0.1473  0.4355 -0.0628
  276loPI   GL1 4405  13.004  11.996  11.304 -0.0507  0.0178 -0.0354
  276loPI   GL2 4406  13.313  11.969  11.168 -0.0240  0.3781 -0.2421
  276loPI   C1A 4407  12.863  11.872  10.759  0.1646  0.0199  0.0579
  276loPI   C2A 4408  12.783  11.862  10.404  0.2421 -0.1660  0.1517
  276loPI   C3A 4409  12.661  11.906   9.946 -0.2116  0.1029 -0.3283
  276loPI   C4A 4410  12.741  11.829   9.485  0.1167 -0.0092  0.1416
  276loPI   C5A 4411  12.613  11.757   9.097 -0.3444  0.0011  0.2464
  276loPI   C6A 4412  12.671  11.326   9.001 -0.0654 -0.0378 -0.2355
  276loPI   C1B 4413  13.334  11.921  10.765 -0.0854 -0.0950  0.1196
  276loPI   C2B 4414  13.316  11.966  10.363 -0.1676  0.1931 -0.0885
  276loPI   C3B 4415  13.222  11.944   9.888 -0.1021 -0.0208  0.0928
  276loPI   C4B 4416  13.237  11.958   9.437 -0.2271  0.0526 -0.0800
  277loPI    C1 4417   0.125   0.441  11.915  0.0725  0.0227  0.2307
  277loPI    C2 4418   0.082   0.341  12.299 -0.2894 -0.2190  0.1328
  277loPI    C3 4419  -0.022   0.706  12.175  0.1326 -0.0290  0.3177
  277loPI   PO4 4420   0.039   0.293  11.736  0.1900  0.3553  0.1528
  277loPI   GL1 4421   0.041   0.245  11.246  0.1155 -0.0494  0.3355
  277loPI   GL2 4422  -0.149   0.507  11.254  0.0815 -0.3382  0.0111
  277loPI   C1A 4423   0.078   0.265  10.803 -0.0145 -0.0192 -0.1694
  277loPI   C2A 4424   0.047   0.288  10.420  0.1798  0.0334  0.0886
  277loPI   C3A 4425  -0.022   0.266   9.983  0.0392 -0.1661  0.2429
  277loPI   C4A 4426  -0.078   0.277   9.553  0.0441 -0.0753 -0.1474
  277loPI   C5A 4427  -0.076   0.290   9.153  0.1397  0.1972 -0.2399
  277loPI   C6A 4428  -0.333   0.676   9.032 -0.0436  0.1373 -0.0732
  277loPI   C1B 4429  -0.257   0.601  10.861  0.2029  0.2328  0.2738
  277loPI   C2B 4430  -0.306   0.649  10.446  0.0312  0.0447  0.0083
  277loPI   C3B 4431  -0.412   0.571  10.069 -0.0202  0.2316 -0.0618
  277loPI   C4B 4432  -0.480   0.584   9.669 -0.0710 -0.4691  0.1424
  278loPI    C1 4433   4.807   3.961  11.911  0.0090 -0.1921 -0.0654
  278loPI    C2 4434   5.083   4.051  12.186 -0.0515 -0.2563  0.0169
  278loPI    C3 4435   4.695   4.062  12.282 -0.0744 -0.2405 -0.0771
  278loPI   PO4 4436   4.852   4.060  11.671  0.1978 -0.0388 -0.0513
  278loPI   GL1 4437   4.894   3.943  11.303  0.1351  0.0471 -0.3253
  278loPI   GL2 4438   5.145   3.709  11.187 -0.0190 -0.0497  0.0558
  278loPI   C1A 4439   4.627   4.164  10.971  0.0269  0.0670 -0.0494
  278loPI   C2A 4440   4.467   4.071  10.512 -0.0594 -0.1743 -0.1544
  278loPI   C3A 4441   4.579   4.139  10.038  0.2418  0.2831 -0.0571
  278loPI   C4A 4442   4.443   4.173   9.631  0.0843  0.0247 -0.0137
  278loPI   C5A 4443   4.260   4.456   9.364 -0.0013  0.0939  0.2848
  278loPI   C6A 4444   3.877   4.727   9.311 -0.1071 -0.1666  0.1199
  278loPI   C1B 4445   5.178   3.334  10.904  0.2644 -0.1285  0.1790
  278loPI   C2B 4446   5.143   3.358  10.455  0.1551  0.0698 -0.1018
  278loPI   C3B 4447   5.156   3.256  10.035 -0.1125  0.0901 -0.2797
  278loPI   C4B 4448   5.292   3.310   9.637 -0.0385  0.1459 -0.0634
  279loPI    C1 4449   6.171   6.847  11.803 -0.0142 -0.1281 -0.2600
  279loPI    C2 4450   5.811   6.988  11.906  0.1471  0.0043  0.1431
  279loPI    C3 4451   5.942   6.642  12.058  0.0663 -0.2052 -0.2491
  279loPI   PO4 4452   6.092   6.886  11.504 -0.2610  0.1578 -0.0315
  279loPI   GL1 4453   6.244   6.720  11.192 -0.0307  0.2530 -0.1324
  279loPI   GL2 4454   6.090   6.485  11.055  0.0008 -0.1015  0.1435
  279loPI   C1A 4455   6.239   6.874  10.735  0.2935 -0.1152  0.0675
  279loPI   C2A 4456   6.127   6.802  10.349 -0.2800 -0.5739  0.2457
  279loPI   C3A 4457   6.221   6.966   9.850  0.0152 -0.1194  0.0587
  279loPI   C4A 4458   6.114   6.954   9.411  0.2379 -0.0775  0.2841
  279loPI   C5A 4459   6.122   7.142   8.948 -0.3500 -0.1135  0.0652
  279loPI   C6A 4460   6.330   7.415   8.743  0.4043 -0.1002 -0.1606
  279loPI   C1B 4461   6.161   6.331  10.663 -0.1321  0.0439  0.1104
  279loPI   C2B 4462   6.069   6.308  10.332 -0.0311 -0.0282  0.0327
  279loPI   C3B 4463   6.068   6.323   9.841  0.3549 -0.0442 -0.2731
  279loPI   C4B 4464   6.072   6.425   9.432  0.0720  0.2950  0.0367
  280loPI    C1 4465   2.792   0.671  11.860 -0.1260 -0.0101  0.1069
  280loPI    C2 4466   2.878   0.995  12.079  0.0602  0.0300 -0.0227
  280loPI    C3 4467   3.115   0.673  12.097 -0.0978 -0.0831  0.0694
  280loPI   PO4 4468   2.746   0.747  11.675 -0.2390 -0.0562 -0.0477
  280loPI   GL1 4469   2.588   0.817  11.257 -0.3720 -0.2422  0.0021
  280loPI   GL2 4470   2.632   0.565  11.046  0.1608  0.3507 -0.1172
  280loPI   C1A 4471   2.556   1.024  10.920  0.0694  0.1672  0.0097
  280loPI   C2A 4472   2.530   0.913  10.538  0.0698  0.2003 -0.1430
  280loPI   C3A 4473   2.535   0.919  10.109  0.0518 -0.3514  0.3769
  280loPI   C4A 4474   2.421   0.849   9.736  0.4050 -0.0572  0.1766
  280loPI   C5A 4475   2.337   0.861   9.306  0.2472 -0.0768  0.0802
  280loPI   C6A 4476   2.321   0.653   8.912  0.0150  0.0949 -0.0269
  280loPI   C1B 4477   2.516   0.363  10.724 -0.1820 -0.0877 -0.3281
  280loPI   C2B 4478   2.297   0.515  10.277 -0.2944  0.1831 -0.1045
  280loPI   C3B 4479   2.341   0.336   9.923 -0.1728 -0.1813  0.1244
  280loPI   C4B 4480   2.226   0.381   9.544 -0.4885  0.1282  0.0445
  281loPI    C1 4481   1.395   0.404  11.802 -0.1456  0.1519  0.0440
  281loPI    C2 4482   1.720   0.469  12.025 -0.1189  0.1277  0.0122
  281loPI    C3 4483   1.429   0.231  12.161  0.0528 -0.1636 -0.1230
  281loPI   PO4 4484   1.395   0.393  11.578  0.1257  0.0901 -0.1283
  281loPI   GL1 4485   1.512   0.232  11.213  0.0026  0.0376  0.0449
  281loPI   GL2 4486   1.633   0.491  11.173  0.2202  0.1001  0.1258
  281loPI   C1A 4487   1.324   0.133  10.788 -0.2320  0.0378  0.4714
  281loPI   C2A 4488   1.358   0.077  10.331 -0.1813 -0.0999  0.3933
  281loPI   C3A 4489   1.399   0.035   9.909 -0.1049  0.1385  0.0293
  281loPI   C4A 4490   1.234  -0.012   9.462  0.1254  0.0143 -0.6478
  281loPI   C5A 4491   1.019  -0.097   8.954 -0.2361  0.1240 -0.1697
  281loPI   C6A 4492   0.511   0.035   8.935  0.0706 -0.0301 -0.3255
  281loPI   C1B 4493   1.555   0.668  10.780  0.0448 -0.0415 -0.1681
  281loPI   C2B 4494   1.476   0.663  10.345  0.0438 -0.0881  0.0988
  281loPI   C3B 4495   1.513   0.656   9.874  0.0797  0.1499 -0.1036
  281loPI   C4B 4496   1.415   0.553   9.413 -0.1673 -0.2799  0.1209
  282loPI    C1 4497  16.739   4.271  11.727 -0.0639  0.2037 -0.2322
  282loPI    C2 4498  17.126   4.175  11.756 -0.0787  0.2485  0.1729
  282loPI    C3 4499  16.885   4.130  12.072 -0.3948  0.2704 -0.0607
  282loPI   PO4 4500  16.753   4.472  11.512 -0.2012  0.3041  0.0355
  282loPI   GL1 4501  16.673   4.399  11.079  0.3090 -0.0162  0.0108
  282loPI   GL2 4502  16.815   4.727  11.067 -0.1893  0.3182  0.1510
  282loPI   C1A 4503  16.661   4.386  10.655  0.1424  0.0880  0.4486
  282loPI   C2A 4504  16.564   4.246  10.200  0.0041 -0.1136 -0.2383
  282loPI   C3A 4505  16.630   4.296   9.864 -0.3521  0.2700  0.1289
  282loPI   C4A 4506  16.618   4.281   9.451  0.0278  0.1342  0.1271
  282loPI   C5A 4507  16.661   4.536   8.997 -0.1920 -0.0572  0.2012
  282loPI   C6A 4508  16.681   4.518   8.603  0.0613 -0.0317 -0.0793
  282loPI   C1B 4509  16.765   4.896  10.692  0.1122 -0.2977 -0.1172
  282loPI   C2B 4510  16.814   5.014  10.265  0.1251 -0.1282 -0.3118
  282loPI   C3B 4511  16.727   4.785   9.876  0.0663 -0.2543 -0.2664
  282loPI   C4B 4512  16.797   4.728   9.433 -0.2086  0.0862 -0.0759
  283loPI    C1 4513   4.814   9.888  11.695  0.0954  0.0859 -0.0183
  283loPI    C2 4514   4.876  10.236  11.883  0.2280 -0.0192  0.1349
  283loPI    C3 4515   5.050   9.902  12.018 -0.1788 -0.2106  0.2006
  283loPI   PO4 4516   4.930   9.879  11.455 -0.0265 -0.0282  0.1730
  283loPI   GL1 4517   4.851  10.008  11.026 -0.0101  0.1025  0.2993
  283loPI   GL2 4518   4.969  10.352  11.044 -0.3081 -0.1467 -0.0295
  283loPI   C1A 4519   4.824   9.767  10.622  0.1262  0.1141 -0.0815
  283loPI   C2A 4520   4.646   9.785  10.128  0.0259 -0.1533  0.0966
  283loPI   C3A 4521   4.538   9.809   9.674 -0.0577 -0.3285  0.0401
  283loPI   C4A 4522   4.437   9.891   9.248  0.3497  0.2298 -0.2539
  283loPI   C5A 4523   4.230   9.997   8.896  0.2517 -0.1156 -0.0021
  283loPI   C6A 4524   4.131  10.329   8.547 -0.1957 -0.0534 -0.3439
  283loPI   C1B 4525   4.905  10.355  10.579 -0.2031  0.0103  0.1488
  283loPI   C2B 4526   4.888  10.329  10.095  0.0877 -0.0565  0.4378
  283loPI   C3B 4527   4.716  10.270   9.619  0.2116  0.1131 -0.0847
  283loPI   C4B 4528   4.761  10.253   9.092  0.1339 -0.1054  0.1043
  284loPI    C1 4529  13.874  13.039  11.912 -0.2659 -0.2793 -0.0166
  284loPI    C2 4530  13.793  13.305  12.200 -0.1478 -0.3496  0.0823
  284loPI    C3 4531  14.122  13.078  12.223 -0.0133 -0.1930 -0.2249
  284loPI   PO4 4532  13.848  13.211  11.686 -0.0435 -0.0457 -0.1400
  284loPI   GL1 4533  13.754  13.068  11.229 -0.1646 -0.1176  0.1742
  284loPI   GL2 4534  14.012  13.127  11.082 -0.2857  0.3130 -0.0939
  284loPI   C1A 4535  13.569  12.902  10.899 -0.1473 -0.0758 -0.0242
  284loPI   C2A 4536  13.658  12.875  10.535  0.2172 -0.0307 -0.1688
  284loPI   C3A 4537  13.582  12.921  10.075  0.1584  0.0419  0.1534
  284loPI   C4A 4538  13.534  12.902   9.598 -0.1555  0.0206 -0.2425
  284loPI   C5A 4539  13.523  12.943   9.281  0.1039  0.0094 -0.1739
  284loPI   C6A 4540  13.318  12.730   8.815  0.4013  0.1815 -0.0389
  284loPI   C1B 4541  14.136  13.043  10.711 -0.0414 -0.1504  0.0422
  284loPI   C2B 4542  14.105  12.998  10.279 -0.2056 -0.2068  0.3625
  284loPI   C3B 4543  14.052  12.998   9.763 -0.0773  0.0372 -0.0744
  284loPI   C4B 4544  14.039  13.021   9.269  0.1706  0.1092 -0.1378
  285loPI    C1 4545  14.264  16.124  11.663 -0.1490  0.0244 -0.0462
  285loPI    C2 4546  14.018  16.372  11.858 -0.2794 -0.0830 -0.0727
  285loPI    C3 4547  14.130  16.028  12.028  0.0976  0.1036  0.0674
  285loPI   PO4 4548  14.447  16.333  11.528 -0.1152 -0.0117 -0.3812
  285loPI   GL1 4549  14.400  16.566  11.082  0.1281 -0.0593 -0.2325
  285loPI   GL2 4550  14.502  16.184  11.072 -0.1534  0.2466 -0.0579
  285loPI   C1A 4551  14.370  16.846  10.692  0.0256  0.0599  0.0769
  285loPI   C2A 4552  14.302  16.810  10.284 -0.1866  0.1039  0.0350
  285loPI   C3A 4553  14.268  16.744   9.886 -0.1055 -0.1669  0.1782
  285loPI   C4A 4554  14.230  16.783   9.462 -0.1854 -0.0574 -0.0344
  285loPI   C5A 4555  14.305  16.716   9.079 -0.1372  0.1389  0.0087
  285loPI   C6A 4556  14.258  16.406   8.767 -0.0715  0.1610  0.3824
  285loPI   C1B 4557  14.518  16.060  10.598 -0.0130 -0.1016 -0.0510
  285loPI   C2B 4558  14.474  15.803  10.175 -0.3799  0.1557  0.1479
  285loPI   C3B 4559  14.480  15.799   9.827  0.1219 -0.0257 -0.1815
  285loPI   C4B 4560  14.519  15.822   9.396 -0.2001 -0.2083 -0.0747
  286loPI    C1 4561  14.936   1.723  11.517 -0.0607 -0.1424 -0.0157
  286loPI    C2 4562  15.263   1.810  11.731 -0.0694 -0.2819  0.0561
  286loPI    C3 4563  14.913   1.984  11.820 -0.0027 -0.0839 -0.0616
  286loPI   PO4 4564  15.023   1.760  11.220  0.1768 -0.1473 -0.1211
  286loPI   GL1 4565  14.784   1.676  10.863  0.3022  0.1326  0.3940
  286loPI   GL2 4566  14.775   2.001  10.894  0.0100 -0.0123  0.1533
  286loPI   C1A 4567  14.889   1.496  10.501 -0.0251  0.0469  0.1650
  286loPI   C2A 4568  14.833   1.504  10.095 -0.2387 -0.1247  0.3325
  286loPI   C3A 4569  14.840   1.445   9.672 -0.2333 -0.0596 -0.1850
  286loPI   C4A 4570  14.820   1.352   9.254  0.1119  0.0823 -0.0938
  286loPI   C5A 4571  14.580   1.461   8.891 -0.0868  0.1634 -0.1617
  286loPI   C6A 4572  14.400   1.129   8.640 -0.0587 -0.1328 -0.0094
  286loPI   C1B 4573  15.034   2.028  10.524  0.2678  0.0559  0.0038
  286loPI   C2B 4574  15.040   1.986  10.100 -0.0209 -0.0629  0.3896
  286loPI   C3B 4575  14.976   2.056   9.702 -0.0959 -0.0174  0.2682
  286loPI   C4B 4576  15.052   1.948   9.209 -0.0395  0.2672  0.1017
  287loPI    C1 4577  11.386  15.463  11.432 -0.0579  0.0443  0.0721
  287loPI    C2 4578  11.451  15.155  11.678  0.0116 -0.1158 -0.1434
  287loPI    C3 4579  11.403  15.523  11.827 -0.0579 -0.2269  0.1152
  287loPI   PO4 4580  11.498  15.360  11.232  0.3392 -0.2663  0.1407
  287loPI   GL1 4581  11.524  15.129  10.940 -0.1736 -0.2389 -0.1833
  287loPI   GL2 4582  11.784  14.960  10.796 -0.1786 -0.1489 -0.0870
  287loPI   C1A 4583  11.446  15.166  10.509  0.1346  0.1637 -0.1001
  287loPI   C2A 4584  11.387  15.100  10.072 -0.0545 -0.0448  0.1051
  287loPI   C3A 4585  11.497  15.140   9.653  0.0357  0.0246  0.3557
  287loPI   C4A 4586  11.475  15.024   9.330 -0.0288 -0.0292 -0.2528
  287loPI   C5A 4587  11.594  15.212   8.970  0.1144  0.1885 -0.0765
  287loPI   C6A 4588  11.652  14.890   8.702 -0.2253  0.1461 -0.1254
  287loPI   C1B 4589  11.783  14.856  10.357 -0.0684 -0.1167  0.0930
  287loPI   C2B 4590  11.829  14.847   9.988  0.0496  0.1005  0.0955
  287loPI   C3B 4591  11.765  14.686   9.487 -0.1798  0.1330 -0.1824
  287loPI   C4B 4592  11.872  14.761   9.089 -0.0362  0.1697 -0.0226
  288loPI    C1 4593  12.734  10.951  11.770  0.0338 -0.0256  0.0896
  288loPI    C2 4594  12.621  11.197  12.065 -0.1528  0.0964 -0.0813
  288loPI    C3 4595  12.667  10.806  12.137  0.0289  0.1607  0.1635
  288loPI   PO4 4596  12.575  11.014  11.529  0.0682 -0.1116  0.3081
  288loPI   GL1 4597  12.441  10.717  11.232 -0.0175 -0.1541  0.2334
  288loPI   GL2 4598  12.550  10.884  10.976 -0.2207  0.1465  0.1559
  288loPI   C1A 4599  12.389  10.416  10.864  0.1990  0.1307  0.1765
  288loPI   C2A 4600  12.384  10.432  10.425  0.1051  0.0395 -0.1527
  288loPI   C3A 4601  12.410  10.340  10.014  0.0793  0.0800  0.0732
  288loPI   C4A 4602  12.287  10.307   9.566 -0.0150 -0.0031  0.0237
  288loPI   C5A 4603  12.434  10.294   9.114 -0.0374  0.1888 -0.1854
  288loPI   C6A 4604  12.560  10.446   8.819 -0.0673  0.1467 -0.0293
  288loPI   C1B 4605  12.573  10.866  10.640 -0.2843  0.0518 -0.1984
  288loPI   C2B 4606  12.534  10.884  10.193 -0.0588  0.4573  0.0451
  288loPI   C3B 4607  12.458  10.854   9.823  0.0099  0.1399  0.2380
  288loPI   C4B 4608  12.380  10.786   9.398  0.2961  0.0016  0.1946
  289loPI    C1 4609  12.247   8.022  11.889  0.0432  0.1694  0.1044
  289loPI    C2 4610  11.963   7.963  12.164 -0.1353  0.1884 -0.0737
  289loPI    C3 4611  12.179   8.300  12.169 -0.1448  0.1935  0.0361
  289loPI   PO4 4612  12.127   7.919  11.682 -0.1980  0.1056  0.2086
  289loPI   GL1 4613  11.936   7.782  11.260 -0.1433  0.4721  0.2292
  289loPI   GL2 4614  12.160   7.991  11.145 -0.0790  0.2215 -0.2196
  289loPI   C1A 4615  11.929   7.626  10.838 -0.3273  0.1263 -0.0121
  289loPI   C2A 4616  11.931   7.566  10.436  0.0182 -0.2129 -0.0182
  289loPI   C3A 4617  11.904   7.490  10.011 -0.2384 -0.0185  0.2929
  289loPI   C4A 4618  11.919   7.515   9.613 -0.0438 -0.1550  0.0702
  289loPI   C5A 4619  11.993   7.556   9.214  0.2809  0.0140 -0.1552
  289loPI   C6A 4620  12.231   7.430   8.875 -0.4998  0.0926 -0.1044
  289loPI   C1B 4621  12.052   8.017  10.642 -0.0141 -0.0356  0.3501
  289loPI   C2B 4622  12.050   8.083  10.217 -0.2032 -0.0455 -0.2838
  289loPI   C3B 4623  12.067   7.991   9.836  0.2751  0.2135 -0.0546
  289loPI   C4B 4624  12.157   7.978   9.446  0.0945  0.1383 -0.1182
  290loPI    C1 4625   8.432  13.951  11.559  0.0202  0.0619 -0.0152
  290loPI    C2 4626   8.082  13.770  11.627  0.1139 -0.0919  0.0624
  290loPI    C3 4627   8.381  13.736  11.892  0.2760 -0.1827 -0.1295
  290loPI   PO4 4628   8.432  13.921  11.299  0.1461  0.0656  0.2263
  290loPI   GL1 4629   8.357  14.044  10.861 -0.1092 -0.1950 -0.0463
  290loPI   GL2 4630   7.981  14.164  10.766 -0.4370  0.2955 -0.0668
  290loPI   C1A 4631   8.256  13.927  10.430  0.0267 -0.0955 -0.0719
  290loPI   C2A 4632   8.353  14.053   9.993 -0.0439  0.0809  0.0534
  290loPI   C3A 4633   8.162  13.934   9.613  0.0998 -0.1038  0.0506
  290loPI   C4A 4634   8.109  13.868   9.213  0.2384 -0.1958  0.1637
  290loPI   C5A 4635   8.027  13.547   8.882  0.1422  0.0552  0.2376
  290loPI   C6A 4636   7.700  13.270   8.661 -0.0343  0.0923 -0.0127
  290loPI   C1B 4637   7.987  14.346  10.404 -0.0117  0.1734  0.2008
  290loPI   C2B 4638   7.949  14.396   9.882  0.0608  0.0741  0.2760
  290loPI   C3B 4639   7.802  14.254   9.449  0.2141 -0.1324 -0.1282
  290loPI   C4B 4640   7.720  14.327   9.038  0.1038  0.0899  0.0706
  291loPI    C1 4641   9.181   7.424  11.966  0.2500  0.2317  0.0869
  291loPI    C2 4642   9.093   7.442  12.356  0.3307 -0.4002  0.1453
  291loPI    C3 4643   9.289   7.743  12.181  0.1131 -0.0172  0.5405
  291loPI   PO4 4644   8.967   7.331  11.850  0.2039  0.0658  0.1014
  291loPI   GL1 4645   9.007   7.279  11.428 -0.0672 -0.0524 -0.0022
  291loPI   GL2 4646   9.064   7.562  11.437 -0.1510 -0.1789  0.2562
  291loPI   C1A 4647   9.106   7.240  11.028 -0.0446 -0.2674  0.1859
  291loPI   C2A 4648   9.085   7.269  10.659  0.0177 -0.0776  0.1002
  291loPI   C3A 4649   9.002   7.236  10.227  0.0718 -0.2114 -0.0718
  291loPI   C4A 4650   9.032   7.250   9.677  0.0384 -0.1228  0.1294
  291loPI   C5A 4651   8.930   7.252   9.264  0.1001 -0.0026  0.1680
  291loPI   C6A 4652   8.855   7.566   8.988 -0.2066 -0.0516  0.1785
  291loPI   C1B 4653   9.231   7.779  11.190  0.2617 -0.1796  0.1425
  291loPI   C2B 4654   9.236   7.762  10.782  0.3565 -0.0332  0.2867
  291loPI   C3B 4655   9.138   7.758  10.340 -0.0358  0.1676  0.1213
  291loPI   C4B 4656   9.086   7.666   9.964  0.4166  0.1651 -0.0560
  292loPI    C1 4657   1.906  15.200  11.872  0.0443  0.1454  0.0879
  292loPI    C2 4658   1.651  15.204  12.181 -0.0546  0.1116  0.0076
  292loPI    C3 4659   2.039  15.125  12.241 -0.0911  0.0087  0.1101
  292loPI   PO4 4660   1.928  15.330  11.781  0.0390 -0.0494  0.1444
  292loPI   GL1 4661   1.897  15.369  11.395  0.0807 -0.2887  0.0999
  292loPI   GL2 4662   1.602  15.362  11.349 -0.0299  0.1305  0.0079
  292loPI   C1A 4663   1.859  15.722  11.029 -0.2100  0.3386  0.0009
  292loPI   C2A 4664   1.813  15.718  10.495 -0.0287  0.1373 -0.2279
  292loPI   C3A 4665   1.742  15.699  10.134 -0.2992 -0.0531  0.0306
  292loPI   C4A 4666   1.706  15.575   9.759 -0.1514  0.2098  0.2641
  292loPI   C5A 4667   1.656  15.688   9.299  0.0199  0.0902  0.1366
  292loPI   C6A 4668   1.833  15.673   8.923 -0.2290  0.0995 -0.0351
  292loPI   C1B 4669   1.750  15.242  10.918  0.0162 -0.3099 -0.0138
  292loPI   C2B 4670   1.630  15.234  10.462  0.2917 -0.3007 -0.0726
  292loPI   C3B 4671   1.557  15.221  10.108 -0.1037  0.2648  0.3300
  292loPI   C4B 4672   1.518  15.151   9.735 -0.1389 -0.0509 -0.1990
  293loPI    C1 4673   7.249   5.029  11.862 -0.0382 -0.1585 -0.0504
  293loPI    C2 4674   7.067   4.751  12.085 -0.1897 -0.0245 -0.0049
  293loPI    C3 4675   6.936   5.129  12.091  0.1135  0.0821  0.0561
  293loPI   PO4 4676   7.356   4.928  11.671  0.0548  0.0169  0.3130
  293loPI   GL1 4677   7.186   5.037  11.269 -0.0094 -0.1310 -0.3064
  293loPI   GL2 4678   7.547   5.145  11.264  0.0493 -0.2510 -0.0690
  293loPI   C1A 4679   7.124   5.043  10.865  0.0231 -0.1260 -0.2032
  293loPI   C2A 4680   7.055   5.147  10.445 -0.0456  0.3093 -0.0102
  293loPI   C3A 4681   7.110   5.234  10.044 -0.3123 -0.1567  0.1799
  293loPI   C4A 4682   7.207   5.395   9.656 -0.0483  0.0292  0.2329
  293loPI   C5A 4683   7.090   5.322   9.263 -0.0042 -0.3024 -0.0377
  293loPI   C6A 4684   7.157   5.095   8.818 -0.0057  0.2742 -0.2321
  293loPI   C1B 4685   7.599   5.159  10.920  0.0304 -0.1279  0.0262
  293loPI   C2B 4686   7.583   5.320  10.476  0.0063 -0.1083  0.1494
  293loPI   C3B 4687   7.641   5.514  10.054  0.1763 -0.0305  0.0164
  293loPI   C4B 4688   7.670   5.527   9.651 -0.0572  0.0512 -0.0805
  294loPI    C1 4689  11.469   5.024  11.990  0.2364  0.1500 -0.2257
  294loPI    C2 4690  11.558   5.267  12.295  0.3302 -0.0383 -0.1004
  294loPI    C3 4691  11.815   4.981  12.187  0.1907 -0.1268 -0.2015
  294loPI   PO4 4692  11.394   5.170  11.811 -0.3325 -0.2684 -0.0936
  294loPI   GL1 4693  11.574   5.218  11.445 -0.0778 -0.1760 -0.1879
  294loPI   GL2 4694  11.831   5.367  11.362  0.2103 -0.0951  0.3192
  294loPI   C1A 4695  11.254   5.134  11.114  0.2911  0.2672  0.2550
  294loPI   C2A 4696  11.134   5.107  10.641  0.0241  0.2639 -0.0132
  294loPI   C3A 4697  11.188   5.121  10.110  0.1805  0.0891 -0.3064
  294loPI   C4A 4698  11.227   5.046   9.713  0.1473 -0.0469 -0.1588
  294loPI   C5A 4699  11.391   5.165   9.320  0.0224 -0.1335  0.0583
  294loPI   C6A 4700  11.359   4.944   8.965  0.3026 -0.0916  0.0383
  294loPI   C1B 4701  11.714   5.282  10.938 -0.1581  0.2726  0.2208
  294loPI   C2B 4702  11.632   5.225  10.493 -0.1092 -0.1684  0.1042
  294loPI   C3B 4703  11.715   5.156  10.152  0.1129 -0.0798  0.0048
  294loPI   C4B 4704  11.759   5.100   9.707 -0.1921  0.0917  0.0760
  295loPI    C1 4705  14.562  12.883  11.842  0.1775  0.0054  0.1257
  295loPI    C2 4706  14.630  12.556  12.062 -0.0359  0.0115  0.2029
  295loPI    C3 4707  14.659  12.918  12.228  0.0913  0.0279  0.1455
  295loPI   PO4 4708  14.678  12.739  11.572 -0.1175 -0.1528  0.0439
  295loPI   GL1 4709  14.460  12.801  11.101  0.1495 -0.2335 -0.0377
  295loPI   GL2 4710  14.630  12.999  10.940 -0.1664  0.0986 -0.1877
  295loPI   C1A 4711  14.419  12.623  10.705 -0.2407 -0.2974  0.1743
  295loPI   C2A 4712  14.417  12.630  10.304 -0.0234  0.1261  0.3762
  295loPI   C3A 4713  14.426  12.680   9.805  0.0181 -0.0064  0.2200
  295loPI   C4A 4714  14.466  12.650   9.380  0.3966  0.4053  0.1794
  295loPI   C5A 4715  14.308  12.377   9.006 -0.1591 -0.1890  0.0542
  295loPI   C6A 4716  13.999  12.086   8.752  0.4577 -0.0954  0.4510
  295loPI   C1B 4717  14.569  13.128  10.479 -0.0634  0.0266 -0.0522
  295loPI   C2B 4718  14.525  13.085  10.059 -0.1050  0.3741  0.2113
  295loPI   C3B 4719  14.571  13.131   9.637 -0.0517  0.0737 -0.1692
  295loPI   C4B 4720  14.575  13.129   9.160  0.1977  0.1801 -0.0761
  296loPI    C1 4721   4.489  16.472  11.863 -0.1550 -0.1313 -0.0950
  296loPI    C2 4722   4.373  16.761  12.113 -0.0091 -0.0737 -0.0928
  296loPI    C3 4723   4.577  16.446  12.252  0.0142 -0.0744 -0.1286
  296loPI   PO4 4724   4.539  16.635  11.569 -0.1144  0.0249  0.0247
  296loPI   GL1 4725   4.498  16.557  11.147  0.4595 -0.1286  0.0992
  296loPI   GL2 4726   4.378  16.876  11.117 -0.1091 -0.1647 -0.1916
  296loPI   C1A 4727   4.711  16.302  10.870  0.1990  0.1324 -0.1449
  296loPI   C2A 4728   4.832  16.326  10.498 -0.2600 -0.0263 -0.3922
  296loPI   C3A 4729   4.725  16.305  10.010 -0.1050  0.0885 -0.4213
  296loPI   C4A 4730   4.743  16.297   9.611  0.2848 -0.1950  0.0447
  296loPI   C5A 4731   4.560  16.415   9.256  0.1860 -0.0756  0.0320
  296loPI   C6A 4732   4.302  16.475   8.826 -0.0473 -0.1089  0.0487
  296loPI   C1B 4733   4.485  16.724  10.639  0.0231  0.0202  0.1609
  296loPI   C2B 4734   4.437  16.694  10.184 -0.1413  0.0285 -0.1498
  296loPI   C3B 4735   4.478  16.712   9.679  0.1697  0.0189 -0.0911
  296loPI   C4B 4736   4.241  16.811   9.286  0.1003  0.0914 -0.4666
  297loPI    C1 4737   5.908  12.020  11.672 -0.0748  0.2034  0.1160
  297loPI    C2 4738   6.130  12.326  11.802 -0.0551  0.2266  0.0290
  297loPI    C3 4739   5.825  12.191  12.024 -0.0975  0.3441  0.0430
  297loPI   PO4 4740   5.898  12.062  11.436  0.1877  0.3960 -0.1391
  297loPI   GL1 4741   5.885  12.296  11.074 -0.0178 -0.0575  0.1120
  297loPI   GL2 4742   5.697  12.458  11.046  0.3096 -0.0584 -0.2658
  297loPI   C1A 4743   5.885  11.969  10.742 -0.2328 -0.3054  0.0444
  297loPI   C2A 4744   5.829  11.894  10.350  0.0323  0.0482  0.1668
  297loPI   C3A 4745   5.847  11.913   9.866  0.3815  0.2317 -0.0220
  297loPI   C4A 4746   5.718  11.867   9.438  0.4342  0.1792  0.0900
  297loPI   C5A 4747   5.562  11.766   8.996  0.2711 -0.0540 -0.0828
  297loPI   C6A 4748   5.125  11.774   9.107 -0.1881 -0.0933 -0.0251
  297loPI   C1B 4749   5.556  12.290  10.649  0.1645  0.0513 -0.1740
  297loPI   C2B 4750   5.450  12.254  10.240 -0.1990 -0.1458  0.0632
  297loPI   C3B 4751   5.442  12.279   9.839 -0.1095 -0.0795 -0.0993
  297loPI   C4B 4752   5.341  12.391   9.384  0.1281  0.0092  0.0662
  298loPI    C1 4753   6.284   6.006  11.780  0.0610 -0.0048  0.0662
  298loPI    C2 4754   6.672   6.082  11.715  0.0647 -0.3042 -0.3019
  298loPI    C3 4755   6.551   5.945  12.071  0.2266  0.2154 -0.0361
  298loPI   PO4 4756   6.199   5.904  11.517  0.2355 -0.2688  0.0148
  298loPI   GL1 4757   5.941   5.982  11.232  0.2643 -0.0752 -0.0755
  298loPI   GL2 4758   5.765   6.208  11.290  0.0489 -0.1969  0.1520
  298loPI   C1A 4759   5.960   5.936  10.856  0.3010 -0.1355  0.0604
  298loPI   C2A 4760   5.979   5.830  10.493 -0.1370  0.1067  0.0545
  298loPI   C3A 4761   5.913   5.862  10.077 -0.1464 -0.2235  0.1790
  298loPI   C4A 4762   5.900   5.906   9.603 -0.0781  0.2157 -0.1484
  298loPI   C5A 4763   6.002   5.927   9.233 -0.1307 -0.0346 -0.3067
  298loPI   C6A 4764   6.256   6.146   8.975 -0.0403 -0.1786  0.1797
  298loPI   C1B 4765   5.553   6.272  10.800  0.2048  0.1306 -0.2465
  298loPI   C2B 4766   5.599   6.229  10.293 -0.2077 -0.2576  0.0640
  298loPI   C3B 4767   5.559   6.214   9.844  0.0275 -0.1142 -0.2444
  298loPI   C4B 4768   5.566   6.244   9.416 -0.2222  0.0069 -0.0857
  299loPI    C1 4769   4.658   9.003  11.809 -0.2579  0.3739  0.1945
  299loPI    C2 4770   5.015   9.068  11.978 -0.1649  0.1681  0.0812
  299loPI    C3 4771   4.691   9.017  12.208 -0.1088  0.2776  0.1861
  299loPI   PO4 4772   4.741   8.956  11.531  0.1541 -0.2647 -0.1136
  299loPI   GL1 4773   4.944   8.939  11.073  0.1638  0.0222  0.0908
  299loPI   GL2 4774   5.272   9.053  11.013  0.2095  0.4630 -0.0461
  299loPI   C1A 4775   4.950   8.992  10.651 -0.3446  0.0123 -0.5210
  299loPI   C2A 4776   4.881   8.925  10.149  0.3965 -0.2597  0.0839
  299loPI   C3A 4777   4.856   8.933   9.740 -0.0541  0.1898 -0.0125
  299loPI   C4A 4778   4.863   9.005   9.288 -0.0056  0.1580 -0.0292
  299loPI   C5A 4779   4.772   9.215   8.894  0.1657  0.2580  0.2250
  299loPI   C6A 4780   4.447   9.539   8.810  0.3135 -0.1357 -0.1117
  299loPI   C1B 4781   5.443   9.087  10.632 -0.0308 -0.0705  0.0411
  299loPI   C2B 4782   5.391   8.962  10.169 -0.0236 -0.0140  0.3864
  299loPI   C3B 4783   5.349   8.996   9.719  0.2842  0.0644  0.1540
  299loPI   C4B 4784   5.374   9.246   9.332 -0.0181 -0.0826 -0.2188
  300loPI    C1 4785   7.500   6.397  11.976  0.0932  0.0598 -0.1566
  300loPI    C2 4786   7.688   6.729  12.096  0.1873 -0.0903  0.1198
  300loPI    C3 4787   7.747   6.384  12.291 -0.2302 -0.1813  0.0942
  300loPI   PO4 4788   7.541   6.377  11.699 -0.2255  0.1738  0.1396
  300loPI   GL1 4789   7.466   6.508  11.307 -0.0014 -0.0386  0.1217
  300loPI   GL2 4790   7.514   6.160  11.222  0.0536  0.1098  0.1410
  300loPI   C1A 4791   7.124   6.536  10.897 -0.0316 -0.0988 -0.1148
  300loPI   C2A 4792   6.995   6.648  10.559 -0.1883  0.1837 -0.0300
  300loPI   C3A 4793   6.975   6.601  10.141 -0.2628  0.1137  0.0127
  300loPI   C4A 4794   7.056   6.762   9.766 -0.2829  0.0672  0.2152
  300loPI   C5A 4795   7.031   6.653   9.365  0.2040  0.0267 -0.0955
  300loPI   C6A 4796   7.010   6.585   8.987  0.1841 -0.0345 -0.2800
  300loPI   C1B 4797   7.445   6.124  10.806  0.1546  0.0061 -0.1685
  300loPI   C2B 4798   7.403   6.213  10.376 -0.0010  0.1572 -0.0712
  300loPI   C3B 4799   7.385   6.333  10.018 -0.0087 -0.1492  0.2725
  300loPI   C4B 4800   7.385   6.353   9.547  0.0393 -0.2398 -0.4239
  301loPI    C1 4801   5.048   5.191  12.128 -0.0344  0.0152  0.0111
  301loPI    C2 4802   4.755   4.979  12.300 -0.1250  0.0247 -0.1296
  301loPI    C3 4803   4.733   5.379  12.289  0.0091  0.0389  0.0689
  301loPI   PO4 4804   5.055   4.957  11.808  0.0358  0.1400  0.1275
  301loPI   GL1 4805   5.009   4.645  11.414  0.0290 -0.0751 -0.2366
  301loPI   GL2 4806   5.190   4.861  11.264  0.0146 -0.3709 -0.1729
  301loPI   C1A 4807   4.743   4.611  11.110  0.1367  0.1284 -0.3563
  301loPI   C2A 4808   4.656   4.591  10.705 -0.2962  0.0517 -0.2979
  301loPI   C3A 4809   4.543   4.573  10.310  0.1009  0.2101 -0.0931
  301loPI   C4A 4810   4.626   4.633   9.896  0.1580  0.2689  0.0245
  301loPI   C5A 4811   4.710   4.721   9.397 -0.0538  0.2760 -0.1952
  301loPI   C6A 4812   4.813   5.079   9.044  0.1762  0.3614 -0.0034
  301loPI   C1B 4813   5.172   4.713  10.845 -0.4617  0.2742  0.1844
  301loPI   C2B 4814   5.119   4.743  10.484 -0.0653 -0.0162 -0.0629
  301loPI   C3B 4815   5.133   4.760  10.076  0.1622  0.0513 -0.2180
  301loPI   C4B 4816   5.207   4.772   9.601  0.2167 -0.0918 -0.5594
  302loPI    C1 4817  12.718   1.339  11.895  0.1451  0.0285  0.0111
  302loPI    C2 4818  12.815   1.144  12.230  0.1111 -0.0250 -0.0101
  302loPI    C3 4819  12.834   1.543  12.219  0.1629 -0.0260  0.0392
  302loPI   PO4 4820  12.925   1.270  11.703  0.4754  0.4651 -0.3069
  302loPI   GL1 4821  13.047   1.139  11.335  0.0430  0.1938  0.2288
  302loPI   GL2 4822  13.271   1.157  11.057  0.1464  0.0253  0.0460
  302loPI   C1A 4823  12.829   1.005  10.938 -0.2121 -0.2496  0.0536
  302loPI   C2A 4824  12.877   1.005  10.465  0.0856 -0.1871  0.0372
  302loPI   C3A 4825  12.922   0.988  10.059  0.2227 -0.1324  0.2725
  302loPI   C4A 4826  12.930   0.952   9.585  0.1152  0.2748 -0.0586
  302loPI   C5A 4827  12.940   0.938   9.167  0.4132 -0.3119 -0.3348
  302loPI   C6A 4828  12.686   0.711   8.986  0.1333  0.1490 -0.3939
  302loPI   C1B 4829  13.410   1.131  10.658 -0.2062 -0.0709  0.1281
  302loPI   C2B 4830  13.407   1.124  10.237  0.3325  0.1195 -0.4035
  302loPI   C3B 4831  13.377   1.049   9.902  0.0517 -0.1233 -0.3036
  302loPI   C4B 4832  13.373   1.008   9.526  0.1832 -0.0920  0.0633
  303loPI    C1 4833  11.732   1.805  11.872 -0.0353  0.2155  0.1704
  303loPI    C2 4834  11.882   2.168  11.948  0.1444  0.2002 -0.1026
  303loPI    C3 4835  12.076   1.841  12.073  0.0903  0.1926 -0.0386
  303loPI   PO4 4836  11.657   1.838  11.622  0.0875  0.0759  0.2606
  303loPI   GL1 4837  11.521   2.006  11.242  0.0444 -0.0002  0.1907
  303loPI   GL2 4838  11.801   1.994  11.084  0.0966 -0.1861 -0.1307
  303loPI   C1A 4839  11.346   1.930  10.852  0.1311 -0.0158  0.0933
  303loPI   C2A 4840  11.268   1.886  10.380 -0.2340 -0.0092 -0.1499
  303loPI   C3A 4841  11.231   1.917   9.947 -0.1143 -0.0558 -0.2080
  303loPI   C4A 4842  11.220   1.895   9.549 -0.1042 -0.0916 -0.2264
  303loPI   C5A 4843  11.219   1.788   9.188 -0.2361 -0.0003  0.2505
  303loPI   C6A 4844  11.178   1.864   8.782 -0.1368  0.0039  0.0282
  303loPI   C1B 4845  11.752   2.006  10.591 -0.0641 -0.0202  0.0381
  303loPI   C2B 4846  11.809   2.036  10.216 -0.0579  0.4251  0.0762
  303loPI   C3B 4847  11.804   1.944   9.830  0.0401 -0.2736 -0.1959
  303loPI   C4B 4848  11.703   2.032   9.432  0.1355 -0.0470 -0.0538
  304loPI    C1 4849  13.666   5.487  11.752 -0.0550  0.3633  0.1288
  304loPI    C2 4850  13.843   5.308  12.063 -0.2414 -0.1667 -0.0588
  304loPI    C3 4851  13.633   5.643  12.118  0.1296  0.0156  0.2997
  304loPI   PO4 4852  13.803   5.408  11.537 -0.0993  0.0423  0.2863
  304loPI   GL1 4853  13.802   5.307  11.104 -0.1535  0.1661 -0.3265
  304loPI   GL2 4854  13.708   4.924  11.158  0.0186 -0.2726 -0.1098
  304loPI   C1A 4855  13.664   5.238  10.618 -0.1508 -0.1346  0.0647
  304loPI   C2A 4856  13.553   5.262  10.111 -0.1022 -0.1338  0.1984
  304loPI   C3A 4857  13.683   5.236   9.636 -0.0658  0.1158 -0.0222
  304loPI   C4A 4858  13.573   5.218   9.211 -0.2081  0.4188  0.2629
  304loPI   C5A 4859  13.672   5.152   8.786  0.0317  0.1204 -0.0556
  304loPI   C6A 4860  13.720   4.895   8.401 -0.0493 -0.1238  0.1422
  304loPI   C1B 4861  13.539   4.758  10.774 -0.0376 -0.0210  0.4436
  304loPI   C2B 4862  13.516   4.761  10.353  0.0112 -0.3540  0.5935
  304loPI   C3B 4863  13.494   4.782   9.895 -0.2937  0.0813  0.1370
  304loPI   C4B 4864  13.480   4.746   9.456  0.1794 -0.3090  0.0811
  305loPI    C1 4865   6.085   3.573  11.639  0.0629  0.0111  0.0467
  305loPI    C2 4866   5.791   3.845  11.638 -0.0685 -0.1296  0.1184
  305loPI    C3 4867   6.090   3.875  11.902 -0.1067 -0.0797  0.1560
  305loPI   PO4 4868   6.184   3.649  11.347 -0.0222 -0.2202  0.2525
  305loPI   GL1 4869   6.130   3.613  10.969 -0.2188  0.0361  0.0865
  305loPI   GL2 4870   5.975   3.904  11.020 -0.0752 -0.0183  0.2048
  305loPI   C1A 4871   6.205   3.554  10.529  0.1498 -0.2777  0.0931
  305loPI   C2A 4872   6.156   3.524  10.058 -0.0473  0.0433  0.4032
  305loPI   C3A 4873   6.234   3.452   9.626 -0.2953 -0.0817  0.0677
  305loPI   C4A 4874   6.280   3.319   9.312  0.0588  0.2270 -0.3343
  305loPI   C5A 4875   6.303   3.631   9.093 -0.0341 -0.4544  0.0867
  305loPI   C6A 4876   6.555   4.031   8.806 -0.0013 -0.0070 -0.1984
  305loPI   C1B 4877   5.868   3.942  10.601 -0.1686  0.1258 -0.1355
  305loPI   C2B 4878   5.837   3.932  10.157 -0.1943  0.3477 -0.1239
  305loPI   C3B 4879   5.936   3.878   9.778  0.0621 -0.2147 -0.3557
  305loPI   C4B 4880   5.853   3.822   9.362  0.0003  0.1149  0.1023
  306loPI    C1 4881   6.439  15.956  11.839 -0.0174  0.0806  0.1142
  306loPI    C2 4882   6.685  15.883  12.146 -0.0662  0.0045  0.1354
  306loPI    C3 4883   6.291  15.822  12.185 -0.0859  0.1012  0.0932
  306loPI   PO4 4884   6.498  15.784  11.618  0.0083  0.2805 -0.0805
  306loPI   GL1 4885   6.324  15.851  11.271  0.1386 -0.0419 -0.1841
  306loPI   GL2 4886   6.104  16.106  11.124  0.0086  0.1818 -0.2654
  306loPI   C1A 4887   6.495  15.760  10.840  0.2649 -0.1412  0.0535
  306loPI   C2A 4888   6.449  15.777  10.401 -0.0757  0.1800  0.0720
  306loPI   C3A 4889   6.452  15.848   9.908 -0.0336 -0.0021 -0.1472
  306loPI   C4A 4890   6.293  15.899   9.449  0.1565  0.2491 -0.1691
  306loPI   C5A 4891   5.977  15.795   9.133 -0.0239  0.0776 -0.1085
  306loPI   C6A 4892   5.959  15.869   8.737  0.2866  0.2070  0.2057
  306loPI   C1B 4893   6.112  16.063  10.684  0.1834 -0.1037 -0.4947
  306loPI   C2B 4894   6.105  16.173  10.203 -0.0416  0.1787  0.0885
  306loPI   C3B 4895   6.078  16.179   9.752 -0.0616  0.0264 -0.1001
  306loPI   C4B 4896   5.939  16.216   9.339  0.1897  0.1511 -0.0476
  307loPI    C1 4897  14.537   0.678  11.556  0.2083  0.0219  0.0659
  307loPI    C2 4898  14.455   1.036  11.715  0.0665  0.0754 -0.1241
  307loPI    C3 4899  14.253   0.712  11.836  0.1544  0.0682  0.0056
  307loPI   PO4 4900  14.598   0.792  11.292  0.0440  0.0007 -0.2166
  307loPI   GL1 4901  14.446   0.726  10.969 -0.0163  0.2185  0.0404
  307loPI   GL2 4902  14.667   0.536  10.822 -0.1431  0.2496 -0.2312
  307loPI   C1A 4903  14.284   0.858  10.549 -0.1879  0.2349  0.1177
  307loPI   C2A 4904  14.339   0.826  10.127  0.1995 -0.4016  0.1637
  307loPI   C3A 4905  14.259   0.864   9.661 -0.1085  0.1001 -0.1626
  307loPI   C4A 4906  14.201   0.740   9.229 -0.4137  0.2590 -0.0444
  307loPI   C5A 4907  14.158   0.613   8.803  0.1475  0.0910 -0.1187
  307loPI   C6A 4908  14.208   0.530   8.429  0.2447 -0.0410 -0.1090
  307loPI   C1B 4909  14.622   0.498  10.354  0.3840 -0.3265 -0.0449
  307loPI   C2B 4910  14.600   0.431   9.965 -0.1197  0.1147 -0.2417
  307loPI   C3B 4911  14.582   0.411   9.503  0.0764 -0.1688 -0.0299
  307loPI   C4B 4912  14.634   0.366   9.061 -0.2113 -0.1094 -0.0821
  308loPI    C1 4913   5.044  11.750  12.103  0.1424  0.3003  0.2101
  308loPI    C2 4914   5.187  12.117  12.172 -0.0492  0.4012  0.0794
  308loPI    C3 4915   5.051  11.895  12.476  0.1625  0.3963  0.1726
  308loPI   PO4 4916   5.253  11.574  11.844 -0.2996  0.0764  0.0595
  308loPI   GL1 4917   5.287  11.693  11.452 -0.1757 -0.2151  0.1236
  308loPI   GL2 4918   5.470  11.845  11.239 -0.0599  0.0113  0.2059
  308loPI   C1A 4919   5.252  11.401  11.132  0.1397 -0.1015  0.0690
  308loPI   C2A 4920   5.197  11.325  10.736 -0.2981  0.2802  0.1800
  308loPI   C3A 4921   5.214  11.295  10.326  0.1112  0.1699 -0.1815
  308loPI   C4A 4922   5.121  11.345   9.845 -0.2123  0.1258  0.3145
  308loPI   C5A 4923   5.017  11.244   9.392  0.2469 -0.0464 -0.2279
  308loPI   C6A 4924   4.890  11.197   9.013  0.2594 -0.2808 -0.0233
  308loPI   C1B 4925   5.360  11.815  10.848  0.4358 -0.1602  0.3203
  308loPI   C2B 4926   5.338  11.840  10.464  0.1128  0.0451  0.1072
  308loPI   C3B 4927   5.313  11.866  10.025  0.3383 -0.3967 -0.1078
  308loPI   C4B 4928   5.253  11.825   9.609  0.0098 -0.0439  0.1787
  309loPI    C1 4929  14.649   2.744  11.547 -0.0566 -0.2066  0.1915
  309loPI    C2 4930  14.933   2.523  11.724  0.3083  0.1865  0.1149
  309loPI    C3 4931  14.688   2.749  11.945 -0.0027 -0.2092  0.1865
  309loPI   PO4 4932  14.578   2.655  11.365 -0.0426 -0.3444 -0.0158
  309loPI   GL1 4933  14.619   2.496  11.013  0.2181  0.3593 -0.0419
  309loPI   GL2 4934  14.837   2.516  10.816 -0.1063  0.1521  0.1426
  309loPI   C1A 4935  14.334   2.265  10.820  0.2968 -0.2270  0.0649
  309loPI   C2A 4936  14.167   2.150  10.366  0.0416 -0.0705  0.4720
  309loPI   C3A 4937  14.194   2.162   9.848 -0.0274  0.2012  0.1663
  309loPI   C4A 4938  14.071   2.305   9.491  0.0349  0.1063 -0.0895
  309loPI   C5A 4939  14.173   2.219   9.216 -0.1575 -0.2089  0.0262
  309loPI   C6A 4940  14.274   2.372   8.779  0.0975 -0.2182 -0.0130
  309loPI   C1B 4941  14.674   2.338  10.444 -0.0258 -0.0570  0.3136
  309loPI   C2B 4942  14.680   2.350   9.916  0.0343  0.1030  0.2256
  309loPI   C3B 4943  14.586   2.343   9.487  0.0963 -0.0613  0.1332
  309loPI   C4B 4944  14.668   2.258   9.087 -0.1825  0.0215 -0.0729
  310loPI    C1 4945  11.537  13.416  11.568 -0.1203  0.1222  0.1297
  310loPI    C2 4946  11.828  13.151  11.638 -0.1786  0.0350  0.0434
  310loPI    C3 4947  11.474  13.111  11.819 -0.1908  0.0477  0.0225
  310loPI   PO4 4948  11.582  13.495  11.340  0.1977  0.0282  0.0914
  310loPI   GL1 4949  11.377  13.567  10.947  0.2804  0.3237  0.1639
  310loPI   GL2 4950  11.719  13.483  10.880  0.1382 -0.2128 -0.0659
  310loPI   C1A 4951  11.321  13.372  10.545  0.0513 -0.0313 -0.1018
  310loPI   C2A 4952  11.289  13.265  10.134  0.2165  0.0577  0.0207
  310loPI   C3A 4953  11.314  13.314   9.673 -0.0065  0.2310  0.1658
  310loPI   C4A 4954  11.320  13.200   9.245  0.0380  0.2359  0.1160
  310loPI   C5A 4955  11.070  13.202   8.936  0.2103  0.0469  0.0645
  310loPI   C6A 4956  11.193  13.098   8.487  0.1859  0.2358  0.0590
  310loPI   C1B 4957  11.827  13.442  10.512 -0.1972  0.0614  0.1360
  310loPI   C2B 4958  11.773  13.488  10.094 -0.0266  0.0862  0.0875
  310loPI   C3B 4959  11.791  13.423   9.643 -0.1911 -0.1074  0.0178
  310loPI   C4B 4960  11.766  13.440   9.177  0.2527  0.2868 -0.0895
  311loPI    C1 4961   1.183  15.426  12.199  0.0793  0.0830  0.1738
  311loPI    C2 4962   0.957  15.172  12.410 -0.2050  0.0539 -0.1564
  311loPI    C3 4963   1.035  15.537  12.554 -0.1563 -0.0641  0.1239
  311loPI   PO4 4964   1.028  15.352  11.923 -0.2464 -0.4753 -0.3100
  311loPI   GL1 4965   1.089  15.324  11.488  0.1171 -0.4048  0.3246
  311loPI   GL2 4966   0.813  15.526  11.244  0.0667 -0.0098  0.3487
  311loPI   C1A 4967   1.196  15.257  11.087  0.0567  0.0890  0.0097
  311loPI   C2A 4968   1.175  15.084  10.608 -0.3763 -0.3762 -0.0084
  311loPI   C3A 4969   1.119  15.037  10.214  0.3958  0.0372 -0.0544
  311loPI   C4A 4970   1.047  15.019   9.774  0.1002  0.0653  0.0890
  311loPI   C5A 4971   1.037  14.824   9.332  0.0232  0.0705 -0.3210
  311loPI   C6A 4972   1.036  14.879   8.893  0.0823 -0.2483  0.0632
  311loPI   C1B 4973   0.890  15.484  10.775  0.0629  0.1162  0.0628
  311loPI   C2B 4974   0.744  15.385  10.368 -0.0586 -0.0293  0.0611
  311loPI   C3B 4975   0.717  15.372   9.934  0.1300 -0.2849  0.2324
  311loPI   C4B 4976   0.743  15.420   9.393  0.0050 -0.1798  0.0953
  312loPI    C1 4977   4.713   0.085  11.836  0.0960  0.3073  0.1025
  312loPI    C2 4978   4.325   0.176  11.878 -0.0820 -0.2807 -0.1661
  312loPI    C3 4979   4.526   0.006  12.180 -0.0171  0.0605 -0.0131
  312loPI   PO4 4980   4.774   0.201  11.584  0.0348  0.0076 -0.2243
  312loPI   GL1 4981   4.653  -0.067  11.138  0.3071  0.1372 -0.0049
  312loPI   GL2 4982   4.894  -0.197  11.285  0.1293 -0.2037  0.1335
  312loPI   C1A 4983   4.640  -0.105  10.671 -0.0715 -0.0327 -0.2132
  312loPI   C2A 4984   4.632  -0.097  10.178 -0.0882  0.1989  0.2535
  312loPI   C3A 4985   4.526  -0.149   9.714  0.1188 -0.0426  0.0139
  312loPI   C4A 4986   4.697  -0.250   9.280  0.2519  0.1440  0.0184
  312loPI   C5A 4987   5.110  -0.359   9.075 -0.0053 -0.0108  0.1442
  312loPI   C6A 4988   5.308  -0.561   8.787 -0.0323 -0.2378 -0.0471
  312loPI   C1B 4989   4.872  -0.497  10.946  0.0285  0.2980  0.1894
  312loPI   C2B 4990   4.931  -0.538  10.494  0.1288 -0.3837 -0.0061
  312loPI   C3B 4991   4.904  -0.506   9.998 -0.0475  0.2017  0.2931
  312loPI   C4B 4992   4.926  -0.604   9.525 -0.2688 -0.0267 -0.2107
  313loPI    C1 4993  12.259  15.620  11.675  0.1404  0.0361  0.2011
  313loPI    C2 4994  11.904  15.750  11.805  0.1091  0.0130  0.1392
  313loPI    C3 4995  12.208  15.710  12.061  0.0796  0.0755  0.1842
  313loPI   PO4 4996  12.340  15.709  11.449 -0.4397  0.0449  0.0279
  313loPI   GL1 4997  12.232  15.563  11.006  0.0077  0.1922  0.0940
  313loPI   GL2 4998  12.029  15.278  11.065  0.2704  0.2243 -0.2449
  313loPI   C1A 4999  12.538  15.403  10.764 -0.0473  0.0759 -0.0389
  313loPI   C2A 5000  12.510  15.475  10.267  0.1475 -0.1067  0.0573
  313loPI   C3A 5001  12.528  15.414   9.831  0.0375  0.0451  0.0520
  313loPI   C4A 5002  12.428  15.357   9.358 -0.0904  0.0480 -0.1229
  313loPI   C5A 5003  12.506  15.366   8.898  0.3854 -0.0656 -0.0786
  313loPI   C6A 5004  12.817  15.506   8.559  0.1036 -0.3525  0.0873
  313loPI   C1B 5005  12.114  15.227  10.619  0.1500  0.3420 -0.0154
  313loPI   C2B 5006  12.077  15.217  10.188  0.2410  0.0161  0.0533
  313loPI   C3B 5007  12.007  15.297   9.735 -0.3695 -0.1846 -0.0358
  313loPI   C4B 5008  11.984  15.195   9.320 -0.1861  0.3623 -0.2360
  314loPI    C1 5009  10.249   6.431  12.297 -0.1488 -0.0645 -0.2363
  314loPI    C2 5010   9.860   6.398  12.385 -0.1091  0.0074 -0.0298
  314loPI    C3 5011  10.088   6.070  12.360 -0.2029 -0.0423 -0.2478
  314loPI   PO4 5012  10.324   6.610  12.008 -0.1653 -0.2020  0.2539
  314loPI   GL1 5013  10.289   6.588  11.571 -0.1440  0.2725  0.3562
  314loPI   GL2 5014  10.201   6.245  11.484 -0.1807  0.1727  0.2862
  314loPI   C1A 5015  10.299   6.605  11.148  0.1214 -0.0081  0.4174
  314loPI   C2A 5016  10.316   6.670  10.650 -0.2096 -0.2507  0.2488
  314loPI   C3A 5017  10.254   6.682  10.190  0.2799 -0.2368  0.1710
  314loPI   C4A 5018  10.314   6.644   9.776 -0.2015  0.2865  0.0587
  314loPI   C5A 5019  10.396   6.566   9.346 -0.1226  0.1327  0.3267
  314loPI   C6A 5020  10.276   6.260   9.024  0.0072  0.2203 -0.2261
  314loPI   C1B 5021  10.135   6.172  10.957 -0.0292 -0.3099 -0.2860
  314loPI   C2B 5022  10.223   6.213  10.528  0.2002  0.1561 -0.1232
  314loPI   C3B 5023  10.275   6.226  10.074 -0.1459  0.0739 -0.1125
  314loPI   C4B 5024  10.274   6.150   9.608  0.0840  0.0536 -0.1712
  315loPI    C1 5025  16.639   5.495  11.680 -0.0719 -0.1715  0.0636
  315loPI    C2 5026  16.727   5.623  12.049 -0.0354  0.2350 -0.0812
  315loPI    C3 5027  16.590   5.251  11.994  0.0794  0.1272  0.3251
  315loPI   PO4 5028  16.860   5.531  11.537  0.1609 -0.0504  0.0510
  315loPI   GL1 5029  17.005   5.551  11.065  0.1313  0.2245 -0.5770
  315loPI   GL2 5030  17.161   5.878  11.147  0.0498  0.3146  0.0541
  315loPI   C1A 5031  17.005   5.423  10.634 -0.2446  0.3654  0.2575
  315loPI   C2A 5032  16.943   5.487  10.169  0.1114  0.0414  0.0386
  315loPI   C3A 5033  16.927   5.345   9.712 -0.0529  0.3223  0.0951
  315loPI   C4A 5034  16.828   5.213   9.376 -0.1844 -0.0443 -0.0561
  315loPI   C5A 5035  16.700   5.065   8.929 -0.3273 -0.2906  0.1603
  315loPI   C6A 5036  16.859   5.129   8.440  0.0523 -0.0507 -0.0165
  315loPI   C1B 5037  17.119   5.939  10.780  0.2528 -0.0299  0.2322
  315loPI   C2B 5038  17.087   5.942  10.369  0.0368 -0.0544  0.0715
  315loPI   C3B 5039  17.030   5.946   9.966 -0.1855 -0.1977 -0.0370
  315loPI   C4B 5040  17.054   5.766   9.541 -0.3605  0.1851 -0.0792
  316loPI    C1 5041   9.126   8.209  12.108  0.0681 -0.1586 -0.0739
  316loPI    C2 5042   9.292   8.562  12.199 -0.2155 -0.0761  0.1385
  316loPI    C3 5043   9.396   8.234  12.403 -0.0104 -0.1030 -0.0060
  316loPI   PO4 5044   9.121   8.218  11.841  0.2289  0.0431  0.0076
  316loPI   GL1 5045   9.088   8.182  11.413 -0.5345 -0.0528  0.2013
  316loPI   GL2 5046   9.371   8.253  11.385 -0.1124  0.2402  0.0867
  316loPI   C1A 5047   8.880   8.101  11.013  0.0329  0.1626  0.1243
  316loPI   C2A 5048   8.875   8.103  10.539 -0.1232  0.0628  0.0722
  316loPI   C3A 5049   8.685   8.116  10.138  0.2803 -0.0767 -0.0113
  316loPI   C4A 5050   8.796   8.071   9.692 -0.0990  0.1017 -0.0434
  316loPI   C5A 5051   8.883   8.105   9.264 -0.1165  0.3733 -0.1732
  316loPI   C6A 5052   9.195   8.025   9.003 -0.0783 -0.1797 -0.0050
  316loPI   C1B 5053   9.358   8.179  10.899 -0.0997 -0.0867 -0.0689
  316loPI   C2B 5054   9.368   8.198  10.414  0.0259  0.2273  0.3100
  316loPI   C3B 5055   9.246   8.193   9.897  0.4038  0.2817 -0.1723
  316loPI   C4B 5056   9.350   8.207   9.536  0.2758  0.0193  0.3757
  317loPI    C1 5057  13.964   1.236  11.437  0.0869  0.0662  0.0567
  317loPI    C2 5058  13.638   1.024  11.341 -0.0563  0.2055  0.2269
  317loPI    C3 5059  13.823   0.960  11.690  0.3116 -0.1213 -0.0196
  317loPI   PO4 5060  14.162   1.157  11.260 -0.1128 -0.0151 -0.0480
  317loPI   GL1 5061  14.290   1.179  10.890 -0.0090  0.2724  0.2020
  317loPI   GL2 5062  14.634   1.112  10.787  0.2658  0.0678 -0.0506
  317loPI   C1A 5063  14.430   1.349  10.432  0.2419 -0.0623 -0.0783
  317loPI   C2A 5064  14.367   1.360  10.003  0.1316 -0.2605 -0.2435
  317loPI   C3A 5065  14.367   1.323   9.551  0.4310  0.0576 -0.0752
  317loPI   C4A 5066  14.262   1.205   9.140 -0.1081  0.1819  0.3841
  317loPI   C5A 5067  13.932   1.087   8.847  0.1092  0.2233 -0.3616
  317loPI   C6A 5068  13.934   1.291   8.502  0.2483 -0.1542 -0.2071
  317loPI   C1B 5069  14.811   0.961  10.281 -0.1217 -0.0562  0.0305
  317loPI   C2B 5070  14.763   1.021   9.881  0.2613 -0.0610  0.0297
  317loPI   C3B 5071  14.705   0.926   9.480 -0.0340  0.2919  0.1245
  317loPI   C4B 5072  14.784   0.879   9.029 -0.1512  0.0348 -0.1026
  318loPI    C1 5073   2.623  14.690  11.846  0.0912  0.1639  0.0155
  318loPI    C2 5074   2.250  14.832  11.879 -0.0516 -0.1793 -0.0676
  318loPI    C3 5075   2.479  14.792  12.205 -0.1058 -0.0209 -0.0090
  318loPI   PO4 5076   2.634  14.757  11.557  0.1421  0.0544  0.1054
  318loPI   GL1 5077   2.455  14.851  11.142 -0.1543 -0.3272 -0.0625
  318loPI   GL2 5078   2.386  14.676  11.120 -0.0958  0.0947 -0.0717
  318loPI   C1A 5079   2.436  14.902  10.668  0.1829  0.0078 -0.0338
  318loPI   C2A 5080   2.466  14.868  10.210  0.1687  0.0119  0.1208
  318loPI   C3A 5081   2.433  14.842   9.760 -0.0625  0.0919 -0.0658
  318loPI   C4A 5082   2.365  14.853   9.267 -0.0440 -0.1199 -0.3571
  318loPI   C5A 5083   2.108  14.565   8.994 -0.2427  0.0515 -0.0297
  318loPI   C6A 5084   1.820  14.395   8.824  0.2885 -0.2085 -0.0305
  318loPI   C1B 5085   2.397  14.421  10.693  0.0128 -0.0166 -0.1579
  318loPI   C2B 5086   2.349  14.347  10.251 -0.1627  0.2533 -0.4162
  318loPI   C3B 5087   2.240  14.329   9.856 -0.0652  0.0062 -0.0397
  318loPI   C4B 5088   2.193  14.381   9.454  0.3264 -0.0460 -0.0226
  319loPI    C1 5089   5.477   0.661  11.821 -0.2216 -0.1237 -0.2826
  319loPI    C2 5090   5.858   0.610  11.930 -0.2386 -0.0724 -0.1979
  319loPI    C3 5091   5.566   0.437  12.140 -0.2744  0.0628 -0.1355
  319loPI   PO4 5092   5.511   0.652  11.569 -0.0530  0.3274  0.1872
  319loPI   GL1 5093   5.493   0.850  11.194  0.1196 -0.0476  0.0347
  319loPI   GL2 5094   5.761   0.719  10.998 -0.4744  0.4695 -0.3290
  319loPI   C1A 5095   5.445   1.078  10.795 -0.2136 -0.1033 -0.1358
  319loPI   C2A 5096   5.372   1.130  10.327  0.2851 -0.2426 -0.1426
  319loPI   C3A 5097   5.400   1.045  10.080  0.1829  0.1419  0.0066
  319loPI   C4A 5098   5.340   0.987   9.650 -0.2291  0.1882 -0.1177
  319loPI   C5A 5099   5.386   1.095   9.240 -0.3211  0.1500 -0.0621
  319loPI   C6A 5100   5.748   1.008   8.925 -0.2654 -0.1245 -0.0012
  319loPI   C1B 5101   5.711   0.686  10.579  0.0845  0.0635 -0.1636
  319loPI   C2B 5102   5.690   0.689  10.209 -0.1832  0.0296 -0.2337
  319loPI   C3B 5103   5.662   0.559   9.790  0.1019 -0.2183  0.1302
  319loPI   C4B 5104   5.570   0.620   9.323 -0.0082  0.0105  0.1080
  320loPI    C1 5105   1.026   4.802  11.345 -0.0222  0.4537  0.0740
  320loPI    C2 5106   0.945   4.706  11.724 -0.0313 -0.1489 -0.0698
  320loPI    C3 5107   0.871   5.076  11.591 -0.1245  0.0409  0.4827
  320loPI   PO4 5108   1.176   4.554  11.281  0.0375 -0.0154  0.1619
  320loPI   GL1 5109   1.411   4.403  10.927 -0.2493  0.2438 -0.3219
  320loPI   GL2 5110   1.796   4.312  10.982  0.1535  0.0209 -0.0484
  320loPI   C1A 5111   1.175   4.363  10.571  0.2277  0.1254 -0.3200
  320loPI   C2A 5112   1.137   4.344  10.132 -0.0882  0.0425 -0.2844
  320loPI   C3A 5113   1.161   4.207   9.713 -0.0077 -0.0301 -0.0194
  320loPI   C4A 5114   1.085   4.287   9.338  0.1633  0.1632  0.0086
  320loPI   C5A 5115   0.970   4.218   8.960 -0.2705 -0.2395  0.0150
  320loPI   C6A 5116   1.120   4.390   8.594  0.1106 -0.1254 -0.0307
  320loPI   C1B 5117   1.712   4.436  10.532 -0.0171  0.2516  0.0398
  320loPI   C2B 5118   1.662   4.393  10.106 -0.0798  0.0327 -0.2642
  320loPI   C3B 5119   1.651   4.454   9.753 -0.1686 -0.0123  0.0227
  320loPI   C4B 5120   1.612   4.498   9.344 -0.1562 -0.1561  0.4053
  321loPI    C1 5121   1.873  16.300  11.786  0.0061 -0.1370  0.0372
  321loPI    C2 5122   1.747  16.472  12.124 -0.0485 -0.1381  0.0176
  321loPI    C3 5123   1.670  16.086  12.056  0.0629 -0.1672  0.0560
  321loPI   PO4 5124   1.821  16.358  11.499  0.1783  0.3345  0.0183
  321loPI   GL1 5125   1.674  16.185  11.202 -0.0349  0.2835  0.2236
  321loPI   GL2 5126   1.955  16.196  10.952  0.2706  0.0014  0.4507
  321loPI   C1A 5127   1.464  16.060  10.816 -0.0696 -0.0835  0.0042
  321loPI   C2A 5128   1.424  16.119  10.368  0.0084 -0.1816 -0.1795
  321loPI   C3A 5129   1.407  16.054   9.978  0.0982 -0.0114 -0.0363
  321loPI   C4A 5130   1.411  16.003   9.542 -0.0549  0.0958 -0.1889
  321loPI   C5A 5131   1.327  15.960   9.115  0.0613  0.0292  0.2172
  321loPI   C6A 5132   1.582  16.080   8.689 -0.2359  0.1000  0.0662
  321loPI   C1B 5133   1.875  16.215  10.467 -0.4303 -0.0564  0.1773
  321loPI   C2B 5134   1.956  16.189  10.068 -0.0220  0.0597  0.0120
  321loPI   C3B 5135   1.901  16.153   9.610 -0.0318  0.2939  0.0563
  321loPI   C4B 5136   1.787  16.198   9.178 -0.0601  0.0841  0.0494
  322loPI    C1 5137   6.799  10.024  11.727  0.0247  0.2098 -0.1301
  322loPI    C2 5138   6.658  10.369  11.871 -0.2360  0.0774 -0.0617
  322loPI    C3 5139   6.549  10.023  12.039 -0.2203 -0.0559 -0.3218
  322loPI   PO4 5140   6.762   9.997  11.467  0.1800 -0.0111  0.0265
  322loPI   GL1 5141   6.627  10.270  11.130  0.1999  0.0284  0.3882
  322loPI   GL2 5142   6.578  10.629  11.022 -0.0298 -0.0795  0.0638
  322loPI   C1A 5143   6.729  10.272  10.654  0.1157  0.2157  0.0970
  322loPI   C2A 5144   6.789  10.310  10.170  0.0706  0.0338 -0.2908
  322loPI   C3A 5145   6.557  10.269   9.907  0.0332 -0.0091 -0.2660
  322loPI   C4A 5146   6.734  10.250   9.550 -0.0887 -0.0173 -0.1757
  322loPI   C5A 5147   6.803  10.262   9.176  0.0327 -0.3329 -0.5187
  322loPI   C6A 5148   6.675  10.017   8.846  0.1023  0.0981 -0.2677
  322loPI   C1B 5149   6.464  10.700  10.622 -0.4289  0.2445 -0.2479
  322loPI   C2B 5150   6.391  10.673  10.167 -0.0772  0.0568 -0.4807
  322loPI   C3B 5151   6.265  10.639   9.734  0.1992  0.0676 -0.1507
  322loPI   C4B 5152   6.332  10.722   9.308 -0.2481 -0.0462  0.1472
  323loPI    C1 5153   6.585   1.646  11.840 -0.1353 -0.0566 -0.0686
  323loPI    C2 5154   6.241   1.833  11.920 -0.0669  0.0274  0.0308
  323loPI    C3 5155   6.321   1.481  12.091 -0.1322 -0.0245 -0.0444
  323loPI   PO4 5156   6.599   1.742  11.552 -0.2477  0.0964  0.1549
  323loPI   GL1 5157   6.307   1.803  11.217 -0.2058 -0.1470  0.1758
  323loPI   GL2 5158   6.536   2.027  11.097 -0.0076  0.1645  0.0849
  323loPI   C1A 5159   6.532   1.604  10.823  0.0290  0.1241 -0.3205
  323loPI   C2A 5160   6.639   1.686  10.442 -0.1921  0.1724 -0.1382
  323loPI   C3A 5161   6.555   1.733  10.097 -0.0497 -0.0950  0.0936
  323loPI   C4A 5162   6.437   1.712   9.689 -0.0867 -0.0183 -0.1824
  323loPI   C5A 5163   6.546   1.750   9.236  0.0139 -0.1025  0.0662
  323loPI   C6A 5164   6.757   1.838   8.811 -0.1485  0.0110 -0.1176
  323loPI   C1B 5165   6.713   2.161  10.700 -0.3436  0.1145 -0.0152
  323loPI   C2B 5166   6.628   2.186  10.246 -0.1026 -0.1532 -0.0042
  323loPI   C3B 5167   6.617   2.210   9.824 -0.0932  0.0541  0.4906
  323loPI   C4B 5168   6.636   2.427   9.476  0.1350 -0.0776 -0.0168
  324loPI    C1 5169  11.985   0.849  11.570 -0.0933 -0.1238 -0.0694
  324loPI    C2 5170  11.592   0.781  11.594 -0.0781 -0.1731  0.0433
  324loPI    C3 5171  11.802   0.860  11.925  0.0387 -0.3240  0.0068
  324loPI   PO4 5172  11.986   1.055  11.341 -0.0269  0.0439 -0.0920
  324loPI   GL1 5173  12.085   1.127  10.995 -0.0751 -0.0140  0.1485
  324loPI   GL2 5174  12.364   1.306  11.094 -0.0598 -0.0223  0.5994
  324loPI   C1A 5175  11.984   1.208  10.575  0.1073 -0.0213 -0.1341
  324loPI   C2A 5176  12.013   1.189  10.125 -0.5107  0.1870  0.6017
  324loPI   C3A 5177  12.087   1.154   9.751  0.2146 -0.0245 -0.4180
  324loPI   C4A 5178  11.964   1.175   9.252  0.3883 -0.2350  0.1083
  324loPI   C5A 5179  12.203   0.940   8.958  0.1422 -0.0540  0.0044
  324loPI   C6A 5180  12.249   0.969   8.530  0.0166  0.2902 -0.2222
  324loPI   C1B 5181  12.487   1.397  10.771  0.0009  0.1386  0.0688
  324loPI   C2B 5182  12.464   1.382  10.340 -0.0087 -0.0421  0.1726
  324loPI   C3B 5183  12.557   1.283   9.905  0.1174 -0.2294 -0.1205
  324loPI   C4B 5184  12.496   1.321   9.479 -0.0339 -0.0486  0.0231
  325loPI    C1 5185   4.030   4.052  11.805  0.1880  0.0709  0.0131
  325loPI    C2 5186   4.251   3.847  12.067  0.1318  0.0502  0.0448
  325loPI    C3 5187   4.378   4.202  11.932  0.2105  0.0129  0.0203
  325loPI   PO4 5188   4.010   3.970  11.588  0.1361 -0.3391  0.1356
  325loPI   GL1 5189   3.978   4.017  11.143 -0.2629  0.1165 -0.1074
  325loPI   GL2 5190   4.251   3.800  11.090  0.3439  0.0629 -0.1391
  325loPI   C1A 5191   4.002   3.979  10.703  0.1145  0.0033 -0.0413
  325loPI   C2A 5192   4.053   4.083  10.231 -0.0030 -0.1148  0.3927
  325loPI   C3A 5193   3.994   3.954   9.884 -0.3996  0.1692 -0.1971
  325loPI   C4A 5194   3.980   3.866   9.389 -0.1305 -0.0528 -0.0531
  325loPI   C5A 5195   4.136   3.852   9.039  0.0617 -0.1704  0.4430
  325loPI   C6A 5196   4.452   3.526   8.909  0.1118  0.1916 -0.2936
  325loPI   C1B 5197   4.335   3.640  10.657 -0.3132  0.1126  0.0130
  325loPI   C2B 5198   4.336   3.668  10.190 -0.4225  0.0913 -0.2203
  325loPI   C3B 5199   4.342   3.673   9.736 -0.0436  0.1051  0.2206
  325loPI   C4B 5200   4.564   3.724   9.406 -0.0125 -0.1334  0.2289
  326loPI    C1 5201   9.698  12.294  11.620  0.1548  0.2197  0.0170
  326loPI    C2 5202   9.976  12.107  11.838 -0.0613 -0.0867  0.0364
  326loPI    C3 5203   9.588  12.048  11.916 -0.1367  0.0838 -0.1998
  326loPI   PO4 5204   9.723  12.267  11.371 -0.3576  0.0730  0.1947
  326loPI   GL1 5205   9.920  12.149  10.949 -0.1118 -0.2150  0.2733
  326loPI   GL2 5206   9.559  12.111  10.862  0.1608  0.2936  0.0671
  326loPI   C1A 5207   9.993  12.113  10.516 -0.0554 -0.2616 -0.0932
  326loPI   C2A 5208  10.009  12.102  10.030 -0.1365  0.1117 -0.1713
  326loPI   C3A 5209  10.052  12.024   9.592 -0.2010 -0.0354  0.0166
  326loPI   C4A 5210  10.068  11.947   9.120 -0.1487  0.2875 -0.1849
  326loPI   C5A 5211   9.752  11.836   8.867  0.0641  0.3849  0.4778
  326loPI   C6A 5212   9.410  11.638   8.802  0.1697 -0.3931  0.2518
  326loPI   C1B 5213   9.491  12.009  10.455 -0.0957 -0.0686 -0.2163
  326loPI   C2B 5214   9.592  11.856  10.154  0.0153 -0.0761 -0.0766
  326loPI   C3B 5215   9.495  11.893   9.770 -0.2256  0.3657  0.0835
  326loPI   C4B 5216   9.413  11.878   9.332 -0.2115  0.0575  0.2871
  327loPI    C1 5217  15.609   9.929  11.827  0.1280  0.0426  0.1144
  327loPI    C2 5218  15.523   9.669  12.118 -0.2635 -0.0791 -0.1035
  327loPI    C3 5219  15.563  10.058  12.203  0.1800 -0.1836  0.1997
  327loPI   PO4 5220  15.712   9.798  11.508  0.0678  0.2065 -0.0370
  327loPI   GL1 5221  15.578   9.710  11.160  0.2700 -0.2404  0.0473
  327loPI   GL2 5222  15.656  10.080  11.037  0.0838 -0.0657  0.0506
  327loPI   C1A 5223  15.442   9.682  10.799 -0.1363  0.0133 -0.1322
  327loPI   C2A 5224  15.537   9.679  10.393 -0.3088  0.3168 -0.0488
  327loPI   C3A 5225  15.426   9.713   9.917 -0.3665 -0.0738 -0.0615
  327loPI   C4A 5226  15.374   9.677   9.456 -0.1062 -0.1758 -0.2342
  327loPI   C5A 5227  15.299   9.489   9.016 -0.3711 -0.0153  0.1489
  327loPI   C6A 5228  15.357   9.403   8.619  0.0520 -0.1849 -0.1657
  327loPI   C1B 5229  15.675  10.144  10.662 -0.0876  0.0568  0.2996
  327loPI   C2B 5230  15.604  10.135  10.242 -0.1088  0.0406 -0.0324
  327loPI   C3B 5231  15.586  10.149   9.814  0.0363 -0.1148  0.1912
  327loPI   C4B 5232  15.549  10.233   9.376  0.3913 -0.2586  0.0170
  328loPI    C1 5233  11.249   6.930  11.623 -0.2170  0.0150 -0.0784
  328loPI    C2 5234  11.136   6.881  12.003  0.0865  0.0692  0.0212
  328loPI    C3 5235  11.393   7.172  11.907  0.2489 -0.1359 -0.1765
  328loPI   PO4 5236  11.281   6.702  11.510 -0.0633  0.2589 -0.1561
  328loPI   GL1 5237  11.256   6.436  11.292 -0.2208 -0.0549  0.0201
  328loPI   GL2 5238  11.477   6.172  11.247  0.2904 -0.0215 -0.2142
  328loPI   C1A 5239  11.217   6.455  10.754 -0.3445 -0.2218  0.2025
  328loPI   C2A 5240  11.239   6.398  10.263  0.1069 -0.0121  0.0272
  328loPI   C3A 5241  11.225   6.423   9.861 -0.2916  0.0052 -0.0383
  328loPI   C4A 5242  11.247   6.360   9.397  0.2485  0.2564 -0.2117
  328loPI   C5A 5243  11.256   6.078   8.965  0.1171 -0.0449  0.1445
  328loPI   C6A 5244  11.127   5.729   8.775  0.3225 -0.2079 -0.0952
  328loPI   C1B 5245  11.506   6.078  10.836 -0.2123 -0.3518  0.1107
  328loPI   C2B 5246  11.580   6.055  10.401 -0.0232  0.0138 -0.0629
  328loPI   C3B 5247  11.540   6.043   9.891  0.1438  0.1526 -0.2089
  328loPI   C4B 5248  11.561   6.037   9.518 -0.0769 -0.0551  0.0339
  329loPI    C1 5249  14.339   6.463  11.700  0.0803  0.1492  0.1129
  329loPI    C2 5250  14.627   6.550  11.964  0.1478  0.0540  0.0708
  329loPI    C3 5251  14.296   6.360  12.084  0.1644  0.0391  0.0930
  329loPI   PO4 5252  14.277   6.681  11.485  0.3422 -0.0767  0.0423
  329loPI   GL1 5253  14.045   6.771  11.227 -0.3473 -0.2181 -0.0947
  329loPI   GL2 5254  13.925   6.553  11.092  0.2775  0.1895  0.1646
  329loPI   C1A 5255  14.129   7.029  10.927 -0.0972  0.4281 -0.0196
  329loPI   C2A 5256  14.205   7.110  10.502 -0.2946  0.0004  0.0914
  329loPI   C3A 5257  14.142   7.036  10.051 -0.0247 -0.0307 -0.0798
  329loPI   C4A 5258  14.208   7.113   9.632  0.0926 -0.2561 -0.0123
  329loPI   C5A 5259  14.171   7.138   9.202 -0.0044  0.0099  0.0256
  329loPI   C6A 5260  14.043   6.941   8.834  0.0883 -0.2115  0.1529
  329loPI   C1B 5261  14.116   6.623  10.617 -0.0095  0.0480  0.1256
  329loPI   C2B 5262  14.103   6.565  10.180  0.1384 -0.0427  0.1206
  329loPI   C3B 5263  14.114   6.604   9.715  0.0518  0.2017 -0.0405
  329loPI   C4B 5264  14.134   6.636   9.245  0.1539  0.1024  0.0238
  330loPI    C1 5265   9.196   1.951  11.907 -0.0918 -0.1022  0.0894
  330loPI    C2 5266   9.308   2.239  12.161 -0.0274 -0.0371 -0.0117
  330loPI    C3 5267   9.582   1.999  11.996 -0.0820 -0.1645  0.0808
  330loPI   PO4 5268   9.000   2.047  11.770 -0.0034  0.0770 -0.0529
  330loPI   GL1 5269   8.796   1.903  11.415 -0.0462 -0.3200 -0.2766
  330loPI   GL2 5270   9.012   2.130  11.200  0.1211 -0.1903 -0.2324
  330loPI   C1A 5271   8.573   2.050  10.994 -0.0987  0.1714  0.0509
  330loPI   C2A 5272   8.487   2.124  10.602  0.0378  0.0607 -0.2990
  330loPI   C3A 5273   8.540   2.088  10.124  0.1537 -0.2041  0.4229
  330loPI   C4A 5274   8.571   2.118   9.700  0.2187 -0.0694 -0.0003
  330loPI   C5A 5275   8.585   1.906   9.206 -0.0425 -0.1480 -0.1742
  330loPI   C6A 5276   8.532   1.625   8.907  0.2788 -0.0514  0.2270
  330loPI   C1B 5277   9.039   2.201  10.752  0.1475  0.0912  0.1993
  330loPI   C2B 5278   8.949   2.232  10.327 -0.1295  0.0466 -0.1796
  330loPI   C3B 5279   8.998   2.220   9.934 -0.4430  0.0852  0.3137
  330loPI   C4B 5280   9.042   2.337   9.457  0.0880 -0.2120 -0.2283
  331loPI    C1 5281  16.928  15.887  11.718  0.1687 -0.1836 -0.0483
  331loPI    C2 5282  17.305  15.836  11.842  0.0989  0.1075  0.3012
  331loPI    C3 5283  17.018  15.919  12.107 -0.1645  0.1578  0.0060
  331loPI   PO4 5284  16.920  15.769  11.538 -0.2079  0.2580  0.0703
  331loPI   GL1 5285  16.866  15.497  11.217  0.0113 -0.1828 -0.1321
  331loPI   GL2 5286  17.072  15.328  11.158 -0.2684  0.2371 -0.0960
  331loPI   C1A 5287  16.710  15.636  10.855 -0.1920 -0.0852 -0.1345
  331loPI   C2A 5288  16.740  15.603  10.385  0.0396 -0.0489  0.1925
  331loPI   C3A 5289  16.722  15.527  10.032  0.2561  0.0874 -0.0562
  331loPI   C4A 5290  16.665  15.597   9.626  0.1456  0.0243  0.0406
  331loPI   C5A 5291  16.845  15.552   9.200 -0.0480 -0.0500 -0.0852
  331loPI   C6A 5292  17.122  15.330   9.024  0.0986 -0.2423 -0.3114
  331loPI   C1B 5293  17.143  15.149  10.759  0.1709  0.0251 -0.1939
  331loPI   C2B 5294  17.140  15.159  10.307  0.0078  0.1070  0.0753
  331loPI   C3B 5295  17.077  15.166   9.922 -0.1661 -0.0467  0.1199
  331loPI   C4B 5296  16.904  15.174   9.484 -0.1186 -0.0787  0.0537
  332loPI    C1 5297   7.435  15.875  11.736  0.1284 -0.0677  0.2087
  332loPI    C2 5298   7.135  15.768  11.978 -0.1184  0.1683  0.0140
  332loPI    C3 5299   7.459  15.949  12.128 -0.1062 -0.0160  0.2151
  332loPI   PO4 5300   7.381  16.001  11.590  0.2089 -0.1602 -0.1037
  332loPI   GL1 5301   7.427  16.071  11.158 -0.0147 -0.2716 -0.0348
  332loPI   GL2 5302   7.154  16.358  10.999  0.1904  0.0131 -0.1346
  332loPI   C1A 5303   7.458  15.978  10.688  0.1319  0.2628  0.0176
  332loPI   C2A 5304   7.464  15.981  10.246 -0.0899 -0.1812  0.0933
  332loPI   C3A 5305   7.443  16.052   9.813  0.1477  0.2856  0.2524
  332loPI   C4A 5306   7.436  15.976   9.365 -0.0512  0.1038 -0.0426
  332loPI   C5A 5307   7.581  15.793   8.979 -0.0536 -0.1457  0.0155
  332loPI   C6A 5308   7.740  15.897   8.632 -0.1058 -0.0051  0.2177
  332loPI   C1B 5309   7.085  16.433  10.595 -0.0661 -0.0985  0.3009
  332loPI   C2B 5310   7.119  16.365  10.190 -0.1472  0.1045  0.0850
  332loPI   C3B 5311   7.084  16.424   9.800 -0.1502 -0.0017  0.2207
  332loPI   C4B 5312   7.081  16.492   9.319 -0.1673  0.2573  0.1663
  333loPI    C1 5313  16.704  16.328  11.588  0.0121  0.0714 -0.1336
  333loPI    C2 5314  16.506  16.126  11.871  0.0580 -0.0671 -0.1992
  333loPI    C3 5315  16.446  16.519  11.827 -0.0490 -0.0699 -0.0853
  333loPI   PO4 5316  16.664  16.202  11.367  0.0018  0.2476 -0.1016
  333loPI   GL1 5317  16.917  16.161  10.972  0.0743  0.2313 -0.1728
  333loPI   GL2 5318  16.653  16.361  10.886 -0.0027  0.5144  0.2195
  333loPI   C1A 5319  16.972  16.024  10.618  0.0870  0.0337 -0.1260
  333loPI   C2A 5320  16.886  16.035  10.210 -0.0666  0.1029 -0.3999
  333loPI   C3A 5321  16.909  16.006   9.880  0.2883  0.2823  0.0080
  333loPI   C4A 5322  16.781  16.077   9.544  0.0024 -0.4365  0.2230
  333loPI   C5A 5323  16.850  16.049   9.102  0.0148 -0.2560  0.1457
  333loPI   C6A 5324  16.752  16.328   8.737  0.0765  0.1228  0.1370
  333loPI   C1B 5325  16.592  16.382  10.437  0.1598  0.0393  0.0190
  333loPI   C2B 5326  16.556  16.367   9.970 -0.1441 -0.0899 -0.0383
  333loPI   C3B 5327  16.424  16.484   9.562 -0.0197 -0.3508  0.0932
  333loPI   C4B 5328  16.460  16.394   9.203  0.3144 -0.1055 -0.2441
  334loPI    C1 5329  10.175  14.738  11.654  0.1068 -0.0739 -0.1613
  334loPI    C2 5330  10.445  14.894  11.905 -0.1693  0.1328  0.0136
  334loPI    C3 5331  10.301  14.526  11.969  0.1407 -0.0186 -0.1375
  334loPI   PO4 5332  10.249  14.740  11.399  0.1290 -0.4201 -0.1694
  334loPI   GL1 5333  10.353  15.012  11.040 -0.2485  0.1687  0.2867
  334loPI   GL2 5334  10.660  15.072  10.964  0.0632  0.1596  0.4133
  334loPI   C1A 5335  10.383  14.919  10.553 -0.0048 -0.2089  0.1379
  334loPI   C2A 5336  10.436  14.897  10.122 -0.2432  0.0720  0.1767
  334loPI   C3A 5337  10.397  14.911   9.651 -0.1186  0.1081 -0.1851
  334loPI   C4A 5338  10.412  14.786   9.186  0.0047 -0.4688 -0.2652
  334loPI   C5A 5339  10.005  14.646   8.944  0.0705 -0.0498 -0.1174
  334loPI   C6A 5340   9.645  14.850   8.870 -0.0643  0.0530 -0.0727
  334loPI   C1B 5341  10.885  15.010  10.637  0.1283  0.0754 -0.3501
  334loPI   C2B 5342  10.900  15.022  10.230  0.0216 -0.0328 -0.0095
  334loPI   C3B 5343  10.936  15.057   9.790  0.0971 -0.2540  0.0898
  334loPI   C4B 5344  10.971  14.912   9.403  0.1119 -0.1307 -0.0837
  335loPI    C1 5345  15.191  10.832  11.739  0.1607  0.0173 -0.2717
  335loPI    C2 5346  15.498  11.055  11.865 -0.0135  0.1512 -0.0768
  335loPI    C3 5347  15.242  10.899  12.130 -0.1662  0.1164 -0.2428
  335loPI   PO4 5348  15.284  10.668  11.559 -0.1157 -0.0286  0.1635
  335loPI   GL1 5349  15.337  10.619  11.065  0.1729  0.0257  0.3041
  335loPI   GL2 5350  15.118  10.583  10.960 -0.5512  0.1308 -0.1572
  335loPI   C1A 5351  15.674  10.641  10.682  0.0678 -0.0024  0.1844
  335loPI   C2A 5352  15.789  10.685  10.311  0.1113  0.2313 -0.0569
  335loPI   C3A 5353  15.856  10.580  10.009 -0.3461 -0.0491  0.0775
  335loPI   C4A 5354  15.671  10.667   9.613 -0.1623 -0.0521  0.1740
  335loPI   C5A 5355  15.704  10.715   9.173 -0.2032  0.0316  0.2353
  335loPI   C6A 5356  15.426  10.536   8.778 -0.0965 -0.0234  0.0179
  335loPI   C1B 5357  15.187  10.573  10.477 -0.2841 -0.0691 -0.2325
  335loPI   C2B 5358  15.274  10.507  10.052  0.0206  0.1150  0.1679
  335loPI   C3B 5359  15.182  10.586   9.635  0.2533  0.2111  0.2225
  335loPI   C4B 5360  15.131  10.550   9.192  0.2349  0.1631 -0.2569
  336loPI    C1 5361   8.165   2.241  12.143  0.0021  0.0697  0.0066
  336loPI    C2 5362   8.435   2.190  12.433  0.0326  0.1741 -0.0029
  336loPI    C3 5363   8.081   2.355  12.518 -0.0593 -0.0340  0.0247
  336loPI   PO4 5364   8.280   2.365  11.948 -0.0243  0.3483 -0.0188
  336loPI   GL1 5365   8.502   2.435  11.471 -0.0930 -0.0877 -0.1461
  336loPI   GL2 5366   8.887   2.504  11.448 -0.1137 -0.0490 -0.0551
  336loPI   C1A 5367   8.181   2.358  11.051  0.0976  0.4719 -0.2685
  336loPI   C2A 5368   8.137   2.489  10.695 -0.0146 -0.3148 -0.1875
  336loPI   C3A 5369   8.214   2.482  10.343 -0.1582  0.0953  0.0995
  336loPI   C4A 5370   8.289   2.483   9.974  0.2148 -0.1095 -0.0580
  336loPI   C5A 5371   8.258   2.432   9.542  0.2863 -0.1584 -0.3018
  336loPI   C6A 5372   8.156   2.541   9.154 -0.1803 -0.2587 -0.1517
  336loPI   C1B 5373   8.709   2.537  11.052  0.1046 -0.2768  0.1262
  336loPI   C2B 5374   8.646   2.571  10.622 -0.0588 -0.4360 -0.0738
  336loPI   C3B 5375   8.706   2.612  10.156 -0.0637 -0.1620 -0.1022
  336loPI   C4B 5376   8.740   2.599   9.760  0.2672  0.1004  0.1020
  337loPI    C1 5377   3.704   1.734  11.919  0.1719  0.2790 -0.0033
  337loPI    C2 5378   4.068   1.580  11.981  0.0861  0.0867  0.0300
  337loPI    C3 5379   3.790   1.559  12.268  0.0100  0.1230 -0.0404
  337loPI   PO4 5380   3.599   1.721  11.654  0.0506 -0.1026  0.0494
  337loPI   GL1 5381   3.714   1.843  11.185 -0.0069  0.0137  0.0933
  337loPI   GL2 5382   3.903   2.100  11.336  0.3700 -0.2361 -0.0475
  337loPI   C1A 5383   3.761   1.716  10.695  0.0093 -0.2171 -0.0248
  337loPI   C2A 5384   3.767   1.506  10.373 -0.0216 -0.3096 -0.1435
  337loPI   C3A 5385   3.757   1.616   9.940  0.4416 -0.0756  0.1078
  337loPI   C4A 5386   3.618   1.551   9.536  0.0190 -0.0669  0.1222
  337loPI   C5A 5387   3.398   1.787   9.149 -0.0201  0.1690 -0.0722
  337loPI   C6A 5388   2.986   1.924   9.014 -0.1098 -0.0181 -0.0218
  337loPI   C1B 5389   3.875   2.167  10.847 -0.4440 -0.2125 -0.2416
  337loPI   C2B 5390   3.879   2.150  10.460 -0.0009  0.4537  0.2894
  337loPI   C3B 5391   3.911   2.147  10.102 -0.3128  0.0829  0.1933
  337loPI   C4B 5392   3.896   2.021   9.658  0.0116 -0.0794  0.0086
  338loPI    C1 5393   8.714   1.181  11.985  0.0626 -0.0367 -0.0342
  338loPI    C2 5394   8.553   1.315  12.326  0.0259 -0.0791 -0.0348
  338loPI    C3 5395   8.860   1.510  12.160 -0.0080 -0.0127 -0.0201
  338loPI   PO4 5396   8.484   1.212  11.826  0.1490 -0.1121  0.2750
  338loPI   GL1 5397   8.359   1.367  11.402 -0.0958  0.3039  0.1038
  338loPI   GL2 5398   8.562   1.492  11.246  0.0655 -0.1904 -0.0504
  338loPI   C1A 5399   8.292   1.207  10.981 -0.0033  0.0963  0.3092
  338loPI   C2A 5400   8.207   1.127  10.613 -0.0158 -0.2547 -0.0778
  338loPI   C3A 5401   8.166   1.189  10.248 -0.4912  0.2392 -0.1024
  338loPI   C4A 5402   8.247   1.111   9.726  0.1203 -0.1623 -0.1468
  338loPI   C5A 5403   8.276   1.064   9.273  0.0510  0.3392 -0.1048
  338loPI   C6A 5404   8.242   0.946   8.798  0.2219  0.1523 -0.1114
  338loPI   C1B 5405   8.333   1.638  10.824  0.0026 -0.0598 -0.2773
  338loPI   C2B 5406   8.356   1.644  10.361  0.1419  0.1641  0.1239
  338loPI   C3B 5407   8.348   1.564   9.962 -0.0919 -0.2636  0.1292
  338loPI   C4B 5408   8.425   1.560   9.577 -0.0182 -0.2304 -0.0004
  339loPI    C1 5409  12.728  15.081  11.817 -0.3360  0.0530 -0.0388
  339loPI    C2 5410  12.705  15.471  11.730 -0.0996  0.1045  0.1188
  339loPI    C3 5411  12.758  15.353  12.109 -0.0225 -0.0751  0.0533
  339loPI   PO4 5412  12.895  14.992  11.596 -0.0778  0.1686 -0.1792
  339loPI   GL1 5413  12.779  14.794  11.232 -0.0610 -0.0101  0.2809
  339loPI   GL2 5414  12.773  14.488  11.244  0.0904 -0.1846  0.4580
  339loPI   C1A 5415  12.944  14.993  10.840  0.0666 -0.3690  0.0698
  339loPI   C2A 5416  12.913  15.027  10.380  0.0379 -0.2509  0.1740
  339loPI   C3A 5417  12.870  14.995   9.944  0.0270 -0.1217  0.0324
  339loPI   C4A 5418  12.767  14.973   9.573 -0.1873 -0.1731  0.0974
  339loPI   C5A 5419  12.836  15.013   9.087  0.2456  0.1424  0.1018
  339loPI   C6A 5420  12.784  15.030   8.660 -0.1247  0.3579 -0.4259
  339loPI   C1B 5421  12.666  14.564  10.752 -0.0175 -0.2319  0.0230
  339loPI   C2B 5422  12.708  14.533  10.301  0.2731 -0.2791  0.1676
  339loPI   C3B 5423  12.731  14.508   9.850 -0.0030 -0.0929 -0.1723
  339loPI   C4B 5424  12.624  14.502   9.429 -0.2553 -0.0892 -0.1156
  340loPI    C1 5425   3.111   9.478  11.821 -0.0060  0.0073  0.2328
  340loPI    C2 5426   2.897   9.701  12.076 -0.2961 -0.0472  0.0426
  340loPI    C3 5427   2.980   9.320  12.164 -0.3712 -0.0577  0.0681
  340loPI   PO4 5428   2.955   9.439  11.608  0.0199  0.0400  0.0751
  340loPI   GL1 5429   2.765   9.519  11.236  0.0699  0.0174  0.2206
  340loPI   GL2 5430   2.541   9.344  11.170  0.0055  0.1135 -0.0435
  340loPI   C1A 5431   2.801   9.857  10.984  0.1892  0.3019  0.3072
  340loPI   C2A 5432   2.911   9.898  10.640 -0.0620  0.0424 -0.1910
  340loPI   C3A 5433   2.763   9.818  10.233 -0.1119 -0.1946 -0.0322
  340loPI   C4A 5434   2.745   9.776   9.808 -0.1458 -0.3030  0.1246
  340loPI   C5A 5435   2.848   9.802   9.346  0.0179 -0.0287  0.0051
  340loPI   C6A 5436   2.854  10.038   8.946  0.0175 -0.2398 -0.1947
  340loPI   C1B 5437   2.667   9.382  10.722 -0.0264 -0.2732 -0.4166
  340loPI   C2B 5438   2.600   9.292  10.202 -0.0261 -0.1471 -0.0828
  340loPI   C3B 5439   2.588   9.286   9.735  0.0984  0.0582 -0.1414
  340loPI   C4B 5440   2.619   9.318   9.322 -0.3552  0.3277  0.1508
  341loPI    C1 5441   6.299  11.398  11.609  0.0619 -0.0755  0.2692
  341loPI    C2 5442   6.339  11.790  11.539 -0.1556 -0.0653  0.1915
  341loPI    C3 5443   6.147  11.664  11.867 -0.0508 -0.1080  0.2370
  341loPI   PO4 5444   6.168  11.335  11.384 -0.0644  0.0665 -0.2516
  341loPI   GL1 5445   6.028  11.635  11.188  0.0938  0.2557  0.0401
  341loPI   GL2 5446   6.330  11.588  11.002  0.0714  0.0508 -0.1413
  341loPI   C1A 5447   5.759  11.480  10.875 -0.0230  0.3535  0.2318
  341loPI   C2A 5448   5.645  11.458  10.497  0.0255 -0.1048  0.0381
  341loPI   C3A 5449   5.662  11.486  10.075 -0.0065  0.0468  0.2466
  341loPI   C4A 5450   5.661  11.468   9.729 -0.0999  0.0964  0.2953
  341loPI   C5A 5451   5.561  11.328   9.365  0.0812 -0.1019 -0.1609
  341loPI   C6A 5452   5.691  11.176   8.846 -0.0687 -0.0891 -0.0972
  341loPI   C1B 5453   6.176  11.539  10.608  0.0346 -0.0455 -0.1611
  341loPI   C2B 5454   6.146  11.606  10.083 -0.0694  0.0083  0.0689
  341loPI   C3B 5455   6.219  11.535   9.648 -0.1478  0.0975 -0.0798
  341loPI   C4B 5456   6.227  11.962   9.538  0.0371  0.1409  0.1736
  342loPI    C1 5457  16.717   2.202  11.699 -0.1557  0.0088  0.0823
  342loPI    C2 5458  16.964   1.889  11.675 -0.0741  0.0921 -0.1996
  342loPI    C3 5459  16.917   2.080  12.023 -0.1136 -0.2221 -0.0290
  342loPI   PO4 5460  16.783   2.344  11.433  0.2992 -0.2355 -0.0841
  342loPI   GL1 5461  16.726   2.403  11.027 -0.0211  0.1483 -0.1531
  342loPI   GL2 5462  16.841   2.155  10.954 -0.1040 -0.3880 -0.0642
  342loPI   C1A 5463  16.612   2.416  10.517  0.1523 -0.2807 -0.1302
  342loPI   C2A 5464  16.753   2.402  10.217  0.1314  0.0206 -0.1221
  342loPI   C3A 5465  16.563   2.359   9.852  0.0188  0.1493 -0.0796
  342loPI   C4A 5466  16.466   2.351   9.403  0.1392 -0.0059 -0.0454
  342loPI   C5A 5467  16.387   2.490   9.047 -0.1297  0.1906 -0.1960
  342loPI   C6A 5468  16.543   2.688   8.723  0.0996  0.0414  0.0298
  342loPI   C1B 5469  16.894   1.949  10.528 -0.2617  0.2286 -0.0082
  342loPI   C2B 5470  16.899   1.946  10.050 -0.0459 -0.1786  0.0311
  342loPI   C3B 5471  17.004   2.042   9.630  0.2961 -0.0496  0.1112
  342loPI   C4B 5472  16.781   1.968   9.269  0.1097  0.3272 -0.1641
  343loPI    C1 5473  15.195   0.179  11.686  0.2927  0.0047  0.1900
  343loPI    C2 5474  14.798   0.198  11.734  0.2155 -0.2550 -0.2768
  343loPI    C3 5475  15.041   0.255  12.047 -0.1821  0.0329 -0.0107
  343loPI   PO4 5476  15.182   0.047  11.427 -0.0237 -0.1712  0.1138
  343loPI   GL1 5477  15.145   0.021  11.073 -0.1811  0.0464 -0.0432
  343loPI   GL2 5478  15.370  -0.205  10.973 -0.1108  0.2001 -0.0785
  343loPI   C1A 5479  14.979   0.181  10.631 -0.1168 -0.1554  0.2597
  343loPI   C2A 5480  15.032   0.128  10.153 -0.2076  0.1386  0.0275
  343loPI   C3A 5481  14.897   0.056   9.784  0.0064  0.1088  0.2992
  343loPI   C4A 5482  14.923   0.043   9.312 -0.0314 -0.1493  0.2112
  343loPI   C5A 5483  14.826  -0.272   8.965  0.0684  0.4827 -0.0792
  343loPI   C6A 5484  14.575  -0.353   8.561 -0.3020 -0.0013 -0.0794
  343loPI   C1B 5485  15.297  -0.215  10.513 -0.1670 -0.2507  0.1196
  343loPI   C2B 5486  15.297  -0.303  10.005 -0.0587  0.1146  0.2274
  343loPI   C3B 5487  15.273  -0.265   9.618  0.1192  0.1407 -0.2342
  343loPI   C4B 5488  15.317  -0.211   9.165  0.2499  0.0670 -0.1435
  344loPI    C1 5489  10.901  14.885  11.652 -0.0451 -0.1619  0.0979
  344loPI    C2 5490  10.898  14.562  11.888  0.0086 -0.0118  0.3062
  344loPI    C3 5491  11.016  14.916  12.034 -0.1019  0.1142  0.0946
  344loPI   PO4 5492  10.719  14.821  11.411  0.1055 -0.3278 -0.0228
  344loPI   GL1 5493  10.642  14.559  11.089  0.1371 -0.0012 -0.0129
  344loPI   GL2 5494  10.838  14.618  10.998 -0.1087  0.1388  0.2062
  344loPI   C1A 5495  10.618  14.192  10.824  0.0329 -0.1740 -0.0187
  344loPI   C2A 5496  10.592  14.050  10.481  0.2171  0.0886 -0.0076
  344loPI   C3A 5497  10.618  14.009  10.094  0.1201  0.1497  0.1117
  344loPI   C4A 5498  10.618  14.043   9.695  0.0946  0.1510 -0.2055
  344loPI   C5A 5499  10.626  14.021   9.256  0.0456 -0.0234  0.1175
  344loPI   C6A 5500  10.448  14.260   8.872  0.0585  0.0732 -0.3380
  344loPI   C1B 5501  10.798  14.545  10.517 -0.1866  0.0328  0.2781
  344loPI   C2B 5502  10.751  14.535  10.156 -0.0240 -0.2349  0.0194
  344loPI   C3B 5503  10.735  14.614   9.759  0.1730 -0.0259 -0.1077
  344loPI   C4B 5504  10.760  14.445   9.424 -0.1925  0.0003  0.2905
  345loPI    C1 5505  16.964  16.857  11.406 -0.1148 -0.1011 -0.0023
  345loPI    C2 5506  17.059  16.852  11.795  0.0328  0.1861 -0.0322
  345loPI    C3 5507  16.678  16.903  11.683 -0.0908 -0.4177  0.0790
  345loPI   PO4 5508  17.018  16.661  11.308 -0.0825  0.2932  0.3013
  345loPI   GL1 5509  17.218  16.592  10.951  0.0905  0.0157  0.2231
  345loPI   GL2 5510  17.476  16.466  11.028 -0.0901  0.1223  0.1291
  345loPI   C1A 5511  17.093  16.509  10.473  0.1701 -0.1026  0.0406
  345loPI   C2A 5512  17.057  16.529  10.064  0.1311 -0.1068 -0.1904
  345loPI   C3A 5513  16.939  16.538   9.709 -0.4370  0.0727  0.1956
  345loPI   C4A 5514  16.967  16.631   9.195  0.1793  0.0687  0.1014
  345loPI   C5A 5515  17.224  16.315   8.928  0.3669 -0.1615  0.0050
  345loPI   C6A 5516  17.423  15.992   9.029  0.0002  0.0200 -0.2184
  345loPI   C1B 5517  17.443  16.193  10.692  0.1485 -0.2759  0.0801
  345loPI   C2B 5518  17.377  16.112  10.257  0.0477 -0.0076  0.1359
  345loPI   C3B 5519  17.369  16.230   9.844  0.2735 -0.1510 -0.1264
  345loPI   C4B 5520  17.272  16.229   9.427 -0.1242 -0.1814  0.2481
  346loPI    C1 5521   7.583   5.413  11.907 -0.1322  0.0368 -0.0558
  346loPI    C2 5522   7.971   5.496  11.860 -0.1537  0.1668 -0.0091
  346loPI    C3 5523   7.858   5.201  12.105 -0.0809  0.0690 -0.0925
  346loPI   PO4 5524   7.513   5.454  11.691 -0.1654  0.1741 -0.0339
  346loPI   GL1 5525   7.750   5.599  11.334  0.0182  0.1913  0.0191
  346loPI   GL2 5526   8.014   5.376  11.322  0.0206  0.0490  0.1664
  346loPI   C1A 5527   7.793   5.656  10.934 -0.0894  0.2209 -0.1945
  346loPI   C2A 5528   7.706   5.773  10.510  0.0233 -0.2600 -0.1202
  346loPI   C3A 5529   7.793   6.013  10.094  0.0954 -0.3735 -0.0010
  346loPI   C4A 5530   7.811   5.999   9.570  0.2295  0.3373  0.1653
  346loPI   C5A 5531   7.859   6.296   9.237 -0.1822  0.4406  0.0520
  346loPI   C6A 5532   7.975   6.719   9.361 -0.0733 -0.0883  0.0693
  346loPI   C1B 5533   8.093   5.167  10.915  0.0129 -0.0139 -0.1575
  346loPI   C2B 5534   8.100   5.117  10.533  0.0609 -0.3569  0.1162
  346loPI   C3B 5535   7.980   5.148  10.151 -0.0164 -0.1547 -0.0974
  346loPI   C4B 5536   8.043   5.155   9.754 -0.1208  0.0755  0.0417
  347loPI    C1 5537   5.356   8.191  11.739 -0.0358 -0.0957 -0.2258
  347loPI    C2 5538   5.630   8.333  11.993 -0.1511 -0.0018 -0.1530
  347loPI    C3 5539   5.488   7.962  12.040 -0.5040  0.1703  0.1972
  347loPI   PO4 5540   5.415   8.257  11.522 -0.0514 -0.1061  0.0178
  347loPI   GL1 5541   5.219   8.277  11.105  0.2485  0.1905 -0.0334
  347loPI   GL2 5542   5.255   8.490  11.033  0.1360 -0.3527 -0.0705
  347loPI   C1A 5543   5.034   8.042  10.767 -0.0708  0.0706 -0.3334
  347loPI   C2A 5544   5.129   8.028  10.386  0.1475 -0.1516  0.4255
  347loPI   C3A 5545   5.109   8.076   9.850 -0.0751 -0.0324 -0.1663
  347loPI   C4A 5546   4.994   8.039   9.411  0.2544 -0.0411  0.0290
  347loPI   C5A 5547   4.906   7.799   8.980 -0.1575  0.2521 -0.0653
  347loPI   C6A 5548   4.604   7.525   8.886  0.1845 -0.3136 -0.1145
  347loPI   C1B 5549   5.255   8.590  10.561  0.0950 -0.0215 -0.0639
  347loPI   C2B 5550   5.235   8.480  10.102  0.0128 -0.1351 -0.1125
  347loPI   C3B 5551   5.135   8.546   9.673  0.0617 -0.3014  0.2346
  347loPI   C4B 5552   5.161   8.542   9.283  0.1726 -0.0080 -0.3638
  348loPI    C1 5553   7.916   3.635  11.994 -0.0494  0.0808  0.2979
  348loPI    C2 5554   7.528   3.583  12.075 -0.1079  0.1165  0.0498
  348loPI    C3 5555   7.741   3.850  12.282 -0.2683  0.2519  0.0427
  348loPI   PO4 5556   7.902   3.607  11.736  0.1256 -0.1589  0.0247
  348loPI   GL1 5557   7.903   3.489  11.319 -0.0457  0.1690  0.1984
  348loPI   GL2 5558   8.140   3.755  11.253  0.2009  0.0742 -0.2832
  348loPI   C1A 5559   8.013   3.280  10.952  0.1542 -0.0357  0.0775
  348loPI   C2A 5560   8.077   3.367  10.545  0.0853  0.0383  0.0652
  348loPI   C3A 5561   8.015   3.401  10.105 -0.3489  0.3505  0.0801
  348loPI   C4A 5562   8.063   3.297   9.713  0.2813  0.1192  0.0648
  348loPI   C5A 5563   7.944   3.428   9.288  0.2277 -0.0065 -0.1761
  348loPI   C6A 5564   8.071   3.787   9.008  0.1119  0.0858 -0.0599
  348loPI   C1B 5565   8.101   3.769  10.800 -0.2968 -0.0223  0.1678
  348loPI   C2B 5566   8.063   3.843  10.358 -0.3305  0.1622  0.2788
  348loPI   C3B 5567   8.180   3.844   9.940  0.1478  0.0740 -0.1278
  348loPI   C4B 5568   8.201   3.886   9.538 -0.1954  0.0779 -0.3786
  349loPI    C1 5569  13.760  15.269  11.488 -0.0975  0.2390  0.2199
  349loPI    C2 5570  13.975  14.935  11.535 -0.1014  0.2211  0.1138
  349loPI    C3 5571  13.695  15.032  11.804 -0.1345  0.1132  0.1187
  349loPI   PO4 5572  13.767  15.285  11.231  0.3190  0.0363  0.0173
  349loPI   GL1 5573  13.798  15.474  10.801  0.2366 -0.0264 -0.0588
  349loPI   GL2 5574  13.586  15.707  10.749  0.0410 -0.0051 -0.1866
  349loPI   C1A 5575  13.893  15.282  10.383 -0.1291  0.0754 -0.1383
  349loPI   C2A 5576  13.811  15.229   9.939  0.1942 -0.1828 -0.0374
  349loPI   C3A 5577  13.722  15.224   9.557 -0.0127  0.3822  0.1427
  349loPI   C4A 5578  13.893  15.227   9.039 -0.0156  0.0317  0.1266
  349loPI   C5A 5579  13.770  15.055   8.700 -0.0163 -0.0184 -0.3479
  349loPI   C6A 5580  13.873  14.587   8.550  0.0333 -0.1668  0.2508
  349loPI   C1B 5581  13.493  15.621  10.363  0.2423  0.0260 -0.0420
  349loPI   C2B 5582  13.430  15.672   9.905 -0.0616 -0.3021 -0.0468
  349loPI   C3B 5583  13.448  15.634   9.577  0.0944 -0.0953  0.2047
  349loPI   C4B 5584  13.498  15.691   9.143 -0.2352 -0.0016 -0.5148
  350loPI    C1 5585   5.456  12.869  11.842  0.0271  0.1372  0.0875
  350loPI    C2 5586   5.443  12.544  12.075 -0.0824 -0.0134 -0.1240
  350loPI    C3 5587   5.260  12.881  12.190  0.0243 -0.0277  0.0925
  350loPI   PO4 5588   5.526  12.941  11.564  0.3864  0.1364  0.0803
  350loPI   GL1 5589   5.571  12.989  11.196  0.3894  0.2995  0.2515
  350loPI   GL2 5590   5.411  13.126  10.995 -0.1342 -0.1591  0.1455
  350loPI   C1A 5591   5.703  12.884  10.727 -0.0417  0.2504 -0.1111
  350loPI   C2A 5592   5.575  12.811  10.387  0.2974  0.3316  0.1126
  350loPI   C3A 5593   5.632  12.719  10.025  0.3606  0.1133 -0.0248
  350loPI   C4A 5594   5.489  12.798   9.655  0.1487 -0.1230 -0.1964
  350loPI   C5A 5595   5.544  12.868   9.243  0.0748  0.0442  0.1119
  350loPI   C6A 5596   5.615  12.734   8.872 -0.1327  0.0879 -0.2061
  350loPI   C1B 5597   5.286  13.236  10.559  0.1608  0.0582 -0.0292
  350loPI   C2B 5598   5.242  13.076  10.117  0.1526 -0.1657 -0.2831
  350loPI   C3B 5599   5.215  13.174   9.803  0.2797 -0.0606  0.0525
  350loPI   C4B 5600   5.135  13.241   9.418 -0.1696 -0.1198 -0.1411
  351loPI    C1 5601  10.490   5.141  12.290 -0.0272 -0.0274  0.1112
  351loPI    C2 5602  10.460   4.860  12.573  0.1605 -0.1483  0.0136
  351loPI    C3 5603  10.644   5.206  12.653  0.2086 -0.1802  0.0411
  351loPI   PO4 5604  10.516   5.073  12.029 -0.1391  0.3819  0.3280
  351loPI   GL1 5605  10.504   5.183  11.626  0.1126 -0.2630 -0.2795
  351loPI   GL2 5606  10.720   5.046  11.504  0.0004 -0.3374  0.1108
  351loPI   C1A 5607  10.411   5.373  11.142 -0.1542  0.0974 -0.0176
  351loPI   C2A 5608  10.404   5.373  10.665 -0.2688 -0.0600 -0.1495
  351loPI   C3A 5609  10.389   5.370  10.253 -0.0281 -0.1026 -0.0178
  351loPI   C4A 5610  10.385   5.290   9.822  0.0622  0.0666  0.1988
  351loPI   C5A 5611  10.526   5.280   9.376  0.1716  0.0329  0.0454
  351loPI   C6A 5612  10.815   4.926   9.280 -0.2248  0.2055  0.1960
  351loPI   C1B 5613  10.757   4.994  11.059 -0.3892 -0.1901 -0.1250
  351loPI   C2B 5614  10.642   4.967  10.633  0.1994 -0.1616 -0.0057
  351loPI   C3B 5615  10.684   4.923  10.255 -0.0172  0.3998  0.0108
  351loPI   C4B 5616  10.741   4.912   9.777  0.1890  0.1681 -0.0566
  352loPI    C1 5617   1.733  10.584  11.836 -0.1141  0.0411 -0.0415
  352loPI    C2 5618   2.055  10.360  11.754  0.1026  0.3772 -0.1276
  352loPI    C3 5619   1.956  10.435  12.134 -0.1320 -0.0849 -0.0902
  352loPI   PO4 5620   1.734  10.649  11.534 -0.2767 -0.1444  0.1399
  352loPI   GL1 5621   1.799  10.870  11.250  0.0506 -0.1119 -0.1136
  352loPI   GL2 5622   2.046  11.038  11.169  0.0378 -0.0863 -0.2346
  352loPI   C1A 5623   1.729  10.613  10.874 -0.1566 -0.1406 -0.2054
  352loPI   C2A 5624   1.612  10.576  10.429 -0.0619 -0.0173 -0.2744
  352loPI   C3A 5625   1.623  10.462   9.971  0.2103 -0.4275 -0.0494
  352loPI   C4A 5626   1.656  10.374   9.654  0.0874  0.1264  0.1433
  352loPI   C5A 5627   1.642  10.496   9.220 -0.0683  0.0669  0.0726
  352loPI   C6A 5628   1.980  10.550   8.940  0.2006  0.2571 -0.0095
  352loPI   C1B 5629   1.911  11.073  10.819  0.2032 -0.1937  0.0061
  352loPI   C2B 5630   1.807  11.037  10.492 -0.1362  0.1937 -0.1297
  352loPI   C3B 5631   1.729  10.937  10.080 -0.0698 -0.3847 -0.1823
  352loPI   C4B 5632   1.689  10.913   9.644  0.1736  0.0271  0.1364
  353loPI    C1 5633   7.585  14.029  11.616 -0.1700  0.0659 -0.0578
  353loPI    C2 5634   7.223  14.151  11.736 -0.0659  0.2309  0.0932
  353loPI    C3 5635   7.505  14.065  12.007 -0.1057 -0.2595 -0.0118
  353loPI   PO4 5636   7.560  13.942  11.403 -0.1179  0.1236 -0.2453
  353loPI   GL1 5637   7.802  13.790  11.044  0.1285 -0.1913  0.1294
  353loPI   GL2 5638   8.054  13.675  11.128  0.0095  0.1227 -0.2333
  353loPI   C1A 5639   7.802  13.769  10.578  0.0342  0.0721  0.0094
  353loPI   C2A 5640   7.899  13.838  10.122  0.1208 -0.0917  0.0736
  353loPI   C3A 5641   7.711  13.835   9.762  0.0599  0.1242 -0.3137
  353loPI   C4A 5642   7.585  13.814   9.378 -0.1033  0.3693 -0.0375
  353loPI   C5A 5643   7.512  13.442   9.110  0.1959  0.0150  0.1595
  353loPI   C6A 5644   7.236  13.408   8.624 -0.0933 -0.0798 -0.1135
  353loPI   C1B 5645   8.259  13.443  10.775  0.1844 -0.0713 -0.0875
  353loPI   C2B 5646   8.149  13.438  10.364  0.0027  0.2253 -0.3220
  353loPI   C3B 5647   8.134  13.437   9.941  0.3284 -0.0680  0.1627
  353loPI   C4B 5648   8.106  13.412   9.517  0.0956  0.1215 -0.0532
  354loPI    C1 5649  15.191   6.456  11.756  0.0257  0.1904  0.0909
  354loPI    C2 5650  15.490   6.292  11.964 -0.0317 -0.0541 -0.0153
  354loPI    C3 5651  15.168   6.433  12.155  0.1263  0.1639  0.0954
  354loPI   PO4 5652  15.227   6.292  11.533 -0.0534 -0.2108  0.0335
  354loPI   GL1 5653  15.453   6.393  11.088 -0.3276 -0.2473 -0.0670
  354loPI   GL2 5654  15.110   6.328  11.043 -0.1735 -0.0389  0.0300
  354loPI   C1A 5655  15.395   6.349  10.626 -0.2350 -0.1724 -0.0412
  354loPI   C2A 5656  15.306   6.360  10.198  0.1119 -0.0378  0.1385
  354loPI   C3A 5657  15.422   6.459   9.759  0.1913  0.0627  0.0440
  354loPI   C4A 5658  15.397   6.592   9.322 -0.2384 -0.0795 -0.0182
  354loPI   C5A 5659  15.492   6.551   8.882 -0.1637  0.1044  0.0062
  354loPI   C6A 5660  15.708   6.499   8.557 -0.1437  0.3647 -0.1713
  354loPI   C1B 5661  14.890   6.207  10.669 -0.2549  0.2043  0.0563
  354loPI   C2B 5662  14.783   6.344  10.265 -0.2266  0.2195 -0.0035
  354loPI   C3B 5663  14.923   6.312   9.855 -0.0809 -0.0468 -0.3039
  354loPI   C4B 5664  14.979   6.448   9.535 -0.1120  0.2855  0.1530
  355loPI    C1 5665  16.753  15.314  11.716  0.0438 -0.0793  0.0003
  355loPI    C2 5666  16.678  15.189  12.089  0.2083  0.0321  0.0717
  355loPI    C3 5667  16.643  15.577  11.997  0.0260 -0.0157 -0.0660
  355loPI   PO4 5668  16.720  15.080  11.626  0.0122 -0.0150  0.2481
  355loPI   GL1 5669  16.586  15.103  11.265 -0.3823  0.0541  0.1083
  355loPI   GL2 5670  16.372  15.265  11.286  0.2082 -0.2001  0.2933
  355loPI   C1A 5671  16.678  15.094  10.881 -0.0279 -0.0546 -0.3590
  355loPI   C2A 5672  16.599  15.051  10.459 -0.0012  0.1742  0.0471
  355loPI   C3A 5673  16.509  15.112  10.027  0.3934 -0.1833  0.0312
  355loPI   C4A 5674  16.473  14.991   9.594 -0.1168 -0.0120  0.0853
  355loPI   C5A 5675  16.449  15.079   9.268 -0.1883  0.0712 -0.0304
  355loPI   C6A 5676  16.125  15.102   8.883  0.4535  0.1970 -0.2454
  355loPI   C1B 5677  16.235  15.324  10.813  0.2438 -0.0113  0.1036
  355loPI   C2B 5678  16.282  15.422  10.355 -0.2408 -0.0844 -0.2955
  355loPI   C3B 5679  16.175  15.456   9.931  0.2220 -0.0352  0.2413
  355loPI   C4B 5680  16.114  15.428   9.495  0.0556  0.0141  0.0226
  356loPI    C1 5681  14.280  15.314  11.641 -0.1412 -0.0760 -0.1079
  356loPI    C2 5682  14.375  15.647  11.841 -0.3378  0.0427 -0.2091
  356loPI    C3 5683  14.041  15.447  11.933 -0.0180 -0.3566  0.1259
  356loPI   PO4 5684  14.269  15.323  11.447  0.1736 -0.2875 -0.1301
  356loPI   GL1 5685  14.257  15.067  11.129 -0.1102  0.1061 -0.2538
  356loPI   GL2 5686  14.293  14.659  11.136  0.2269  0.1008  0.2149
  356loPI   C1A 5687  14.195  15.073  10.673  0.1236  0.3606 -0.2159
  356loPI   C2A 5688  14.206  14.898  10.327 -0.3000 -0.0689 -0.0005
  356loPI   C3A 5689  14.226  14.914   9.952  0.0919  0.0771 -0.2114
  356loPI   C4A 5690  14.097  14.941   9.504  0.2146  0.0847 -0.0776
  356loPI   C5A 5691  14.053  14.772   9.159  0.1015  0.1064 -0.1600
  356loPI   C6A 5692  13.730  14.440   9.077 -0.0164 -0.0194  0.0095
  356loPI   C1B 5693  14.154  14.558  10.698 -0.1266  0.0717 -0.0449
  356loPI   C2B 5694  14.060  14.423  10.347 -0.0263  0.1686 -0.2210
  356loPI   C3B 5695  14.001  14.374   9.928  0.1029  0.0323  0.1986
  356loPI   C4B 5696  14.016  14.407   9.540  0.1856  0.1066  0.2401
  357loPI    C1 5697   4.902   3.482  11.782 -0.0084  0.1977 -0.0066
  357loPI    C2 5698   5.136   3.184  11.910 -0.2303  0.1355  0.2662
  357loPI    C3 5699   5.163   3.546  12.078 -0.1414  0.2021  0.1111
  357loPI   PO4 5700   4.777   3.456  11.563 -0.1612  0.1275  0.0342
  357loPI   GL1 5701   4.640   3.472  11.067 -0.1240 -0.1354 -0.1237
  357loPI   GL2 5702   4.644   3.208  11.080 -0.3338  0.2283 -0.0147
  357loPI   C1A 5703   4.805   3.748  10.736  0.1160 -0.0112  0.1512
  357loPI   C2A 5704   4.869   3.806  10.291  0.0388  0.1629 -0.1159
  357loPI   C3A 5705   4.924   3.740   9.904 -0.1187 -0.2557  0.0250
  357loPI   C4A 5706   5.053   3.756   9.416  0.2518 -0.0501  0.0315
  357loPI   C5A 5707   5.369   3.453   9.163 -0.1815 -0.1575  0.1310
  357loPI   C6A 5708   5.828   3.277   9.004  0.0012  0.1984 -0.1351
  357loPI   C1B 5709   4.632   3.254  10.563  0.0974  0.0140  0.1494
  357loPI   C2B 5710   4.665   3.249  10.102 -0.2406 -0.3130 -0.1212
  357loPI   C3B 5711   4.648   3.240   9.719 -0.0326  0.1041 -0.4152
  357loPI   C4B 5712   4.871   3.303   9.348 -0.2033  0.0420  0.0714
  358loPI    C1 5713  13.871  10.839  11.866  0.2533  0.3300 -0.0198
  358loPI    C2 5714  13.626  11.048  12.102  0.1135  0.2187 -0.0652
  358loPI    C3 5715  13.944  10.862  12.258  0.0026  0.1165  0.0425
  358loPI   PO4 5716  13.938  10.963  11.595  0.1096 -0.1498 -0.0001
  358loPI   GL1 5717  13.769  10.915  11.243  0.2783  0.2001 -0.1347
  358loPI   GL2 5718  13.507  11.088  11.116 -0.0901 -0.3277  0.2347
  358loPI   C1A 5719  13.924  10.700  10.944  0.3143  0.0941 -0.2051
  358loPI   C2A 5720  13.906  10.715  10.479 -0.1137  0.0152 -0.1674
  358loPI   C3A 5721  13.929  10.711  10.015  0.2429  0.2223  0.1352
  358loPI   C4A 5722  13.853  10.736   9.540 -0.0644  0.3531  0.0359
  358loPI   C5A 5723  13.770  10.602   9.113 -0.0457  0.2884 -0.3295
  358loPI   C6A 5724  13.557  10.840   8.764 -0.2566 -0.0482 -0.1721
  358loPI   C1B 5725  13.552  11.064  10.732  0.2719  0.1127  0.1589
  358loPI   C2B 5726  13.544  11.047  10.214 -0.0424 -0.0558 -0.0532
  358loPI   C3B 5727  13.496  11.084   9.750 -0.1444 -0.1215  0.0103
  358loPI   C4B 5728  13.453  11.056   9.316  0.1426 -0.0812  0.1520
  359loPI    C1 5729   3.504   4.190  11.836 -0.0050 -0.1641  0.0726
  359loPI    C2 5730   3.330   4.390  12.135 -0.0774 -0.0012 -0.0766
  359loPI    C3 5731   3.231   4.008  12.065 -0.0210 -0.0566  0.1394
  359loPI   PO4 5732   3.465   4.308  11.630  0.1379  0.1147  0.1887
  359loPI   GL1 5733   3.546   4.207  11.303 -0.2236  0.1591 -0.1634
  359loPI   GL2 5734   3.438   3.993  11.128 -0.1300 -0.0139 -0.0601
  359loPI   C1A 5735   3.686   4.362  10.907  0.0240  0.0089 -0.1648
  359loPI   C2A 5736   3.590   4.458  10.550  0.0212  0.2823 -0.0971
  359loPI   C3A 5737   3.626   4.342  10.113  0.3052 -0.1164  0.1198
  359loPI   C4A 5738   3.569   4.295   9.672  0.0451 -0.0185  0.0418
  359loPI   C5A 5739   3.709   4.248   9.294  0.1166  0.3001  0.2001
  359loPI   C6A 5740   3.979   4.396   8.959 -0.1095  0.1102  0.0274
  359loPI   C1B 5741   3.471   3.919  10.718  0.2599  0.0823 -0.1713
  359loPI   C2B 5742   3.508   3.859  10.277  0.2999 -0.0870  0.2579
  359loPI   C3B 5743   3.449   3.843   9.868  0.2127  0.1590  0.0199
  359loPI   C4B 5744   3.514   3.809   9.416 -0.1010  0.1685  0.1527
  360loPI    C1 5745   2.898  15.170  11.699 -0.0956  0.3438  0.0658
  360loPI    C2 5746   3.258  15.150  11.872 -0.1629  0.1462  0.1864
  360loPI    C3 5747   2.928  15.088  12.089 -0.2588  0.1014  0.0295
  360loPI   PO4 5748   2.954  15.094  11.465  0.0469 -0.1607 -0.0897
  360loPI   GL1 5749   2.960  14.930  11.127  0.5853  0.2177 -0.1280
  360loPI   GL2 5750   2.946  14.657  11.112  0.0503 -0.2222 -0.0067
  360loPI   C1A 5751   2.955  14.985  10.751 -0.1317 -0.1845  0.4749
  360loPI   C2A 5752   2.987  14.977  10.326 -0.0735 -0.0622 -0.1893
  360loPI   C3A 5753   2.899  15.027   9.831  0.1600 -0.3002 -0.1629
  360loPI   C4A 5754   2.873  14.947   9.438  0.2635  0.0695 -0.1587
  360loPI   C5A 5755   2.708  15.069   8.979 -0.0751  0.1933  0.1296
  360loPI   C6A 5756   2.390  15.277   8.689 -0.0834 -0.3957 -0.2057
  360loPI   C1B 5757   2.883  14.519  10.727 -0.2096  0.1148 -0.0463
  360loPI   C2B 5758   2.813  14.511  10.371 -0.0550 -0.2848  0.0203
  360loPI   C3B 5759   2.726  14.468   9.964 -0.0955  0.1553  0.1822
  360loPI   C4B 5760   2.707  14.478   9.572  0.1892 -0.1885  0.0915
  361loPI    C1 5761  16.351   3.942  11.565 -0.3289 -0.1679 -0.0064
  361loPI    C2 5762  16.214   4.286  11.718  0.1533  0.0071  0.0488
  361loPI    C3 5763  16.346   3.997  11.961 -0.1219 -0.1662 -0.0031
  361loPI   PO4 5764  16.421   4.052  11.360  0.1489 -0.0486 -0.0849
  361loPI   GL1 5765  16.301   4.059  10.940 -0.1523  0.1767  0.2919
  361loPI   GL2 5766  16.428   3.818  10.790  0.0281  0.1412  0.1433
  361loPI   C1A 5767  16.194   4.261  10.560 -0.0208  0.0074 -0.0734
  361loPI   C2A 5768  16.032   4.267  10.165 -0.2017  0.1992  0.0889
  361loPI   C3A 5769  16.141   4.218   9.774  0.1333 -0.3685 -0.1909
  361loPI   C4A 5770  16.068   4.221   9.371 -0.0338  0.0463  0.1268
  361loPI   C5A 5771  16.248   4.177   8.922  0.0436  0.1726 -0.2022
  361loPI   C6A 5772  16.727   4.055   8.873  0.1341  0.2380 -0.3251
  361loPI   C1B 5773  16.450   3.822  10.452  0.6465 -0.0334 -0.0116
  361loPI   C2B 5774  16.443   3.789  10.033 -0.2587  0.2209  0.0183
  361loPI   C3B 5775  16.400   3.821   9.605  0.2246 -0.0895 -0.0796
  361loPI   C4B 5776  16.427   3.828   9.245  0.0680 -0.3716  0.2832
  362loPI    C1 5777  10.436   7.187  12.053  0.2206 -0.0825 -0.1193
  362loPI    C2 5778  10.311   6.955  12.353 -0.0607  0.1485 -0.0530
  362loPI    C3 5779  10.691   6.935  12.230  0.0804  0.1082  0.3717
  362loPI   PO4 5780  10.218   7.093  11.810 -0.1730 -0.4488  0.0703
  362loPI   GL1 5781   9.965   6.986  11.429 -0.1067  0.1975  0.1203
  362loPI   GL2 5782  10.404   7.078  11.325  0.0306 -0.0957 -0.0693
  362loPI   C1A 5783  10.005   7.002  11.019 -0.0123 -0.4621 -0.1435
  362loPI   C2A 5784   9.953   7.009  10.574  0.0164  0.1922 -0.0689
  362loPI   C3A 5785   9.876   7.062  10.079  0.0532  0.0101 -0.0187
  362loPI   C4A 5786   9.952   6.959   9.636  0.0509 -0.1991  0.1025
  362loPI   C5A 5787  10.081   6.943   9.254  0.0225 -0.2576 -0.0979
  362loPI   C6A 5788  10.353   6.795   8.922 -0.0875  0.1477  0.1779
  362loPI   C1B 5789  10.436   7.122  10.838 -0.2062 -0.0482 -0.1117
  362loPI   C2B 5790  10.439   7.164  10.476  0.1774 -0.1890  0.0942
  362loPI   C3B 5791  10.378   7.109  10.004 -0.1100 -0.0053  0.1335
  362loPI   C4B 5792  10.570   7.092   9.551 -0.2173  0.1507  0.1078
  363loPI    C1 5793   5.841  16.556  11.874  0.4279 -0.1953 -0.0367
  363loPI    C2 5794   5.496  16.699  12.016  0.3448 -0.1073 -0.3190
  363loPI    C3 5795   5.827  16.715  12.240  0.1083 -0.4561  0.0692
  363loPI   PO4 5796   5.867  16.662  11.670  0.0599 -0.1925  0.2381
  363loPI   GL1 5797   5.767  16.576  11.296  0.0292  0.0092  0.1960
  363loPI   GL2 5798   6.092  16.560  11.276 -0.1096 -0.1587  0.2864
  363loPI   C1A 5799   5.757  16.502  10.811  0.0927  0.0268 -0.2957
  363loPI   C2A 5800   5.803  16.464  10.467 -0.0707 -0.1274  0.0828
  363loPI   C3A 5801   5.694  16.543  10.121  0.0829 -0.2922 -0.2805
  363loPI   C4A 5802   5.756  16.570   9.686  0.1628  0.1654 -0.3602
  363loPI   C5A 5803   5.675  16.629   9.342 -0.1339  0.1081 -0.0355
  363loPI   C6A 5804   5.671  16.448   8.914  0.0247  0.0429 -0.1219
  363loPI   C1B 5805   6.297  16.546  10.936 -0.0243 -0.0682 -0.0058
  363loPI   C2B 5806   6.278  16.672  10.482  0.0953 -0.1801 -0.1494
  363loPI   C3B 5807   6.246  16.656  10.023  0.0762  0.1764 -0.1642
  363loPI   C4B 5808   6.223  16.711   9.587  0.0704 -0.0145 -0.1806
  364loPI    C1 5809  15.638  11.474  11.549 -0.2700 -0.0931 -0.3353
  364loPI    C2 5810  15.349  11.741  11.477 -0.0503  0.2459  0.0007
  364loPI    C3 5811  15.254  11.364  11.570 -0.3742  0.2875 -0.1449
  364loPI   PO4 5812  15.857  11.460  11.348 -0.0597  0.0828 -0.0048
  364loPI   GL1 5813  15.948  11.318  10.956 -0.0718  0.0128  0.1608
  364loPI   GL2 5814  15.855  11.063  10.878  0.0991 -0.0797 -0.0724
  364loPI   C1A 5815  16.330  11.249  10.744  0.0670  0.1213 -0.1711
  364loPI   C2A 5816  16.472  11.157  10.335  0.2513 -0.1194  0.2424
  364loPI   C3A 5817  16.470  11.207   9.929  0.1636  0.1520 -0.0018
  364loPI   C4A 5818  16.303  11.293   9.490 -0.1021 -0.0721  0.0298
  364loPI   C5A 5819  16.326  11.324   9.076 -0.1471  0.0579  0.1679
  364loPI   C6A 5820  16.383  11.614   8.812  0.2208  0.0920  0.0399
  364loPI   C1B 5821  15.957  11.137  10.438  0.1172 -0.1373 -0.3238
  364loPI   C2B 5822  15.910  11.096   9.989 -0.0975  0.1619  0.0748
  364loPI   C3B 5823  15.838  11.154   9.509 -0.2201 -0.0058 -0.2304
  364loPI   C4B 5824  15.720  11.242   9.136  0.0534  0.2464 -0.2054
  365loPI    C1 5825   5.471   5.317  11.786  0.0337  0.1025  0.0284
  365loPI    C2 5826   5.509   4.988  12.010  0.0446  0.0990  0.0214
  365loPI    C3 5827   5.584   5.347  12.169  0.0998  0.0926  0.0098
  365loPI   PO4 5828   5.512   5.155  11.512 -0.3628 -0.0775 -0.0341
  365loPI   GL1 5829   5.643   5.155  11.067 -0.2020 -0.4140 -0.0466
  365loPI   GL2 5830   5.754   5.419  10.916  0.0941  0.0591 -0.0560
  365loPI   C1A 5831   5.720   4.941  10.774  0.0981  0.2319  0.2949
  365loPI   C2A 5832   5.613   4.861  10.308 -0.0090  0.1181 -0.0184
  365loPI   C3A 5833   5.624   4.748   9.905  0.1454 -0.0452 -0.0954
  365loPI   C4A 5834   5.701   4.845   9.574  0.0138 -0.0523  0.0118
  365loPI   C5A 5835   5.782   4.664   9.220 -0.0924  0.0683  0.0641
  365loPI   C6A 5836   6.073   4.364   8.964  0.0143  0.0302  0.0690
  365loPI   C1B 5837   5.848   5.370  10.447  0.0375  0.1396 -0.1068
  365loPI   C2B 5838   5.848   5.302   9.986 -0.0550  0.1238  0.2187
  365loPI   C3B 5839   5.763   5.347   9.608  0.3982 -0.1057  0.0831
  365loPI   C4B 5840   5.750   5.453   9.212 -0.1407 -0.3151  0.0101
  366loPI    C1 5841  15.793  12.549  11.799 -0.1145 -0.1875 -0.0499
  366loPI    C2 5842  15.972  12.343  12.092 -0.1160 -0.1939 -0.0534
  366loPI    C3 5843  15.887  12.731  12.143  0.2081 -0.1030 -0.1788
  366loPI   PO4 5844  15.552  12.366  11.732 -0.1362 -0.0205  0.1295
  366loPI   GL1 5845  15.442  12.203  11.337  0.0774 -0.0664  0.3626
  366loPI   GL2 5846  15.708  12.039  11.073  0.1563  0.3392 -0.0840
  366loPI   C1A 5847  15.310  12.373  10.900  0.1805  0.1745 -0.0364
  366loPI   C2A 5848  15.305  12.422  10.454  0.4615  0.2413  0.0357
  366loPI   C3A 5849  15.274  12.427  10.040 -0.1674 -0.2162  0.0634
  366loPI   C4A 5850  15.281  12.419   9.545 -0.0176  0.1328  0.0959
  366loPI   C5A 5851  15.014  12.444   9.187 -0.0142 -0.3009 -0.0233
  366loPI   C6A 5852  14.749  12.619   8.858 -0.0008 -0.1072 -0.1395
  366loPI   C1B 5853  15.650  12.061  10.630 -0.0040  0.3027 -0.1422
  366loPI   C2B 5854  15.673  12.071  10.127  0.1218  0.0060 -0.0898
  366loPI   C3B 5855  15.602  12.014   9.690  0.0776 -0.1308  0.0439
  366loPI   C4B 5856  15.600  12.047   9.275  0.0351  0.2457  0.2094
  367loPI    C1 5857  16.428   3.426  11.417 -0.1737 -0.1523 -0.0543
  367loPI    C2 5858  16.394   3.155  11.709  0.0376  0.0094  0.1229
  367loPI    C3 5859  16.160   3.479  11.709  0.1687  0.1056  0.2219
  367loPI   PO4 5860  16.416   3.250  11.168 -0.1013  0.2469 -0.1537
  367loPI   GL1 5861  16.550   3.310  10.760  0.1536 -0.3781  0.0395
  367loPI   GL2 5862  16.135   3.315  10.740  0.1945 -0.0611 -0.1006
  367loPI   C1A 5863  16.668   3.403  10.297 -0.2890 -0.0193  0.0644
  367loPI   C2A 5864  16.749   3.334   9.859 -0.0299 -0.0991 -0.2222
  367loPI   C3A 5865  16.792   3.450   9.416  0.0663  0.1326  0.2259
  367loPI   C4A 5866  16.785   3.346   9.035 -0.0877  0.1130 -0.1458
  367loPI   C5A 5867  17.047   3.583   8.736  0.3792 -0.1060 -0.1363
  367loPI   C6A 5868  17.510   3.698   8.879  0.1390  0.2842 -0.1431
  367loPI   C1B 5869  16.160   3.369  10.203  0.2636  0.0932  0.0249
  367loPI   C2B 5870  16.219   3.360   9.736  0.0238  0.0187  0.0470
  367loPI   C3B 5871  16.303   3.328   9.354  0.3508 -0.0048 -0.3722
  367loPI   C4B 5872  16.263   3.438   8.989  0.1539  0.0372 -0.0766
  368loPI    C1 5873   5.631  15.838  11.900  0.0042  0.0088  0.1694
  368loPI    C2 5874   5.532  16.208  12.016  0.1188  0.0993 -0.0163
  368loPI    C3 5875   5.787  15.991  12.235  0.1979  0.2021 -0.0060
  368loPI   PO4 5876   5.629  15.844  11.606 -0.0486  0.1042  0.3308
  368loPI   GL1 5877   5.686  15.699  11.227 -0.1631 -0.2803  0.0556
  368loPI   GL2 5878   5.887  15.580  11.181 -0.1162  0.2564 -0.1131
  368loPI   C1A 5879   5.626  16.025  10.997  0.1628 -0.3024  0.0844
  368loPI   C2A 5880   5.575  15.994  10.522  0.0488 -0.1771 -0.1828
  368loPI   C3A 5881   5.626  15.977  10.070 -0.0028 -0.1009  0.2562
  368loPI   C4A 5882   5.583  16.071   9.652  0.1713  0.1543  0.0995
  368loPI   C5A 5883   5.498  15.999   9.205 -0.1111  0.0875 -0.2030
  368loPI   C6A 5884   5.532  15.651   8.943 -0.0906 -0.2245 -0.1208
  368loPI   C1B 5885   5.990  15.545  10.783  0.0742 -0.3262 -0.2980
  368loPI   C2B 5886   5.998  15.634  10.404 -0.3269  0.0069 -0.0879
  368loPI   C3B 5887   5.977  15.644  10.069  0.0464  0.3070 -0.1696
  368loPI   C4B 5888   5.885  15.694   9.627 -0.0437 -0.1256  0.0113
  369loPI    C1 5889  12.011  16.150  11.485 -0.2483  0.0500  0.1835
  369loPI    C2 5890  12.124  16.468  11.699  0.1520  0.1484 -0.1603
  369loPI    C3 5891  12.315  16.119  11.742  0.1392  0.1303 -0.2502
  369loPI   PO4 5892  12.008  16.224  11.203  0.1410 -0.1159 -0.1939
  369loPI   GL1 5893  12.042  16.032  10.854 -0.1681  0.0048 -0.2412
  369loPI   GL2 5894  12.248  16.327  10.713  0.0271 -0.0550  0.0662
  369loPI   C1A 5895  12.200  15.842  10.431  0.1048  0.0405  0.2173
  369loPI   C2A 5896  12.249  15.768   9.997  0.1883  0.0585  0.0961
  369loPI   C3A 5897  12.136  15.722   9.566 -0.0716  0.0699  0.1069
  369loPI   C4A 5898  12.191  15.793   9.154  0.1117 -0.1677 -0.0027
  369loPI   C5A 5899  11.987  15.474   8.936  0.1610  0.0438 -0.0630
  369loPI   C6A 5900  11.824  15.334   8.522  0.0381  0.0526  0.0771
  369loPI   C1B 5901  12.306  16.297  10.238  0.0222  0.0212  0.0652
  369loPI   C2B 5902  12.283  16.223   9.913 -0.0359 -0.2425  0.0129
  369loPI   C3B 5903  12.281  16.236   9.521  0.1608 -0.0500 -0.2511
  369loPI   C4B 5904  12.301  16.236   8.990  0.1828 -0.1364 -0.1587
  370loPI    C1 5905   1.932   2.039  11.891  0.2331 -0.0061  0.0718
  370loPI    C2 5906   2.322   2.078  11.810  0.2369 -0.0544  0.0670
  370loPI    C3 5907   2.187   2.152  12.179  0.2832 -0.2448  0.1238
  370loPI   PO4 5908   1.852   2.154  11.612 -0.0520 -0.0389 -0.1665
  370loPI   GL1 5909   1.758   2.209  11.196  0.1486 -0.1134  0.2429
  370loPI   GL2 5910   2.018   2.232  11.001 -0.3058  0.0435 -0.1698
  370loPI   C1A 5911   1.536   2.022  10.827  0.1674 -0.4141 -0.1237
  370loPI   C2A 5912   1.398   2.047  10.407  0.0064 -0.0492  0.2690
  370loPI   C3A 5913   1.407   2.130  10.035 -0.1414  0.2656 -0.0644
  370loPI   C4A 5914   1.362   1.996   9.559  0.0556 -0.0914  0.1288
  370loPI   C5A 5915   1.379   1.977   9.118  0.0642  0.1341  0.1156
  370loPI   C6A 5916   1.612   2.181   8.872 -0.0155  0.0947 -0.1766
  370loPI   C1B 5917   1.995   2.087  10.615  0.1798 -0.3418  0.1314
  370loPI   C2B 5918   1.987   2.248  10.242  0.0464  0.1072  0.0999
  370loPI   C3B 5919   1.891   2.171   9.807 -0.2906 -0.0826  0.2935
  370loPI   C4B 5920   1.870   2.083   9.331  0.0699  0.0643 -0.2865
  371loPI    C1 5921  15.952  15.752  11.743  0.0094  0.2657 -0.0923
  371loPI    C2 5922  15.738  15.775  12.080  0.0056 -0.0224 -0.0730
  371loPI    C3 5923  16.134  15.720  12.098  0.0165  0.0423 -0.1146
  371loPI   PO4 5924  15.899  15.642  11.508  0.3729 -0.0085 -0.0585
  371loPI   GL1 5925  16.005  15.776  11.146 -0.0516  0.0679 -0.2104
  371loPI   GL2 5926  16.343  15.894  11.035  0.0408  0.0580 -0.4532
  371loPI   C1A 5927  15.957  15.818  10.686 -0.0577  0.0566 -0.3895
  371loPI   C2A 5928  15.899  15.777  10.208  0.1088  0.2761  0.0422
  371loPI   C3A 5929  15.837  15.813   9.772 -0.1157  0.1883 -0.0578
  371loPI   C4A 5930  15.780  15.767   9.383  0.1994 -0.0576 -0.0937
  371loPI   C5A 5931  15.913  15.713   8.967 -0.0021 -0.2653  0.0860
  371loPI   C6A 5932  16.084  15.726   8.524 -0.3546 -0.2329 -0.2730
  371loPI   C1B 5933  16.448  15.960  10.592 -0.1598 -0.0756  0.2073
  371loPI   C2B 5934  16.345  15.882  10.192  0.1728  0.1123 -0.1101
  371loPI   C3B 5935  16.301  15.990   9.686 -0.4034  0.1310 -0.2457
  371loPI   C4B 5936  16.366  15.906   9.281 -0.3088 -0.0711  0.0928
  372loPI    C1 5937  10.102  10.765  11.529 -0.0972  0.0376 -0.0464
  372loPI    C2 5938  10.055  11.096  11.309 -0.0642  0.3374  0.3854
  372loPI    C3 5939   9.916  11.084  11.684  0.0332 -0.1016  0.4121
  372loPI   PO4 5940  10.114  10.617  11.314 -0.1700  0.3211 -0.1369
  372loPI   GL1 5941  10.259  10.530  10.888 -0.0330  0.6320  0.1744
  372loPI   GL2 5942  10.339  10.230  10.749  0.2459  0.1601  0.1081
  372loPI   C1A 5943  10.113  10.741  10.551  0.0638  0.0397  0.0144
  372loPI   C2A 5944  10.082  10.667  10.133 -0.1641 -0.0115 -0.0358
  372loPI   C3A 5945  10.117  10.649   9.645  0.0741 -0.0318  0.1338
  372loPI   C4A 5946  10.034  10.625   9.241 -0.1022 -0.4275 -0.0839
  372loPI   C5A 5947   9.955  10.428   8.891 -0.1730 -0.0037 -0.0354
  372loPI   C6A 5948   9.855   9.987   8.753  0.0906  0.0955 -0.1358
  372loPI   C1B 5949  10.423  10.345  10.312  0.0694 -0.0552  0.1674
  372loPI   C2B 5950  10.358  10.217   9.887  0.0625 -0.2141  0.0155
  372loPI   C3B 5951  10.436  10.210   9.508 -0.0631 -0.1443 -0.0530
  372loPI   C4B 5952  10.390  10.131   9.055  0.2252  0.1473  0.0388
  373loPI    C1 5953  16.223   9.773  11.787  0.1914 -0.1020  0.0884
  373loPI    C2 5954  16.279   9.554  12.117 -0.2216 -0.2289  0.0795
  373loPI    C3 5955  16.008   9.848  12.116 -0.1652 -0.1761 -0.1229
  373loPI   PO4 5956  16.356   9.548  11.567 -0.2236 -0.0164  0.3144
  373loPI   GL1 5957  16.644   9.427  11.271 -0.0715 -0.1159  0.2394
  373loPI   GL2 5958  16.640   9.697  11.106  0.0734 -0.1187  0.1898
  373loPI   C1A 5959  16.628   9.003  10.979  0.3192 -0.0531  0.2926
  373loPI   C2A 5960  16.613   8.955  10.548 -0.2357  0.0708 -0.1602
  373loPI   C3A 5961  16.601   9.005  10.197 -0.1151 -0.1680  0.0925
  373loPI   C4A 5962  16.599   8.994   9.707  0.0106 -0.0057 -0.0946
  373loPI   C5A 5963  16.787   8.948   9.334  0.0380 -0.0147 -0.1926
  373loPI   C6A 5964  16.811   8.877   8.807  0.0153 -0.0255 -0.0464
  373loPI   C1B 5965  16.493   9.871  10.752 -0.0858 -0.0320 -0.0438
  373loPI   C2B 5966  16.518   9.900  10.315 -0.1819  0.1289 -0.0238
  373loPI   C3B 5967  16.443   9.803   9.938 -0.2991  0.0333 -0.1534
  373loPI   C4B 5968  16.334   9.901   9.505  0.0443 -0.3420  0.1189
  374loPI    C1 5969   6.916   0.803  11.671  0.1213 -0.0375  0.1680
  374loPI    C2 5970   7.127   0.984  11.958  0.1110 -0.1575  0.2524
  374loPI    C3 5971   6.875   0.689  12.052 -0.0581 -0.0489  0.1462
  374loPI   PO4 5972   6.904   0.986  11.492 -0.1701 -0.0223  0.1670
  374loPI   GL1 5973   7.127   1.109  11.141  0.3679  0.3619  0.1979
  374loPI   GL2 5974   6.897   1.377  11.115  0.1590 -0.0177  0.1766
  374loPI   C1A 5975   7.274   0.856  10.863 -0.0697  0.3293  0.1194
  374loPI   C2A 5976   7.283   0.905  10.402 -0.1890  0.0640  0.1638
  374loPI   C3A 5977   7.240   0.945  10.004 -0.1352  0.3227  0.0464
  374loPI   C4A 5978   7.128   0.880   9.639 -0.0583 -0.0180  0.1301
  374loPI   C5A 5979   7.112   0.872   9.186  0.0827  0.0788 -0.0285
  374loPI   C6A 5980   7.247   0.809   8.744 -0.0811  0.2065  0.0961
  374loPI   C1B 5981   6.941   1.255  10.650 -0.0883  0.0012 -0.2580
  374loPI   C2B 5982   6.958   1.347  10.230 -0.3091 -0.1109  0.1316
  374loPI   C3B 5983   6.863   1.440   9.706  0.1777  0.0442  0.0546
  374loPI   C4B 5984   6.878   1.388   9.240 -0.0178 -0.1273  0.0295
  375loPI    C1 5985   1.078  13.014  11.873  0.1197 -0.0452  0.0441
  375loPI    C2 5986   1.402  12.954  12.100  0.1070 -0.0206  0.0687
  375loPI    C3 5987   1.037  12.897  12.253  0.0958  0.0877  0.0830
  375loPI   PO4 5988   1.183  12.905  11.624 -0.2070 -0.0867  0.0564
  375loPI   GL1 5989   1.155  12.877  11.218 -0.4110  0.2035 -0.2895
  375loPI   GL2 5990   1.142  13.198  11.230 -0.1547  0.0099  0.1012
  375loPI   C1A 5991   1.250  12.811  10.859 -0.2470 -0.2212  0.0076
  375loPI   C2A 5992   1.416  12.788  10.501 -0.1274  0.0251  0.1882
  375loPI   C3A 5993   1.386  12.787  10.083 -0.1168  0.1061 -0.0074
  375loPI   C4A 5994   1.440  12.657   9.774 -0.0372 -0.2454 -0.1335
  375loPI   C5A 5995   1.305  12.564   9.347 -0.4138  0.1413  0.1595
  375loPI   C6A 5996   1.319  12.854   8.922 -0.1190  0.0039 -0.1084
  375loPI   C1B 5997   0.976  13.257  10.837 -0.1323  0.0143  0.0357
  375loPI   C2B 5998   0.989  13.089  10.464  0.0353  0.1726  0.0133
  375loPI   C3B 5999   1.002  13.121  10.132 -0.1036  0.0446  0.2180
  375loPI   C4B 6000   1.072  13.161   9.743  0.0372 -0.0069 -0.2924
  376loPI    C1 6001  14.460   7.882  11.575  0.0314  0.0468  0.1419
  376loPI    C2 6002  14.586   7.522  11.454 -0.0896  0.0579 -0.0194
  376loPI    C3 6003  14.375   7.557  11.792 -0.1860 -0.0398 -0.0690
  376loPI   PO4 6004  14.413   7.991  11.409  0.1042 -0.1696  0.1381
  376loPI   GL1 6005  14.323   8.201  11.124  0.1579 -0.1251  0.1065
  376loPI   GL2 6006  14.062   8.138  11.043  0.4316  0.2752  0.0312
  376loPI   C1A 6007  14.195   8.497  10.786  0.1361  0.2266  0.1465
  376loPI   C2A 6008  14.103   8.530  10.321  0.1285  0.1023 -0.2463
  376loPI   C3A 6009  14.151   8.518   9.898 -0.0894  0.0041  0.0437
  376loPI   C4A 6010  14.172   8.508   9.484 -0.0619  0.2330  0.0064
  376loPI   C5A 6011  14.209   8.574   9.034  0.0966  0.1487  0.0528
  376loPI   C6A 6012  14.401   8.501   8.548  0.1365  0.2210 -0.0803
  376loPI   C1B 6013  13.936   7.995  10.610  0.2386  0.1800  0.0782
  376loPI   C2B 6014  13.903   8.096  10.159  0.2961  0.1248  0.0649
  376loPI   C3B 6015  14.009   8.025   9.799  0.1384  0.3601 -0.1049
  376loPI   C4B 6016  14.074   8.047   9.377  0.0463 -0.0042 -0.2703
  377loPI    C1 6017  12.498  12.970  11.779 -0.1406 -0.0255 -0.0757
  377loPI    C2 6018  12.282  13.285  11.897  0.1738  0.0966  0.1924
  377loPI    C3 6019  12.359  12.988  12.153  0.1784 -0.0297  0.0465
  377loPI   PO4 6020  12.333  12.891  11.577 -0.0133 -0.1802  0.1756
  377loPI   GL1 6021  12.296  12.929  11.146 -0.0410 -0.3266 -0.1223
  377loPI   GL2 6022  12.452  12.634  11.124  0.0435  0.2309  0.1882
  377loPI   C1A 6023  12.186  13.047  10.735 -0.0255 -0.0729  0.1090
  377loPI   C2A 6024  12.234  13.035  10.337  0.0460  0.0131  0.1523
  377loPI   C3A 6025  12.174  13.094   9.985  0.1793 -0.1037 -0.3829
  377loPI   C4A 6026  12.125  13.026   9.558  0.2056 -0.2021  0.0884
  377loPI   C5A 6027  12.288  13.037   9.163  0.1593 -0.0603 -0.1880
  377loPI   C6A 6028  12.601  13.254   8.869 -0.2173  0.3208  0.2431
  377loPI   C1B 6029  12.538  12.735  10.657 -0.0281  0.0785 -0.1054
  377loPI   C2B 6030  12.622  12.709  10.235 -0.2404 -0.1069 -0.0221
  377loPI   C3B 6031  12.568  12.635   9.824 -0.0794  0.2242 -0.0944
  377loPI   C4B 6032  12.508  12.683   9.437  0.0162  0.0281 -0.2993
  378loPI    C1 6033  12.370  14.788  11.656 -0.1022 -0.0908 -0.0114
  378loPI    C2 6034  12.676  14.550  11.753 -0.0521  0.0128  0.0855
  378loPI    C3 6035  12.396  14.636  12.025 -0.1617 -0.0729  0.0002
  378loPI   PO4 6036  12.273  14.692  11.442 -0.0707 -0.1145 -0.1807
  378loPI   GL1 6037  12.157  14.808  11.139 -0.1174  0.2872  0.4674
  378loPI   GL2 6038  12.354  14.931  10.918 -0.1274  0.1070  0.2349
  378loPI   C1A 6039  12.136  14.571  10.697  0.1122  0.2920 -0.2603
  378loPI   C2A 6040  12.149  14.495  10.240 -0.3061  0.0856 -0.1529
  378loPI   C3A 6041  12.111  14.438   9.807  0.0773  0.0282  0.0171
  378loPI   C4A 6042  12.143  14.347   9.430  0.4918  0.0161  0.2138
  378loPI   C5A 6043  12.209  14.411   9.012  0.3002 -0.0489  0.0642
  378loPI   C6A 6044  12.591  14.588   8.838  0.0779 -0.2591  0.1661
  378loPI   C1B 6045  12.413  14.905  10.483 -0.2395  0.0184 -0.1715
  378loPI   C2B 6046  12.418  14.874  10.033 -0.0961 -0.1525  0.0340
  378loPI   C3B 6047  12.271  14.915   9.666 -0.1641  0.0875  0.1089
  378loPI   C4B 6048  12.342  14.862   9.225 -0.2911  0.1015 -0.3780
  379loPI    C1 6049  11.501   0.137  11.728  0.0518 -0.0466  0.0911
  379loPI    C2 6050  11.789   0.338  11.920  0.1902  0.0083 -0.1689
  379loPI    C3 6051  11.721  -0.046  12.007  0.2110  0.0487  0.0295
  379loPI   PO4 6052  11.522   0.272  11.442  0.1306  0.0225  0.1936
  379loPI   GL1 6053  11.417   0.594  11.079 -0.0434 -0.2807  0.2123
  379loPI   GL2 6054  11.736   0.608  11.118  0.1198 -0.1806 -0.3602
  379loPI   C1A 6055  11.444   0.556  10.659  0.1695  0.3156 -0.0007
  379loPI   C2A 6056  11.406   0.597  10.244 -0.1368 -0.1890  0.2397
  379loPI   C3A 6057  11.349   0.591   9.805 -0.1886 -0.0206 -0.3081
  379loPI   C4A 6058  11.334   0.495   9.355 -0.0287 -0.0433  0.0280
  379loPI   C5A 6059  11.321   0.540   8.891  0.0212  0.4655 -0.2261
  379loPI   C6A 6060  11.541   0.690   8.550 -0.0137  0.2814  0.1203
  379loPI   C1B 6061  11.938   0.773  10.728  0.1293 -0.0277 -0.0878
  379loPI   C2B 6062  11.886   0.762  10.303  0.0169  0.0046  0.2105
  379loPI   C3B 6063  11.884   0.646   9.909  0.0223  0.2923  0.0341
  379loPI   C4B 6064  11.878   0.734   9.486  0.1255 -0.0616 -0.0503
  380loPI    C1 6065   0.921   3.965  11.787  0.2355 -0.1887  0.4404
  380loPI    C2 6066   1.185   4.262  11.735  0.1412 -0.1649  0.0716
  380loPI    C3 6067   0.898   4.295  12.012  0.0238  0.1671 -0.0849
  380loPI   PO4 6068   0.820   3.896  11.548 -0.1155 -0.0760 -0.1020
  380loPI   GL1 6069   0.645   3.921  11.230 -0.1345 -0.1282  0.5010
  380loPI   GL2 6070   0.673   3.750  11.054 -0.2129 -0.1135 -0.0343
  380loPI   C1A 6071   0.706   4.188  10.812  0.1035  0.0393  0.3264
  380loPI   C2A 6072   0.697   4.233  10.431  0.0274 -0.0950  0.0815
  380loPI   C3A 6073   0.693   4.278   9.955 -0.0718 -0.1927 -0.1968
  380loPI   C4A 6074   0.551   4.242   9.609 -0.0186  0.2501 -0.0316
  380loPI   C5A 6075   0.633   4.003   9.257 -0.0524  0.0894 -0.2113
  380loPI   C6A 6076   0.696   3.592   9.044 -0.1144  0.4068 -0.0654
  380loPI   C1B 6077   0.574   3.730  10.669  0.1142 -0.0093  0.0466
  380loPI   C2B 6078   0.572   3.701  10.295 -0.0185 -0.0046  0.2403
  380loPI   C3B 6079   0.514   3.835   9.893 -0.1169  0.0516 -0.0612
  380loPI   C4B 6080   0.394   3.592   9.486  0.0430  0.1568 -0.0200
  381loPI    C1 6081   9.773   2.400  11.758 -0.0065  0.0271  0.0168
  381loPI    C2 6082   9.796   2.610  12.097  0.0023  0.1670 -0.0695
  381loPI    C3 6083   9.977   2.254  12.069 -0.0645  0.1190  0.0984
  381loPI   PO4 6084   9.880   2.510  11.562  0.0715 -0.0297 -0.1466
  381loPI   GL1 6085   9.933   2.717  11.199 -0.0108  0.3257 -0.0272
  381loPI   GL2 6086  10.055   2.348  11.069 -0.1417 -0.1995 -0.0471
  381loPI   C1A 6087   9.647   2.766  10.904  0.2281 -0.0540  0.1383
  381loPI   C2A 6088   9.593   2.823  10.407  0.1246 -0.0098 -0.5356
  381loPI   C3A 6089   9.688   2.814   9.988  0.1906 -0.2213  0.0196
  381loPI   C4A 6090   9.686   2.983   9.598 -0.0866 -0.1948  0.1399
  381loPI   C5A 6091   9.838   3.145   9.229 -0.1829 -0.1406  0.2181
  381loPI   C6A 6092  10.064   3.370   9.138 -0.1365  0.1658  0.3494
  381loPI   C1B 6093  10.093   2.459  10.638  0.0390 -0.0816  0.1706
  381loPI   C2B 6094   9.962   2.493  10.271  0.0245 -0.0590 -0.0327
  381loPI   C3B 6095  10.043   2.526   9.806  0.0527  0.2694  0.0267
  381loPI   C4B 6096   9.983   2.627   9.372 -0.2215  0.2725 -0.1011
  382loPI    C1 6097  15.212   5.393  11.543  0.0527 -0.1152 -0.0313
  382loPI    C2 6098  15.233   4.996  11.584 -0.0474 -0.1065  0.1164
  382loPI    C3 6099  15.231   5.230  11.908 -0.1646  0.0054  0.0360
  382loPI   PO4 6100  15.166   5.415  11.338  0.2858 -0.1246  0.2829
  382loPI   GL1 6101  15.016   5.571  10.918 -0.3088 -0.0539 -0.3843
  382loPI   GL2 6102  15.020   5.232  10.879  0.0869  0.0844  0.1743
  382loPI   C1A 6103  15.145   5.775  10.685 -0.1790 -0.3343 -0.1146
  382loPI   C2A 6104  15.103   5.812  10.234 -0.2824  0.0022 -0.0211
  382loPI   C3A 6105  15.238   5.952   9.735  0.2734 -0.1115 -0.1560
  382loPI   C4A 6106  14.910   5.930   9.382  0.0213 -0.2917  0.2021
  382loPI   C5A 6107  14.790   6.222   9.076 -0.0183 -0.0199 -0.1519
  382loPI   C6A 6108  14.925   6.461   8.684 -0.0734 -0.4407  0.1621
  382loPI   C1B 6109  14.998   5.292  10.433 -0.0417  0.4298  0.0079
  382loPI   C2B 6110  15.024   5.205  10.054  0.0665 -0.1190  0.0315
  382loPI   C3B 6111  14.987   5.458   9.612  0.2599  0.0269 -0.0063
  382loPI   C4B 6112  14.922   5.223   9.254 -0.2098 -0.1654 -0.2110
  383loPI    C1 6113  10.555  16.965  11.477  0.0082 -0.0092  0.0762
  383loPI    C2 6114  10.888  17.180  11.530  0.0045  0.0263 -0.0411
  383loPI    C3 6115  10.826  16.850  11.747  0.0940  0.0455  0.0143
  383loPI   PO4 6116  10.531  16.975  11.257  0.0322  0.2055 -0.1357
  383loPI   GL1 6117  10.530  17.126  10.940 -0.1506  0.0037  0.0247
  383loPI   GL2 6118  10.676  17.411  10.981 -0.0106  0.2111 -0.0612
  383loPI   C1A 6119  10.425  16.865  10.575  0.0614 -0.0811  0.2345
  383loPI   C2A 6120  10.390  16.786  10.141 -0.0772 -0.0677  0.1925
  383loPI   C3A 6121  10.541  16.774   9.774  0.1304 -0.1080  0.2143
  383loPI   C4A 6122  10.541  16.743   9.351 -0.3739 -0.0175  0.0234
  383loPI   C5A 6123  10.748  16.622   8.887  0.0415  0.2356 -0.2103
  383loPI   C6A 6124  11.183  16.575   8.659  0.0024 -0.0893  0.1186
  383loPI   C1B 6125  10.894  17.285  10.605  0.1471  0.0737  0.1495
  383loPI   C2B 6126  10.774  17.083  10.222 -0.0092  0.0668  0.1977
  383loPI   C3B 6127  10.699  17.223   9.722 -0.0303 -0.0412  0.2936
  383loPI   C4B 6128  10.776  17.233   9.208 -0.1828  0.2867 -0.0787
  384loPI    C1 6129   2.466  15.681  12.005  0.1449  0.0832 -0.0189
  384loPI    C2 6130   2.433  15.291  11.926  0.1878  0.0769 -0.0055
  384loPI    C3 6131   2.461  15.416  12.305 -0.0127  0.1071  0.0005
  384loPI   PO4 6132   2.333  15.772  11.738  0.1335  0.0367  0.3507
  384loPI   GL1 6133   2.259  15.687  11.364 -0.0400 -0.1379 -0.1305
  384loPI   GL2 6134   2.432  15.800  11.149  0.2529 -0.2371 -0.0888
  384loPI   C1A 6135   2.205  15.312  11.002 -0.1601 -0.1394  0.0417
  384loPI   C2A 6136   2.110  15.306  10.538  0.0874 -0.0267  0.0262
  384loPI   C3A 6137   2.073  15.260  10.089  0.0903 -0.2383  0.0410
  384loPI   C4A 6138   2.107  15.308   9.635 -0.1279 -0.0378 -0.0879
  384loPI   C5A 6139   1.978  15.294   9.229 -0.2223 -0.0386 -0.0791
  384loPI   C6A 6140   2.041  15.001   8.892  0.1928  0.0959  0.1303
  384loPI   C1B 6141   2.245  15.769  10.730  0.0506  0.1001  0.2734
  384loPI   C2B 6142   2.246  15.721  10.247  0.1332  0.3235  0.1023
  384loPI   C3B 6143   2.209  15.769   9.810 -0.0117  0.1089  0.2355
  384loPI   C4B 6144   2.123  15.764   9.411  0.1557  0.0417 -0.0733
  385loPI    C1 6145  13.193  11.318  12.026 -0.2183 -0.0566 -0.1204
  385loPI    C2 6146  13.040  11.383  12.390  0.1293 -0.0815  0.0350
  385loPI    C3 6147  13.119  11.009  12.270  0.1610 -0.0620 -0.0051
  385loPI   PO4 6148  13.085  11.303  11.833 -0.0513  0.0305  0.0439
  385loPI   GL1 6149  13.085  11.196  11.385  0.0447  0.0524  0.0176
  385loPI   GL2 6150  12.961  10.955  11.248  0.1192 -0.0937  0.0322
  385loPI   C1A 6151  13.133  11.492  11.056 -0.0792 -0.2723  0.3143
  385loPI   C2A 6152  13.193  11.444  10.636  0.2810 -0.2175 -0.0225
  385loPI   C3A 6153  13.094  11.439  10.104 -0.2249 -0.1441 -0.2071
  385loPI   C4A 6154  13.031  11.519   9.666 -0.2205  0.0676 -0.0387
  385loPI   C5A 6155  13.106  11.477   9.224  0.2106  0.2345 -0.2833
  385loPI   C6A 6156  13.149  11.337   8.723 -0.1624 -0.2350 -0.3107
  385loPI   C1B 6157  13.064  10.967  10.883 -0.0413 -0.1746  0.0466
  385loPI   C2B 6158  13.012  11.003  10.397  0.0339 -0.1370 -0.1127
  385loPI   C3B 6159  12.963  11.002   9.902 -0.0035  0.1638  0.0642
  385loPI   C4B 6160  12.913  11.020   9.408 -0.2196  0.1177 -0.3847
  386loPI    C1 6161   3.504   2.762  11.793 -0.0764 -0.1971 -0.0975
  386loPI    C2 6162   3.105   2.768  11.827 -0.0960 -0.2158 -0.3066
  386loPI    C3 6163   3.320   2.499  12.032 -0.1772 -0.1070 -0.0753
  386loPI   PO4 6164   3.585   2.687  11.589  0.0233 -0.1658 -0.0516
  386loPI   GL1 6165   3.616   2.484  11.148  0.0032 -0.1766  0.1385
  386loPI   GL2 6166   3.483   2.280  11.155  0.0661  0.1439 -0.2451
  386loPI   C1A 6167   3.498   2.522  10.716  0.3640 -0.2043 -0.2798
  386loPI   C2A 6168   3.549   2.535  10.326 -0.0419  0.1245  0.0075
  386loPI   C3A 6169   3.507   2.526   9.878 -0.0636 -0.2747  0.1804
  386loPI   C4A 6170   3.423   2.466   9.466  0.2000 -0.0431  0.0861
  386loPI   C5A 6171   3.687   2.249   9.225  0.0866 -0.2394  0.2409
  386loPI   C6A 6172   3.907   1.939   8.971 -0.1864  0.1587  0.2645
  386loPI   C1B 6173   3.388   2.052  10.823 -0.3443  0.0825  0.1040
  386loPI   C2B 6174   3.468   1.959  10.314 -0.1461  0.0312 -0.3779
  386loPI   C3B 6175   3.303   2.065   9.934 -0.1831 -0.1355 -0.3927
  386loPI   C4B 6176   3.187   2.001   9.524 -0.1387 -0.0671 -0.0206
  387loPI    C1 6177   7.980  10.302  11.698 -0.1388 -0.1470  0.0988
  387loPI    C2 6178   8.307  10.394  11.487 -0.1635 -0.1623  0.0536
  387loPI    C3 6179   8.200  10.619  11.800 -0.0312 -0.2395  0.1555
  387loPI   PO4 6180   7.849  10.258  11.497  0.1433  0.1465  0.0868
  387loPI   GL1 6181   8.067  10.121  11.097  0.4818  0.3352 -0.0567
  387loPI   GL2 6182   8.124   9.740  11.013 -0.3071  0.0327  0.0009
  387loPI   C1A 6183   8.094  10.164  10.617 -0.2239  0.1509  0.1002
  387loPI   C2A 6184   8.110  10.139  10.174  0.1528 -0.0163 -0.0830
  387loPI   C3A 6185   8.064  10.174   9.776  0.1805 -0.0338  0.3192
  387loPI   C4A 6186   8.118  10.182   9.350  0.0947  0.3802  0.0186
  387loPI   C5A 6187   7.799  10.096   8.976 -0.0169 -0.3645 -0.1158
  387loPI   C6A 6188   7.397  10.024   8.652  0.3715  0.3445  0.0647
  387loPI   C1B 6189   8.000   9.696  10.577 -0.0604  0.3434  0.1798
  387loPI   C2B 6190   7.840   9.654  10.178  0.0062  0.1344  0.1227
  387loPI   C3B 6191   7.873   9.697   9.754  0.0967 -0.3179  0.0795
  387loPI   C4B 6192   7.840   9.743   9.357 -0.0512  0.1444  0.4336
  388loPI    C1 6193  15.165   3.132  11.480  0.0437  0.2543  0.2329
  388loPI    C2 6194  15.480   3.167  11.724  0.1489 -0.3696  0.2013
  388loPI    C3 6195  15.288   2.817  11.694 -0.2737 -0.1193 -0.1184
  388loPI   PO4 6196  15.218   3.225  11.269  0.0014  0.0573  0.2199
  388loPI   GL1 6197  14.987   3.448  10.989  0.0001  0.0960  0.0343
  388loPI   GL2 6198  14.869   3.708  10.929 -0.1595 -0.0523 -0.1312
  388loPI   C1A 6199  15.021   3.388  10.558 -0.0961 -0.1433 -0.0236
  388loPI   C2A 6200  14.881   3.365  10.143  0.0303 -0.2857  0.1834
  388loPI   C3A 6201  15.009   3.400   9.751  0.2233  0.1928 -0.0752
  388loPI   C4A 6202  14.978   3.485   9.408 -0.0505 -0.0041  0.1563
  388loPI   C5A 6203  14.990   3.429   9.008  0.0494 -0.0015 -0.2198
  388loPI   C6A 6204  15.376   3.363   8.732 -0.1063 -0.4386  0.1990
  388loPI   C1B 6205  14.662   3.712  10.565 -0.2592  0.1350  0.1608
  388loPI   C2B 6206  14.578   3.725  10.124 -0.4189  0.3335 -0.3982
  388loPI   C3B 6207  14.645   3.750   9.654  0.2421  0.4022  0.1805
  388loPI   C4B 6208  14.552   3.817   9.156  0.0046  0.0862  0.0715
  389loPI    C1 6209  15.346   1.276  11.602 -0.1378  0.2795  0.2439
  389loPI    C2 6210  15.538   1.418  11.923  0.1255 -0.2914  0.3519
  389loPI    C3 6211  15.337   1.073  11.946 -0.0540 -0.2189 -0.0385
  389loPI   PO4 6212  15.349   1.330  11.318 -0.0706  0.1278 -0.1468
  389loPI   GL1 6213  15.151   1.345  10.899 -0.1887 -0.2469 -0.0365
  389loPI   GL2 6214  15.276   1.669  10.821  0.3635  0.1281  0.0917
  389loPI   C1A 6215  15.252   1.115  10.580 -0.2691 -0.0223  0.0427
  389loPI   C2A 6216  15.286   1.120  10.139 -0.3433 -0.0104  0.0417
  389loPI   C3A 6217  15.185   1.084   9.727  0.2781 -0.0657 -0.0852
  389loPI   C4A 6218  15.214   1.050   9.294 -0.4102 -0.2561 -0.1204
  389loPI   C5A 6219  15.228   1.128   8.914 -0.0582 -0.1844 -0.0895
  389loPI   C6A 6220  15.142   1.036   8.482 -0.0624 -0.1486  0.2722
  389loPI   C1B 6221  15.431   1.629  10.353  0.0628  0.0017 -0.0789
  389loPI   C2B 6222  15.322   1.621   9.915  0.0055  0.2757 -0.2068
  389loPI   C3B 6223  15.253   1.549   9.442  0.4485  0.1400 -0.0079
  389loPI   C4B 6224  15.444   1.491   9.150 -0.0758  0.1582  0.0755
  390loPI    C1 6225  10.976  15.392  11.677  0.3017  0.1258  0.0126
  390loPI    C2 6226  10.682  15.651  11.757  0.1087 -0.0548 -0.0993
  390loPI    C3 6227  10.756  15.349  12.008  0.2290  0.0156 -0.0492
  390loPI   PO4 6228  10.913  15.339  11.393 -0.2380  0.0821  0.1894
  390loPI   GL1 6229  10.955  15.595  11.035 -0.0791  0.3466 -0.1840
  390loPI   GL2 6230  11.081  15.355  10.886  0.1759 -0.1614 -0.2476
  390loPI   C1A 6231  10.615  15.530  10.800 -0.1415  0.1047 -0.1726
  390loPI   C2A 6232  10.524  15.372  10.494  0.0931  0.0213 -0.0986
  390loPI   C3A 6233  10.532  15.357  10.019  0.0463  0.1800  0.2393
  390loPI   C4A 6234  10.582  15.351   9.628  0.5457  0.1044  0.1921
  390loPI   C5A 6235  10.652  15.237   9.221 -0.0262  0.0973  0.1040
  390loPI   C6A 6236  10.628  15.073   8.806  0.1178 -0.0405  0.1394
  390loPI   C1B 6237  11.046  15.483  10.399  0.0384 -0.0770  0.0813
  390loPI   C2B 6238  11.059  15.508   9.985  0.2202  0.1513  0.2413
  390loPI   C3B 6239  11.155  15.506   9.516  0.0830  0.3639  0.0757
  390loPI   C4B 6240  11.203  15.703   9.195 -0.1438  0.0568 -0.2494
  391loPI    C1 6241   6.344  16.778  11.880  0.1769 -0.2161 -0.0383
  391loPI    C2 6242   6.706  16.918  11.975  0.1032  0.0689 -0.1633
  391loPI    C3 6243   6.486  16.727  12.250  0.2794  0.0399 -0.0406
  391loPI   PO4 6244   6.340  16.957  11.621  0.2118  0.1935 -0.2330
  391loPI   GL1 6245   6.535  16.864  11.252 -0.1514  0.0625 -0.1671
  391loPI   GL2 6246   6.437  17.121  11.188 -0.3255 -0.2326  0.2614
  391loPI   C1A 6247   6.773  16.735  10.881 -0.0283 -0.0474  0.1095
  391loPI   C2A 6248   6.769  16.764  10.435  0.1240 -0.0109 -0.4287
  391loPI   C3A 6249   6.748  16.785   9.981 -0.1163 -0.1537  0.1245
  391loPI   C4A 6250   6.741  16.778   9.538  0.1090 -0.2067 -0.0654
  391loPI   C5A 6251   6.495  16.881   9.128 -0.2170  0.2279 -0.1066
  391loPI   C6A 6252   6.096  16.785   9.064 -0.0657  0.3953  0.1188
  391loPI   C1B 6253   6.436  17.128  10.771 -0.0089  0.0854  0.1622
  391loPI   C2B 6254   6.457  17.098  10.283  0.0221  0.0452 -0.1358
  391loPI   C3B 6255   6.422  17.187   9.866 -0.1010 -0.0040 -0.4345
  391loPI   C4B 6256   6.336  17.200   9.519 -0.3386 -0.1081  0.1338
  392loPI    C1 6257  13.965  15.738  11.562 -0.0727 -0.1581 -0.1571
  392loPI    C2 6258  13.727  16.053  11.628 -0.0297 -0.1895  0.1671
  392loPI    C3 6259  13.625  15.693  11.768 -0.0738 -0.3219 -0.1935
  392loPI   PO4 6260  14.024  15.819  11.223  0.0463 -0.0941 -0.1059
  392loPI   GL1 6261  14.284  15.753  10.911 -0.4148 -0.1740  0.1278
  392loPI   GL2 6262  14.449  15.498  10.982 -0.0003  0.1122 -0.0307
  392loPI   C1A 6263  13.989  15.820  10.444 -0.1692  0.1348 -0.0710
  392loPI   C2A 6264  13.955  15.687   9.973 -0.0957  0.0562  0.1769
  392loPI   C3A 6265  13.986  15.671   9.469  0.0627  0.0583 -0.1599
  392loPI   C4A 6266  14.004  15.731   9.007 -0.0787 -0.1144  0.3369
  392loPI   C5A 6267  14.097  15.947   8.618 -0.0626 -0.2053 -0.1377
  392loPI   C6A 6268  14.077  16.080   8.248 -0.0320  0.0135 -0.0210
  392loPI   C1B 6269  14.438  15.476  10.535 -0.2111 -0.1779  0.1916
  392loPI   C2B 6270  14.347  15.322  10.100  0.0894 -0.1790 -0.0689
  392loPI   C3B 6271  14.289  15.372   9.663  0.2927  0.0482  0.0426
  392loPI   C4B 6272  14.349  15.403   9.166  0.0010 -0.0267 -0.2600
  393loPI    C1 6273  11.842   8.955  11.568  0.1523  0.2238 -0.0138
  393loPI    C2 6274  12.035   8.655  11.749 -0.2788 -0.0907 -0.0593
  393loPI    C3 6275  12.026   9.017  11.918  0.0832 -0.1487  0.0935
  393loPI   PO4 6276  11.964   8.963  11.328  0.0496  0.0287  0.1833
  393loPI   GL1 6277  11.867   9.042  11.045 -0.1156 -0.0392 -0.3409
  393loPI   GL2 6278  11.592   9.291  10.904  0.1111 -0.0644  0.0897
  393loPI   C1A 6279  11.903   8.967  10.673 -0.0511 -0.0100  0.2941
  393loPI   C2A 6280  11.915   8.899  10.291 -0.0231 -0.0132  0.0585
  393loPI   C3A 6281  11.937   8.901   9.828 -0.0707 -0.0695 -0.0719
  393loPI   C4A 6282  12.027   8.949   9.343  0.1385  0.0377  0.0272
  393loPI   C5A 6283  12.021   8.704   8.907 -0.1583 -0.1226 -0.1987
  393loPI   C6A 6284  11.992   8.431   8.603 -0.0651 -0.1143  0.0697
  393loPI   C1B 6285  11.562   9.248  10.485 -0.2965 -0.0865  0.2832
  393loPI   C2B 6286  11.588   9.222  10.018  0.1297 -0.0331  0.0436
  393loPI   C3B 6287  11.544   9.209   9.624 -0.0454  0.0205  0.0646
  393loPI   C4B 6288  11.559   9.231   9.155  0.2772 -0.0475  0.1564
  394loPI    C1 6289   8.041   9.392  11.537  0.0281 -0.0827  0.0408
  394loPI    C2 6290   8.275   9.213  11.806  0.0653  0.0005  0.0643
  394loPI    C3 6291   7.907   9.330  11.909  0.0148 -0.1250  0.0290
  394loPI   PO4 6292   8.085   9.265  11.330 -0.3870  0.0700  0.1484
  394loPI   GL1 6293   8.321   9.101  11.073  0.0903 -0.1248  0.0535
  394loPI   GL2 6294   8.462   8.853  11.102  0.0866 -0.1928  0.3379
  394loPI   C1A 6295   8.300   9.296  10.694  0.1572 -0.3174 -0.0638
  394loPI   C2A 6296   8.271   9.356  10.270  0.0340 -0.0464  0.0727
  394loPI   C3A 6297   8.254   9.323   9.881 -0.1332  0.0085  0.0977
  394loPI   C4A 6298   8.205   9.322   9.482  0.1999  0.1751 -0.0861
  394loPI   C5A 6299   8.162   9.135   9.040  0.1099 -0.0665  0.3207
  394loPI   C6A 6300   7.970   8.713   9.037 -0.2623 -0.0379  0.5626
  394loPI   C1B 6301   8.645   8.932  10.609  0.1174  0.2033 -0.0856
  394loPI   C2B 6302   8.663   8.997  10.097  0.3534 -0.2017  0.1086
  394loPI   C3B 6303   8.519   8.933   9.755  0.1713  0.1455 -0.1160
  394loPI   C4B 6304   8.508   8.896   9.327 -0.0165 -0.0401 -0.1396
  395loPI    C1 6305  10.659   8.968  11.550 -0.0325 -0.0177 -0.1099
  395loPI    C2 6306  10.404   8.987  11.858 -0.1166 -0.0315 -0.1782
  395loPI    C3 6307  10.619   9.308  11.756  0.1013 -0.1001  0.0547
  395loPI   PO4 6308  10.535   8.848  11.356 -0.0996  0.0454 -0.0922
  395loPI   GL1 6309  10.574   8.959  10.764 -0.1815 -0.1291  0.2377
  395loPI   GL2 6310  10.290   8.809  10.949 -0.0817 -0.1569  0.2199
  395loPI   C1A 6311  10.492   9.009  10.369  0.1712  0.2407 -0.3687
  395loPI   C2A 6312  10.469   8.880   9.985  0.1406  0.1378  0.3203
  395loPI   C3A 6313  10.547   9.062   9.505  0.0359  0.0159  0.1782
  395loPI   C4A 6314  10.593   9.018   9.115 -0.0502  0.2317 -0.2353
  395loPI   C5A 6315  10.518   8.771   8.768 -0.1981  0.0382  0.1915
  395loPI   C6A 6316  10.549   8.621   8.429  0.0876 -0.0896 -0.1427
  395loPI   C1B 6317  10.377   8.521  10.647  0.1991  0.1360  0.1769
  395loPI   C2B 6318  10.487   8.444  10.215 -0.0947  0.0916  0.1535
  395loPI   C3B 6319  10.322   8.426   9.793  0.0492  0.2430  0.1830
  395loPI   C4B 6320  10.321   8.633   9.402  0.2120  0.0055 -0.0775
  396loPI    C1 6321  11.326   5.681  12.145  0.2431  0.0689  0.0504
  396loPI    C2 6322  11.158   5.927  12.413  0.0990 -0.0273  0.0497
  396loPI    C3 6323  11.507   5.749  12.495  0.0392 -0.0819  0.1874
  396loPI   PO4 6324  11.347   5.877  11.955 -0.2206  0.2454 -0.1551
  396loPI   GL1 6325  11.241   5.734  11.557 -0.2513 -0.0953  0.1084
  396loPI   GL2 6326  11.066   5.975  11.444  0.0754 -0.2701  0.1609
  396loPI   C1A 6327  11.328   5.662  11.087 -0.3803  0.0116 -0.0422
  396loPI   C2A 6328  11.307   5.640  10.623 -0.1637 -0.0085 -0.0405
  396loPI   C3A 6329  11.391   5.622  10.179 -0.1674 -0.0608 -0.3753
  396loPI   C4A 6330  11.390   5.517   9.697 -0.0718  0.0293 -0.0682
  396loPI   C5A 6331  11.407   5.679   9.215 -0.0086 -0.1081 -0.1023
  396loPI   C6A 6332  11.666   5.733   8.922 -0.0850  0.1144 -0.0675
  396loPI   C1B 6333  11.027   6.031  11.010 -0.0633  0.1072 -0.1472
  396loPI   C2B 6334  10.984   6.008  10.573 -0.1382 -0.0154  0.2203
  396loPI   C3B 6335  11.043   5.941  10.136  0.0376  0.0042  0.2136
  396loPI   C4B 6336  11.102   5.884   9.632  0.0697 -0.0358  0.4596
  397loPI    C1 6337   9.559  16.408  11.847  0.0854  0.0809 -0.0505
  397loPI    C2 6338   9.445  16.078  12.043 -0.1873  0.2275  0.0443
  397loPI    C3 6339   9.707  16.331  12.210 -0.0364  0.0992  0.0038
  397loPI   PO4 6340   9.704  16.399  11.678  0.0211  0.5250 -0.0622
  397loPI   GL1 6341   9.733  16.455  11.331  0.0436 -0.0098 -0.1182
  397loPI   GL2 6342   9.732  16.708  11.228  0.0422 -0.0640 -0.3381
  397loPI   C1A 6343   9.844  16.225  10.977  0.1608 -0.0673 -0.0495
  397loPI   C2A 6344   9.811  16.138  10.503 -0.1318 -0.1549 -0.1539
  397loPI   C3A 6345   9.821  16.086  10.089  0.0871 -0.1299 -0.4663
  397loPI   C4A 6346   9.807  16.026   9.725 -0.0739  0.1381  0.4544
  397loPI   C5A 6347   9.872  16.212   9.352  0.0841  0.0127  0.1525
  397loPI   C6A 6348   9.538  16.358   9.120  0.0481 -0.0971 -0.1714
  397loPI   C1B 6349   9.499  16.588  10.860  0.0495 -0.3114 -0.0855
  397loPI   C2B 6350   9.475  16.589  10.438 -0.0213  0.2690  0.3534
  397loPI   C3B 6351   9.474  16.495  10.085 -0.1290 -0.1185 -0.3907
  397loPI   C4B 6352   9.566  16.490   9.678  0.0616 -0.0613 -0.0199
  398loPI    C1 6353   9.048  16.408  11.849  0.0641 -0.1007 -0.0267
  398loPI    C2 6354   8.875  16.106  12.045  0.0617 -0.0718  0.0163
  398loPI    C3 6355   9.130  16.348  12.236  0.1097 -0.0827 -0.0335
  398loPI   PO4 6356   9.126  16.202  11.610 -0.3370  0.3148 -0.0181
  398loPI   GL1 6357   9.337  16.196  11.305 -0.0138  0.3415  0.2538
  398loPI   GL2 6358   9.444  15.919  11.115  0.0949  0.0857  0.2661
  398loPI   C1A 6359   9.049  16.421  10.960 -0.2573  0.1787  0.0021
  398loPI   C2A 6360   9.001  16.335  10.605  0.1782 -0.0855  0.2922
  398loPI   C3A 6361   8.930  16.438  10.160 -0.0490  0.1208 -0.0371
  398loPI   C4A 6362   8.928  16.333   9.673  0.2085  0.2994 -0.0703
  398loPI   C5A 6363   8.998  16.313   9.263 -0.1505 -0.0679  0.0463
  398loPI   C6A 6364   9.100  16.574   8.901 -0.0432 -0.1057  0.1455
  398loPI   C1B 6365   9.369  16.079  10.752  0.3446 -0.1169 -0.1854
  398loPI   C2B 6366   9.282  16.045  10.378 -0.1804  0.1381  0.1101
  398loPI   C3B 6367   9.281  16.081   9.912  0.0860 -0.0157 -0.4141
  398loPI   C4B 6368   9.331  16.028   9.452  0.0998  0.0152  0.2306
  399loPI    C1 6369   4.077   9.448  11.664 -0.1702 -0.1938 -0.2561
  399loPI    C2 6370   3.890   9.228  11.941 -0.1455  0.0032 -0.0806
  399loPI    C3 6371   4.273   9.331  11.992 -0.1461  0.0555 -0.1792
  399loPI   PO4 6372   4.034   9.364  11.437  0.0514 -0.3354 -0.2559
  399loPI   GL1 6373   3.805   9.348  11.113  0.1554 -0.2401 -0.1421
  399loPI   GL2 6374   3.667   9.682  11.096 -0.1848  0.1325 -0.1408
  399loPI   C1A 6375   4.028   9.219  10.800  0.0220  0.0837  0.2798
  399loPI   C2A 6376   3.979   9.125  10.379 -0.0121 -0.4074 -0.0477
  399loPI   C3A 6377   3.976   9.163   9.893  0.1420 -0.0069  0.2370
  399loPI   C4A 6378   3.919   9.186   9.365 -0.0132  0.0675 -0.3485
  399loPI   C5A 6379   3.571   9.195   9.141  0.0829 -0.1461 -0.1926
  399loPI   C6A 6380   3.448   9.083   8.721  0.2684  0.0773 -0.3019
  399loPI   C1B 6381   3.738   9.582  10.665 -0.1124  0.1189  0.0017
  399loPI   C2B 6382   3.663   9.550  10.204 -0.0347  0.1948  0.2762
  399loPI   C3B 6383   3.555   9.532   9.800  0.3006 -0.0524 -0.0023
  399loPI   C4B 6384   3.588   9.590   9.403 -0.1274 -0.0916 -0.1570
  400loPI    C1 6385   0.968   2.896  11.460 -0.4323  0.2774 -0.1656
  400loPI    C2 6386   0.912   3.087  11.807 -0.0102  0.1274 -0.0069
  400loPI    C3 6387   1.252   3.139  11.603 -0.1306 -0.0178 -0.2493
  400loPI   PO4 6388   1.019   2.701  11.414 -0.0928 -0.0493 -0.1435
  400loPI   GL1 6389   1.096   2.521  11.066 -0.1241 -0.3288  0.1193
  400loPI   GL2 6390   1.413   2.527  10.978  0.2006 -0.2347  0.1702
  400loPI   C1A 6391   1.080   2.446  10.612  0.0748  0.1427 -0.2451
  400loPI   C2A 6392   1.070   2.384  10.232  0.0974 -0.1285 -0.0020
  400loPI   C3A 6393   1.026   2.368   9.787 -0.0680 -0.3077 -0.0102
  400loPI   C4A 6394   1.087   2.369   9.372 -0.3221  0.2090 -0.0278
  400loPI   C5A 6395   0.977   2.251   8.990 -0.0598  0.4307  0.1371
  400loPI   C6A 6396   0.833   2.103   8.692  0.1859 -0.2632  0.2682
  400loPI   C1B 6397   1.593   2.525  10.575 -0.0721 -0.2340 -0.3541
  400loPI   C2B 6398   1.589   2.537  10.140  0.1202  0.1568  0.3410
  400loPI   C3B 6399   1.521   2.510   9.689  0.0548 -0.2828  0.1222
  400loPI   C4B 6400   1.519   2.583   9.244  0.0319  0.2455  0.0627
  401loPI    C1 6401   4.895   5.918  11.693 -0.0908  0.0309 -0.0587
  401loPI    C2 6402   5.191   6.113  11.879 -0.2901  0.0797  0.2149
  401loPI    C3 6403   5.094   5.742  11.993 -0.0877 -0.0837 -0.1275
  401loPI   PO4 6404   4.946   5.937  11.444 -0.1423 -0.2652  0.1620
  401loPI   GL1 6405   5.110   6.016  10.982  0.2995  0.0936 -0.0139
  401loPI   GL2 6406   5.387   5.848  11.028  0.1239 -0.1649  0.1720
  401loPI   C1A 6407   5.175   6.055  10.552  0.0481  0.0460  0.2229
  401loPI   C2A 6408   5.065   6.027  10.132 -0.0087 -0.0092  0.1347
  401loPI   C3A 6409   5.090   6.169   9.649  0.1933 -0.1065 -0.2555
  401loPI   C4A 6410   5.070   6.064   9.257  0.0311  0.1981  0.0240
  401loPI   C5A 6411   5.072   6.034   8.774  0.0089  0.2124  0.0936
  401loPI   C6A 6412   5.319   5.809   8.519  0.1375  0.0085 -0.1438
  401loPI   C1B 6413   5.481   5.668  10.596  0.0930 -0.0009 -0.0120
  401loPI   C2B 6414   5.462   5.765  10.206  0.0608  0.0964 -0.2918
  401loPI   C3B 6415   5.490   5.759   9.839  0.1868 -0.0519  0.0721
  401loPI   C4B 6416   5.380   5.784   9.495 -0.2294 -0.0836  0.3340
  402loPI    C1 6417  13.069  14.199  11.680 -0.1916 -0.0167  0.3461
  402loPI    C2 6418  13.362  14.059  11.914 -0.1823 -0.3087  0.1645
  402loPI    C3 6419  13.032  13.841  11.854 -0.2405 -0.1797  0.0082
  402loPI   PO4 6420  13.173  14.220  11.460 -0.1660 -0.0278 -0.1592
  402loPI   GL1 6421  13.280  14.310  11.109 -0.0348 -0.0153  0.1044
  402loPI   GL2 6422  13.263  14.666  11.051 -0.1775  0.0248  0.3053
  402loPI   C1A 6423  13.223  14.127  10.740 -0.1265 -0.0432  0.3776
  402loPI   C2A 6424  13.039  14.168  10.316 -0.4862  0.0678  0.2781
  402loPI   C3A 6425  13.065  14.145   9.843 -0.1502 -0.1099 -0.0194
  402loPI   C4A 6426  12.936  14.141   9.468 -0.2368 -0.5193 -0.1176
  402loPI   C5A 6427  12.835  14.176   9.125 -0.0131  0.0804  0.2314
  402loPI   C6A 6428  12.817  14.176   8.662 -0.0725  0.3320 -0.2079
  402loPI   C1B 6429  13.243  14.638  10.566 -0.0261  0.0534 -0.1596
  402loPI   C2B 6430  13.183  14.590  10.088 -0.3491  0.1197  0.0367
  402loPI   C3B 6431  13.158  14.682   9.687 -0.4411  0.0572  0.0188
  402loPI   C4B 6432  13.161  14.693   9.247  0.3602  0.0568  0.0807
  403loPI    C1 6433   9.306   0.865  11.385  0.0026  0.2428  0.1649
  403loPI    C2 6434   9.171   0.722  11.733 -0.0418  0.1301  0.1022
  403loPI    C3 6435   9.553   0.836  11.698 -0.0096  0.0396  0.1569
  403loPI   PO4 6436   9.229   1.121  11.315  0.0505  0.2384  0.1408
  403loPI   GL1 6437   8.854   1.145  11.018  0.1306 -0.2713  0.4070
  403loPI   GL2 6438   9.015   1.001  10.870 -0.1173 -0.2677  0.3167
  403loPI   C1A 6439   8.652   1.283  10.580 -0.0768  0.1303 -0.1066
  403loPI   C2A 6440   8.642   1.235  10.167  0.0979  0.1635  0.1233
  403loPI   C3A 6441   8.726   1.220   9.774  0.1702 -0.2054  0.0399
  403loPI   C4A 6442   8.776   1.254   9.338 -0.0626  0.1369 -0.3091
  403loPI   C5A 6443   8.655   1.146   8.906 -0.0902  0.0523 -0.0517
  403loPI   C6A 6444   8.773   0.975   8.530  0.0084  0.0491  0.0506
  403loPI   C1B 6445   8.988   0.881  10.456 -0.5021  0.1610  0.0248
  403loPI   C2B 6446   9.012   0.882  10.050  0.0891 -0.0823  0.0872
  403loPI   C3B 6447   9.136   0.961   9.697  0.1619  0.0497 -0.0368
  403loPI   C4B 6448   9.150   0.893   9.309  0.1711  0.0171  0.3052
  404loPI    C1 6449  11.203   2.066  11.617  0.3076 -0.2494  0.1855
  404loPI    C2 6450  10.964   2.076  11.937  0.1039 -0.2496  0.0354
  404loPI    C3 6451  11.352   2.166  11.974  0.0310 -0.0087  0.2366
  404loPI   PO4 6452  11.128   2.218  11.459 -0.0020  0.0747  0.1665
  404loPI   GL1 6453  10.925   2.337  11.163 -0.0743 -0.0720 -0.0476
  404loPI   GL2 6454  10.680   2.450  10.995  0.2966 -0.3381  0.1471
  404loPI   C1A 6455  10.962   2.213  10.698 -0.0844 -0.0281 -0.1615
  404loPI   C2A 6456  10.916   2.266  10.345  0.1268  0.0578  0.0540
  404loPI   C3A 6457  10.915   2.281   9.901 -0.0883 -0.1929 -0.0024
  404loPI   C4A 6458  10.871   2.287   9.484 -0.0347 -0.1608  0.1679
  404loPI   C5A 6459  10.919   2.229   9.028  0.1563  0.1060  0.1794
  404loPI   C6A 6460  11.002   2.280   8.587 -0.1197  0.1183  0.0642
  404loPI   C1B 6461  10.599   2.615  10.566 -0.0633  0.2296 -0.2124
  404loPI   C2B 6462  10.603   2.644  10.092  0.1731 -0.0414  0.0761
  404loPI   C3B 6463  10.571   2.641   9.707 -0.0959  0.0753  0.1380
  404loPI   C4B 6464  10.481   2.668   9.300 -0.2717  0.1709 -0.1034
  405loPI    C1 6465   1.274  16.702  11.902 -0.3762 -0.0340 -0.1394
  405loPI    C2 6466   0.913  16.707  12.074 -0.2205  0.0442  0.1921
  405loPI    C3 6467   1.167  16.407  12.150 -0.1963  0.0145 -0.0013
  405loPI   PO4 6468   1.195  16.809  11.714 -0.0185 -0.3207  0.1352
  405loPI   GL1 6469   1.270  16.614  11.341 -0.0169  0.0886  0.0514
  405loPI   GL2 6470   1.176  16.265  11.185  0.0799 -0.0614  0.2984
  405loPI   C1A 6471   1.373  16.729  10.974  0.0939 -0.2606 -0.0177
  405loPI   C2A 6472   1.601  16.551  10.718  0.2108 -0.1791 -0.3527
  405loPI   C3A 6473   1.609  16.612  10.240  0.0773  0.0349 -0.3620
  405loPI   C4A 6474   1.553  16.513   9.857  0.0277 -0.1842  0.1395
  405loPI   C5A 6475   1.418  16.471   9.395  0.1090  0.2361 -0.1351
  405loPI   C6A 6476   1.392  16.458   8.965 -0.1501  0.1589 -0.0313
  405loPI   C1B 6477   1.095  16.426  10.717  0.1122  0.4045 -0.0090
  405loPI   C2B 6478   1.068  16.440  10.138  0.2573  0.1018 -0.1250
  405loPI   C3B 6479   1.068  16.448   9.705 -0.1094 -0.2859 -0.3017
  405loPI   C4B 6480   0.903  16.347   9.321  0.1563  0.1381 -0.0540
  406loPI    C1 6481  16.637  17.328  11.411 -0.0643 -0.2143  0.1214
  406loPI    C2 6482  17.014  17.379  11.532 -0.0285 -0.0333 -0.0627
  406loPI    C3 6483  16.715  17.403  11.796  0.0506  0.3331 -0.0009
  406loPI   PO4 6484  16.569  17.150  11.246 -0.2743  0.3659 -0.1197
  406loPI   GL1 6485  16.568  17.001  10.925  0.1010  0.0595  0.4742
  406loPI   GL2 6486  16.799  16.797  10.848 -0.0792 -0.2202 -0.0246
  406loPI   C1A 6487  16.255  16.807  10.661 -0.1701  0.0286  0.2678
  406loPI   C2A 6488  16.167  16.693  10.152 -0.0437  0.0213  0.1362
  406loPI   C3A 6489  16.103  16.854   9.685  0.0596 -0.1117  0.2283
  406loPI   C4A 6490  16.162  16.813   9.226  0.1737 -0.1697 -0.0827
  406loPI   C5A 6491  16.037  17.037   8.911 -0.0715  0.0899  0.0123
  406loPI   C6A 6492  15.675  17.206   8.842  0.0745 -0.0224 -0.1550
  406loPI   C1B 6493  16.688  16.860  10.383 -0.0382 -0.2294 -0.2132
  406loPI   C2B 6494  16.662  16.960   9.910 -0.4388  0.0620  0.2006
  406loPI   C3B 6495  16.682  16.905   9.496 -0.0083 -0.0172 -0.0204
  406loPI   C4B 6496  17.029  17.127   9.170  0.3573 -0.0664  0.0098
  407loPI    C1 6497   4.282   1.144  11.717 -0.0088  0.1033  0.1039
  407loPI    C2 6498   4.672   1.081  11.651 -0.1054 -0.2079 -0.2001
  407loPI    C3 6499   4.516   1.009  12.012  0.1389  0.0378 -0.0416
  407loPI   PO4 6500   4.166   1.076  11.395 -0.0197 -0.0879 -0.2088
  407loPI   GL1 6501   4.048   0.757  11.124 -0.1374  0.1115 -0.1431
  407loPI   GL2 6502   4.402   0.815  11.030  0.3048  0.4691 -0.0346
  407loPI   C1A 6503   3.953   0.582  10.717  0.1820  0.1888  0.0976
  407loPI   C2A 6504   3.953   0.625  10.297  0.2550  0.1072  0.2481
  407loPI   C3A 6505   3.892   0.622   9.912  0.0493  0.1805  0.2965
  407loPI   C4A 6506   3.862   0.656   9.409  0.1387  0.0299 -0.2373
  407loPI   C5A 6507   3.763   0.828   9.013  0.0631  0.2470  0.2119
  407loPI   C6A 6508   3.777   0.957   8.610 -0.0732  0.1214 -0.2302
  407loPI   C1B 6509   4.391   0.786  10.553 -0.0602 -0.0538 -0.0249
  407loPI   C2B 6510   4.429   0.741  10.086  0.0147  0.0671  0.1587
  407loPI   C3B 6511   4.304   0.751   9.658 -0.0253  0.0036 -0.0304
  407loPI   C4B 6512   4.361   0.635   9.186  0.0442 -0.1259 -0.1161
  408loPI    C1 6513   2.371  13.162  11.961 -0.2907 -0.1561  0.3609
  408loPI    C2 6514   2.638  13.089  12.250  0.1268  0.0241  0.0312
  408loPI    C3 6515   2.449  13.442  12.236  0.2716  0.0995 -0.0410
  408loPI   PO4 6516   2.515  13.136  11.778  0.0190 -0.0128  0.1191
  408loPI   GL1 6517   2.481  13.085  11.402 -0.2151  0.1988 -0.0499
  408loPI   GL2 6518   2.577  13.361  11.201  0.0804 -0.0725 -0.1160
  408loPI   C1A 6519   2.395  12.919  10.949  0.1579  0.0807  0.1957
  408loPI   C2A 6520   2.353  12.934  10.536 -0.1546  0.1053 -0.0596
  408loPI   C3A 6521   2.357  12.852  10.061  0.1264 -0.1928  0.2119
  408loPI   C4A 6522   2.321  12.895   9.622 -0.4541 -0.0799  0.1269
  408loPI   C5A 6523   2.313  12.933   9.147 -0.1067 -0.0276 -0.3434
  408loPI   C6A 6524   2.241  13.106   8.904 -0.0298  0.1461 -0.1314
  408loPI   C1B 6525   2.514  13.440  10.779  0.4152 -0.0759  0.0692
  408loPI   C2B 6526   2.493  13.411  10.412 -0.0326 -0.2316  0.1847
  408loPI   C3B 6527   2.490  13.440   9.972  0.2843 -0.2829 -0.0248
  408loPI   C4B 6528   2.478  13.429   9.531 -0.0560 -0.0023  0.0252
  409loPI    C1 6529  15.158   2.558  11.265 -0.0168  0.0483 -0.1792
  409loPI    C2 6530  15.156   2.214  11.060 -0.1632 -0.0217 -0.0624
  409loPI    C3 6531  15.208   2.211  11.457 -0.2807  0.0816 -0.0455
  409loPI   PO4 6532  15.063   2.709  11.246 -0.3421  0.2168  0.0614
  409loPI   GL1 6533  15.127   2.949  10.859  0.0085  0.0446  0.0639
  409loPI   GL2 6534  14.833   2.974  10.741 -0.1600 -0.2317 -0.2689
  409loPI   C1A 6535  15.318   2.964  10.383 -0.4674 -0.0507 -0.0417
  409loPI   C2A 6536  15.279   3.003  10.058  0.0316  0.0378  0.0152
  409loPI   C3A 6537  15.365   3.066   9.613 -0.3517 -0.0393 -0.3801
  409loPI   C4A 6538  15.338   3.156   9.255 -0.0911 -0.1223 -0.1797
  409loPI   C5A 6539  15.191   2.960   9.015 -0.0636  0.1626  0.0022
  409loPI   C6A 6540  15.074   2.950   8.643  0.1780  0.1193  0.2959
  409loPI   C1B 6541  14.830   2.879  10.337  0.0617  0.0996 -0.2913
  409loPI   C2B 6542  14.801   2.882   9.870 -0.0989  0.0740 -0.1374
  409loPI   C3B 6543  14.804   2.895   9.439 -0.0892  0.2592  0.0819
  409loPI   C4B 6544  14.664   2.818   9.091  0.2143 -0.0024  0.2078
  410loPI    C1 6545   3.309   5.013  11.516  0.0655 -0.1259  0.1674
  410loPI    C2 6546   3.292   5.115  11.902 -0.0845  0.0930  0.1050
  410loPI    C3 6547   3.350   4.733  11.798 -0.2620 -0.0015  0.3440
  410loPI   PO4 6548   3.154   5.202  11.442 -0.0343 -0.1323  0.0256
  410loPI   GL1 6549   2.865   4.959  11.169  0.2492 -0.2545 -0.2626
  410loPI   GL2 6550   2.887   5.183  11.026  0.0200 -0.1041  0.0025
  410loPI   C1A 6551   3.158   4.808  10.824 -0.1133 -0.2795 -0.1882
  410loPI   C2A 6552   3.229   4.897  10.474  0.0889 -0.1203 -0.0722
  410loPI   C3A 6553   3.228   4.670  10.092  0.1106 -0.1445 -0.0824
  410loPI   C4A 6554   3.275   4.688   9.627 -0.1225 -0.0747 -0.0715
  410loPI   C5A 6555   3.327   4.596   9.214  0.1003  0.0209  0.2413
  410loPI   C6A 6556   3.290   4.576   8.847  0.5217  0.0370 -0.0393
  410loPI   C1B 6557   2.847   5.182  10.624  0.0336 -0.1144 -0.4217
  410loPI   C2B 6558   2.862   5.072  10.155 -0.0213  0.1406  0.1967
  410loPI   C3B 6559   2.779   5.123   9.647  0.0551  0.0076  0.0936
  410loPI   C4B 6560   3.000   4.967   9.242  0.3327 -0.0466 -0.1772
  411loPI    C1 6561  17.220   3.701  11.550 -0.2701  0.0440 -0.1573
  411loPI    C2 6562  16.841   3.817  11.603 -0.2552  0.0511 -0.0644
  411loPI    C3 6563  17.057   3.693  11.915 -0.2679 -0.2193 -0.1608
  411loPI   PO4 6564  17.204   3.613  11.316 -0.0444 -0.3176  0.1823
  411loPI   GL1 6565  17.247   3.678  10.961 -0.1374  0.2773  0.3280
  411loPI   GL2 6566  17.484   3.884  11.027 -0.0820 -0.2502  0.0343
  411loPI   C1A 6567  17.444   3.678  10.497  0.0219  0.0486  0.0762
  411loPI   C2A 6568  17.460   3.592  10.064 -0.0592 -0.1687 -0.0989
  411loPI   C3A 6569  17.258   3.456   9.675  0.1827  0.1107 -0.3350
  411loPI   C4A 6570  17.247   3.529   9.304 -0.2788 -0.0078 -0.3601
  411loPI   C5A 6571  17.575   3.224   9.126 -0.0786  0.1622 -0.1046
  411loPI   C6A 6572  17.928   3.147   8.849 -0.0789 -0.0557  0.2175
  411loPI   C1B 6573  17.494   4.117  10.672 -0.2150  0.1865 -0.1339
  411loPI   C2B 6574  17.546   4.076  10.200  0.0611 -0.0322 -0.0517
  411loPI   C3B 6575  17.442   4.077   9.784  0.0902  0.0586  0.1111
  411loPI   C4B 6576  17.496   4.007   9.361  0.0316  0.1313 -0.1366
  412loPI    C1 6577  16.677   8.774  12.015 -0.0412 -0.0997 -0.0552
  412loPI    C2 6578  16.365   8.576  12.167 -0.0854 -0.1383 -0.1950
  412loPI    C3 6579  16.661   8.697  12.407 -0.2351 -0.0502 -0.0525
  412loPI   PO4 6580  16.698   8.659  11.731  0.0430  0.1553  0.0480
  412loPI   GL1 6581  16.904   8.714  11.275 -0.1117 -0.1647  0.0875
  412loPI   GL2 6582  17.019   9.051  11.333  0.1914  0.2575 -0.1240
  412loPI   C1A 6583  17.032   8.599  10.937 -0.3617  0.2236 -0.1422
  412loPI   C2A 6584  17.001   8.611  10.437  0.0551  0.2514  0.1016
  412loPI   C3A 6585  16.951   8.612  10.074 -0.0980 -0.0738 -0.2175
  412loPI   C4A 6586  16.977   8.605   9.645 -0.2474 -0.1881 -0.0901
  412loPI   C5A 6587  17.051   8.437   9.248  0.1987 -0.1161  0.3457
  412loPI   C6A 6588  17.139   8.445   8.789  0.4202  0.0007 -0.1111
  412loPI   C1B 6589  17.118   9.054  10.979  0.1034 -0.3386 -0.0366
  412loPI   C2B 6590  17.177   9.025  10.543  0.0438 -0.1780 -0.1734
  412loPI   C3B 6591  17.127   9.061  10.125 -0.1253  0.0231  0.0439
  412loPI   C4B 6592  17.138   9.099   9.756 -0.1185 -0.0739 -0.0683
  413loPI    C1 6593   6.776  13.676  11.363  0.1778 -0.0863 -0.0201
  413loPI    C2 6594   6.419  13.535  11.475  0.2292  0.0179  0.2843
  413loPI    C3 6595   6.726  13.527  11.731  0.3644  0.2137  0.1310
  413loPI   PO4 6596   6.701  13.912  11.261  0.0059 -0.0949 -0.1554
  413loPI   GL1 6597   6.761  13.923  10.839 -0.0251 -0.0381 -0.0304
  413loPI   GL2 6598   7.023  14.070  10.744  0.2025  0.3121 -0.0674
  413loPI   C1A 6599   6.587  13.922  10.441  0.1475  0.0197  0.0355
  413loPI   C2A 6600   6.442  13.866  10.018  0.0471  0.1245  0.6297
  413loPI   C3A 6601   6.305  13.959   9.620  0.0743 -0.1477  0.0602
  413loPI   C4A 6602   6.158  14.133   9.216 -0.3105 -0.0052 -0.1693
  413loPI   C5A 6603   6.029  13.836   8.876 -0.0275 -0.1689  0.4814
  413loPI   C6A 6604   5.664  13.618   8.781  0.0306 -0.2445 -0.0756
  413loPI   C1B 6605   7.136  14.024  10.346  0.2055 -0.2116  0.1643
  413loPI   C2B 6606   6.945  14.126   9.966  0.1132 -0.0090 -0.0673
  413loPI   C3B 6607   6.834  14.035   9.645 -0.2080 -0.0997  0.2464
  413loPI   C4B 6608   6.726  14.043   9.294  0.0059  0.0506 -0.1123
  414loPI    C1 6609  14.596   8.893  11.753 -0.0330 -0.1361 -0.1529
  414loPI    C2 6610  14.511   9.152  11.460  0.2005  0.0037 -0.0997
  414loPI    C3 6611  14.454   9.256  11.842 -0.0464 -0.1567 -0.0905
  414loPI   PO4 6612  14.841   8.737  11.603 -0.1052  0.0465 -0.0558
  414loPI   GL1 6613  14.981   8.811  11.259 -0.0636  0.2793  0.1412
  414loPI   GL2 6614  15.132   8.656  10.999 -0.3098 -0.0485  0.0082
  414loPI   C1A 6615  14.866   9.064  10.947 -0.0776 -0.2989 -0.0312
  414loPI   C2A 6616  14.817   9.068  10.457  0.0421  0.1704 -0.2157
  414loPI   C3A 6617  14.812   9.057  10.098  0.2077 -0.0421  0.0691
  414loPI   C4A 6618  14.836   9.023   9.669 -0.1987  0.2992  0.0403
  414loPI   C5A 6619  14.838   9.009   9.262 -0.1117  0.2460  0.3135
  414loPI   C6A 6620  15.039   9.022   8.879 -0.1726 -0.4068 -0.0737
  414loPI   C1B 6621  15.160   8.672  10.555  0.0385  0.1414 -0.1268
  414loPI   C2B 6622  15.183   8.690  10.134 -0.1031  0.0220  0.0774
  414loPI   C3B 6623  15.188   8.675   9.600 -0.1828  0.2000 -0.0705
  414loPI   C4B 6624  15.253   8.695   9.245  0.1383  0.4804  0.1156
  415loPI    C1 6625   8.945  10.941  11.611 -0.0464 -0.1102  0.0330
  415loPI    C2 6626   8.910  11.275  11.828  0.2634  0.0145 -0.1033
  415loPI    C3 6627   8.958  10.923  12.011  0.0926  0.0630  0.0378
  415loPI   PO4 6628   9.130  11.055  11.374  0.4400  0.1870  0.2577
  415loPI   GL1 6629   9.337  11.046  10.965  0.1243  0.0237  0.0670
  415loPI   GL2 6630   9.141  11.253  10.814 -0.2385 -0.0617 -0.0190
  415loPI   C1A 6631   9.766  11.152  10.743  0.1731 -0.2100  0.0568
  415loPI   C2A 6632   9.813  11.142  10.345 -0.1742 -0.0515 -0.1274
  415loPI   C3A 6633   9.743  11.064   9.899 -0.0741  0.1317 -0.1209
  415loPI   C4A 6634   9.717  10.953   9.468  0.0778  0.3202  0.3225
  415loPI   C5A 6635   9.686  10.873   9.040 -0.2756 -0.0442 -0.2524
  415loPI   C6A 6636  10.032  10.871   8.745  0.0320 -0.0349 -0.2282
  415loPI   C1B 6637   9.340  11.262  10.455 -0.0537  0.1087  0.4056
  415loPI   C2B 6638   9.407  11.442  10.021 -0.0263 -0.0312 -0.1468
  415loPI   C3B 6639   9.354  11.305   9.656 -0.1183  0.2226 -0.1037
  415loPI   C4B 6640   9.265  11.397   9.246  0.0891 -0.3987 -0.0108
  416loPI    C1 6641  12.237  11.379  11.790  0.2338  0.2037 -0.0689
  416loPI    C2 6642  11.984  11.657  11.926  0.0321 -0.0409  0.0633
  416loPI    C3 6643  12.316  11.570  12.132  0.0989  0.1056  0.0182
  416loPI   PO4 6644  12.239  11.396  11.512 -0.2083  0.0769 -0.1012
  416loPI   GL1 6645  12.413  11.593  11.110 -0.2241  0.1946 -0.0646
  416loPI   GL2 6646  12.648  11.376  11.143  0.0969 -0.0859 -0.0748
  416loPI   C1A 6647  12.365  11.713  10.661  0.3163 -0.1035  0.0942
  416loPI   C2A 6648  12.246  11.744  10.237 -0.1126 -0.0504  0.1084
  416loPI   C3A 6649  12.227  11.690   9.862  0.0616 -0.1150  0.3671
  416loPI   C4A 6650  12.226  11.751   9.542  0.1646  0.0764  0.0904
  416loPI   C5A 6651  12.091  11.773   9.103  0.0824  0.0857 -0.3573
  416loPI   C6A 6652  12.210  11.867   8.628 -0.0307  0.0700  0.2138
  416loPI   C1B 6653  12.680  11.353  10.716 -0.0265 -0.4016 -0.1387
  416loPI   C2B 6654  12.643  11.386  10.305 -0.1613  0.1202  0.0901
  416loPI   C3B 6655  12.557  11.364   9.886 -0.1276  0.0466  0.1638
  416loPI   C4B 6656  12.577  11.349   9.535 -0.3024 -0.3077  0.0609
  417loPI    C1 6657   5.047  13.093  11.528  0.0619  0.0236 -0.2214
  417loPI    C2 6658   4.748  13.321  11.665  0.1338  0.1093 -0.2053
  417loPI    C3 6659   4.876  13.008  11.879  0.1896  0.1923 -0.1163
  417loPI   PO4 6660   5.000  13.081  11.313 -0.0347  0.0040 -0.2122
  417loPI   GL1 6661   4.769  13.025  10.924 -0.1445 -0.0660  0.0748
  417loPI   GL2 6662   4.788  12.685  10.959  0.0661 -0.1554 -0.3292
  417loPI   C1A 6663   4.772  12.994  10.429  0.0433  0.1526  0.0081
  417loPI   C2A 6664   4.755  13.046  10.094  0.0642 -0.2545  0.1773
  417loPI   C3A 6665   4.724  13.117   9.717 -0.1700  0.1030  0.0624
  417loPI   C4A 6666   4.634  13.133   9.275 -0.1753 -0.1920 -0.1595
  417loPI   C5A 6667   4.649  12.925   8.951 -0.0084 -0.0216  0.1149
  417loPI   C6A 6668   4.595  12.566   8.787  0.1672 -0.2867 -0.0550
  417loPI   C1B 6669   4.622  12.504  10.574 -0.1459  0.0106  0.0767
  417loPI   C2B 6670   4.597  12.559  10.127  0.1909 -0.2265 -0.1308
  417loPI   C3B 6671   4.557  12.554   9.718 -0.2139 -0.0271  0.2135
  417loPI   C4B 6672   4.424  12.519   9.244  0.3336  0.0047  0.0741
  418loPI    C1 6673   8.885   3.354  11.894  0.0924  0.0454 -0.2514
  418loPI    C2 6674   9.071   3.695  11.990 -0.0425  0.0496  0.0056
  418loPI    C3 6675   8.921   3.462  12.278  0.1597 -0.2928 -0.1594
  418loPI   PO4 6676   8.768   3.363  11.734 -0.3893  0.1528  0.0499
  418loPI   GL1 6677   8.831   3.386  11.336 -0.0085 -0.1406 -0.1039
  418loPI   GL2 6678   8.512   3.379  11.190  0.3768  0.1005  0.3263
  418loPI   C1A 6679   8.998   3.501  10.890  0.1688 -0.1033  0.2514
  418loPI   C2A 6680   8.967   3.552  10.518 -0.2225 -0.0761 -0.1683
  418loPI   C3A 6681   8.926   3.580  10.051 -0.0135  0.3279  0.1816
  418loPI   C4A 6682   8.926   3.597   9.596 -0.1778 -0.2952  0.2226
  418loPI   C5A 6683   9.136   3.758   9.150  0.1691 -0.1838  0.1154
  418loPI   C6A 6684   9.189   3.514   8.688  0.0871 -0.2357 -0.0156
  418loPI   C1B 6685   8.524   3.400  10.738  0.1190 -0.1057  0.0282
  418loPI   C2B 6686   8.512   3.513  10.305  0.0672  0.2953  0.2801
  418loPI   C3B 6687   8.501   3.448   9.817  0.1799  0.0463 -0.0737
  418loPI   C4B 6688   8.503   3.414   9.397 -0.0788  0.0676  0.1197
  419loPI    C1 6689  16.371  12.109  11.815 -0.0289 -0.1146  0.0192
  419loPI    C2 6690  16.620  12.366  11.993 -0.0922 -0.0452  0.0080
  419loPI    C3 6691  16.471  12.058  12.199  0.1033 -0.1610 -0.0208
  419loPI   PO4 6692  16.208  12.212  11.666  0.0372 -0.3196 -0.0761
  419loPI   GL1 6693  15.968  12.340  11.362 -0.3151 -0.0429 -0.0351
  419loPI   GL2 6694  15.763  12.571  11.163 -0.0024  0.3725  0.0903
  419loPI   C1A 6695  16.094  12.292  10.902 -0.1197 -0.1956  0.0012
  419loPI   C2A 6696  16.158  12.120  10.412  0.0136 -0.0357  0.0278
  419loPI   C3A 6697  16.127  12.125   9.914  0.1723 -0.0534  0.3034
  419loPI   C4A 6698  16.114  12.125   9.452 -0.1522 -0.2935 -0.0253
  419loPI   C5A 6699  16.029  12.237   9.050  0.0665  0.1748 -0.1313
  419loPI   C6A 6700  15.788  12.492   8.810 -0.0457  0.3527  0.0629
  419loPI   C1B 6701  15.756  12.609  10.774 -0.0335 -0.0258 -0.2128
  419loPI   C2B 6702  15.769  12.561  10.357 -0.1339 -0.1166  0.1633
  419loPI   C3B 6703  15.760  12.496   9.881 -0.1932  0.1111 -0.0061
  419loPI   C4B 6704  15.736  12.483   9.401 -0.0354  0.0292  0.0979
  420loPI    C1 6705   7.731   2.974  12.004 -0.0538 -0.1929  0.2056
  420loPI    C2 6706   8.047   3.185  12.127 -0.0999 -0.0423  0.0686
  420loPI    C3 6707   7.980   2.821  12.277  0.2701 -0.1736 -0.0726
  420loPI   PO4 6708   7.738   3.127  11.727 -0.0590  0.0763  0.0496
  420loPI   GL1 6709   7.591   3.105  11.303  0.2166 -0.0808  0.2606
  420loPI   GL2 6710   7.817   2.943  11.311 -0.1012 -0.2166 -0.1117
  420loPI   C1A 6711   7.435   3.242  10.832 -0.2520 -0.0329  0.1991
  420loPI   C2A 6712   7.546   3.232  10.395 -0.1898  0.1197  0.2593
  420loPI   C3A 6713   7.521   3.220   9.924  0.0298 -0.1889  0.0634
  420loPI   C4A 6714   7.575   3.217   9.511  0.1014 -0.1959 -0.2286
  420loPI   C5A 6715   7.749   2.996   9.135  0.0313 -0.0891 -0.4318
  420loPI   C6A 6716   7.821   2.995   8.699 -0.1722  0.1768 -0.1030
  420loPI   C1B 6717   7.787   2.777  10.870 -0.0844  0.2758  0.2364
  420loPI   C2B 6718   7.887   2.864  10.453 -0.0602 -0.0979  0.0058
  420loPI   C3B 6719   7.893   2.864  10.059 -0.0342 -0.2315 -0.0069
  420loPI   C4B 6720   7.908   2.851   9.624 -0.1635 -0.0634  0.0315
  421loPI    C1 6721  13.661  11.721  11.919 -0.3783 -0.1413 -0.0072
  421loPI    C2 6722  13.888  11.791  12.241  0.0467 -0.0252 -0.3225
  421loPI    C3 6723  13.581  11.535  12.264  0.0597 -0.0055  0.1739
  421loPI   PO4 6724  13.826  11.756  11.722  0.0110  0.3411  0.0730
  421loPI   GL1 6725  13.758  11.775  11.362  0.1429  0.0209 -0.0607
  421loPI   GL2 6726  13.792  11.464  11.335  0.0940 -0.2157  0.1896
  421loPI   C1A 6727  13.908  12.044  10.958 -0.1172  0.0055 -0.0890
  421loPI   C2A 6728  13.813  12.093  10.453  0.0820 -0.2015 -0.0260
  421loPI   C3A 6729  13.745  12.049   9.978 -0.0404  0.0713 -0.1146
  421loPI   C4A 6730  13.742  12.084   9.523  0.2058 -0.1173  0.1726
  421loPI   C5A 6731  13.639  12.032   9.127  0.1974 -0.0062  0.1948
  421loPI   C6A 6732  13.428  12.241   8.757  0.1452 -0.3056 -0.0651
  421loPI   C1B 6733  13.627  11.545  10.969  0.0299  0.3145  0.0555
  421loPI   C2B 6734  13.648  11.615  10.484 -0.0648 -0.0674  0.3911
  421loPI   C3B 6735  13.590  11.539  10.031 -0.1298 -0.0744 -0.0081
  421loPI   C4B 6736  13.593  11.574   9.491 -0.4061 -0.0186  0.3243
  422loPI    C1 6737   0.279   1.309  11.672  0.3520 -0.2722  0.0832
  422loPI    C2 6738   0.030   1.185  11.959  0.1207  0.0635  0.0328
  422loPI    C3 6739   0.367   1.376  12.057  0.1431 -0.0029  0.0864
  422loPI   PO4 6740   0.311   1.196  11.533 -0.0815 -0.3199 -0.1366
  422loPI   GL1 6741   0.555   1.071  11.271  0.2203  0.1486  0.2116
  422loPI   GL2 6742   0.774   0.924  11.240 -0.0576  0.0592 -0.1087
  422loPI   C1A 6743   0.387   1.281  10.860  0.0948  0.4673  0.2081
  422loPI   C2A 6744   0.310   1.207  10.406  0.2162  0.0434  0.0105
  422loPI   C3A 6745   0.308   1.218   9.962  0.3803  0.1867  0.1159
  422loPI   C4A 6746   0.177   1.124   9.501 -0.2225  0.0335 -0.1328
  422loPI   C5A 6747   0.104   0.768   9.217 -0.0838  0.0268  0.1029
  422loPI   C6A 6748   0.345   0.542   8.956 -0.0882 -0.1950  0.0817
  422loPI   C1B 6749   0.721   0.848  10.877  0.2291  0.3266  0.0567
  422loPI   C2B 6750   0.661   0.827  10.450  0.0867 -0.2151  0.3112
  422loPI   C3B 6751   0.678   0.851   9.903 -0.1723  0.0393 -0.1535
  422loPI   C4B 6752   0.582   0.787   9.401 -0.0635  0.0156 -0.1594
  423loPI    C1 6753   3.784   0.069  11.917  0.1643 -0.2788  0.0819
  423loPI    C2 6754   3.963  -0.073  12.246  0.0788 -0.1319  0.1932
  423loPI    C3 6755   3.887   0.318  12.213  0.1449 -0.1366 -0.0304
  423loPI   PO4 6756   3.911  -0.114  11.760  0.3098 -0.1599 -0.0248
  423loPI   GL1 6757   3.842  -0.134  11.361  0.0047  0.1167  0.1225
  423loPI   GL2 6758   3.806  -0.400  11.222  0.0689 -0.0591  0.0118
  423loPI   C1A 6759   4.134  -0.112  10.879  0.0450 -0.1058 -0.0798
  423loPI   C2A 6760   4.185  -0.259  10.391  0.0328  0.0152 -0.1979
  423loPI   C3A 6761   4.135  -0.308  10.006 -0.0912  0.0752 -0.0362
  423loPI   C4A 6762   3.977  -0.193   9.556  0.0769 -0.2478 -0.0970
  423loPI   C5A 6763   4.263  -0.072   9.125  0.1632  0.0702 -0.1648
  423loPI   C6A 6764   4.403  -0.338   8.830  0.0337  0.0904 -0.2255
  423loPI   C1B 6765   3.523  -0.358  10.942  0.2428 -0.0621 -0.0153
  423loPI   C2B 6766   3.568  -0.338  10.486 -0.0262 -0.0989  0.2588
  423loPI   C3B 6767   3.648  -0.347  10.074  0.2342  0.3438 -0.3286
  423loPI   C4B 6768   3.448  -0.281   9.680  0.1058 -0.0487 -0.1217
  424loPI    C1 6769  14.231   4.287  11.385  0.0769 -0.0172 -0.1162
  424loPI    C2 6770  14.112   4.344  11.763  0.0286 -0.1936 -0.1036
  424loPI    C3 6771  14.483   4.215  11.688  0.1328  0.1118 -0.1312
  424loPI   PO4 6772  14.104   4.549  11.292 -0.0716 -0.3289  0.1918
  424loPI   GL1 6773  13.968   4.571  10.868  0.2791 -0.1494  0.0809
  424loPI   GL2 6774  14.057   4.925  10.770 -0.0604  0.0301 -0.0070
  424loPI   C1A 6775  13.863   4.448  10.487 -0.0494  0.1835 -0.4837
  424loPI   C2A 6776  13.823   4.493  10.106 -0.0763 -0.2272  0.2602
  424loPI   C3A 6777  13.939   4.486   9.665  0.0324 -0.2703  0.1316
  424loPI   C4A 6778  13.784   4.440   9.264 -0.1337  0.0343  0.2747
  424loPI   C5A 6779  13.681   4.022   8.975  0.1255  0.1973 -0.3608
  424loPI   C6A 6780  13.777   3.685   8.616  0.1463  0.4067  0.0597
  424loPI   C1B 6781  13.975   5.007  10.281  0.0361  0.1106 -0.2762
  424loPI   C2B 6782  14.035   4.983   9.856  0.4554 -0.0166 -0.0156
  424loPI   C3B 6783  13.961   4.961   9.417  0.0149 -0.0427  0.3075
  424loPI   C4B 6784  13.954   4.787   8.997  0.1361  0.1727 -0.1699
  425loPI    C1 6785   2.177   9.314  11.708  0.0179 -0.0121  0.0059
  425loPI    C2 6786   2.486   9.558  11.635  0.0560 -0.0645 -0.0089
  425loPI    C3 6787   2.498   9.309  11.947 -0.0088 -0.0044  0.0420
  425loPI   PO4 6788   2.141   9.174  11.420 -0.1085  0.1826 -0.1395
  425loPI   GL1 6789   2.064   9.146  11.107  0.1968 -0.0936 -0.1132
  425loPI   GL2 6790   1.735   9.132  10.974 -0.0728  0.4289 -0.0723
  425loPI   C1A 6791   2.164   9.209  10.751  0.1097 -0.0414  0.1332
  425loPI   C2A 6792   2.016   9.207  10.326 -0.1690  0.0154 -0.1671
  425loPI   C3A 6793   2.130   9.186   9.934  0.1837  0.2843  0.0550
  425loPI   C4A 6794   2.061   9.035   9.577 -0.3430  0.3709 -0.2429
  425loPI   C5A 6795   2.081   9.016   9.189  0.0535  0.3164 -0.0170
  425loPI   C6A 6796   2.136   9.311   8.957  0.0975  0.1111 -0.1686
  425loPI   C1B 6797   1.633   9.015  10.545  0.2109 -0.3586 -0.0070
  425loPI   C2B 6798   1.595   9.072  10.130 -0.1561 -0.0614 -0.0065
  425loPI   C3B 6799   1.545   9.057   9.742  0.0597  0.1442 -0.3161
  425loPI   C4B 6800   1.551   8.918   9.398  0.2324 -0.1289 -0.0948
  426loPI    C1 6801   0.187  11.628  11.447 -0.0466  0.2342  0.0725
  426loPI    C2 6802   0.350  11.537  11.801 -0.0104 -0.2001 -0.0505
  426loPI    C3 6803  -0.042  11.613  11.774  0.0117 -0.0260  0.1032
  426loPI   PO4 6804   0.468  11.799  11.325  0.0880  0.1870 -0.2720
  426loPI   GL1 6805   0.582  11.804  10.920 -0.0431 -0.0825 -0.1832
  426loPI   GL2 6806   0.342  11.502  10.919 -0.2542 -0.0808  0.2962
  426loPI   C1A 6807   0.652  12.112  10.580  0.0951 -0.0215 -0.1336
  426loPI   C2A 6808   0.623  12.143  10.127  0.1829 -0.0884 -0.0690
  426loPI   C3A 6809   0.667  12.136   9.749 -0.2223 -0.0135  0.1842
  426loPI   C4A 6810   0.752  12.016   9.304 -0.1577  0.0772  0.3879
  426loPI   C5A 6811   0.633  12.193   8.952 -0.2177  0.1142 -0.3000
  426loPI   C6A 6812   0.710  12.394   8.559 -0.3781 -0.2979 -0.1273
  426loPI   C1B 6813   0.500  11.591  10.492  0.1320 -0.0887  0.1997
  426loPI   C2B 6814   0.543  11.579  10.095 -0.1915 -0.3449  0.1167
  426loPI   C3B 6815   0.511  11.620   9.654 -0.3611  0.0204  0.3302
  426loPI   C4B 6816   0.497  11.433   9.290 -0.2286  0.4584 -0.1525
  427loPI    C1 6817  15.730   0.835  11.649  0.1451 -0.0788 -0.0557
  427loPI    C2 6818  15.920   1.115  11.862 -0.2768  0.1289  0.0588
  427loPI    C3 6819  15.995   0.728  11.929  0.1695  0.2053  0.0328
  427loPI   PO4 6820  15.776   0.916  11.389 -0.1040  0.0329 -0.3895
  427loPI   GL1 6821  15.923   0.971  11.079 -0.0319 -0.0749  0.0247
  427loPI   GL2 6822  15.734   1.284  11.054  0.0558  0.0795  0.1346
  427loPI   C1A 6823  16.067   0.930  10.631  0.0408 -0.1572 -0.0883
  427loPI   C2A 6824  16.123   0.878  10.089  0.0406 -0.1745  0.1223
  427loPI   C3A 6825  16.061   0.812   9.642 -0.1268  0.0698 -0.4070
  427loPI   C4A 6826  16.121   0.704   9.247 -0.2755  0.0417 -0.3320
  427loPI   C5A 6827  16.170   0.444   9.025 -0.0490 -0.2564 -0.1661
  427loPI   C6A 6828  16.167   0.138   8.722 -0.0577  0.1031  0.1344
  427loPI   C1B 6829  15.687   1.305  10.728 -0.1646  0.0548  0.0092
  427loPI   C2B 6830  15.901   1.267  10.322 -0.2545 -0.0118 -0.0402
  427loPI   C3B 6831  15.769   1.236   9.894  0.1950 -0.0063 -0.1024
  427loPI   C4B 6832  15.654   1.199   9.572 -0.1318 -0.2490  0.0298
  428loPI    C1 6833   6.776   2.777  11.886 -0.1063  0.2379  0.0071
  428loPI    C2 6834   6.411   2.935  11.926 -0.2716 -0.1157 -0.0753
  428loPI    C3 6835   6.480   2.557  12.038  0.0582 -0.0676 -0.1061
  428loPI   PO4 6836   6.794   2.800  11.530 -0.0308 -0.1832  0.1259
  428loPI   GL1 6837   6.859   2.820  11.171  0.0074  0.0428  0.0178
  428loPI   GL2 6838   6.573   2.981  11.067  0.0890 -0.2178 -0.0418
  428loPI   C1A 6839   6.882   2.689  10.761 -0.3541  0.0817 -0.0904
  428loPI   C2A 6840   6.746   2.794  10.329 -0.2353  0.3078 -0.2846
  428loPI   C3A 6841   6.851   2.697   9.884  0.0670 -0.0115  0.1040
  428loPI   C4A 6842   6.873   2.845   9.465 -0.2037 -0.0120 -0.0208
  428loPI   C5A 6843   6.948   2.671   8.996  0.0041 -0.2711  0.3094
  428loPI   C6A 6844   7.099   2.438   8.655  0.2116  0.1605  0.0046
  428loPI   C1B 6845   6.406   3.174  10.770  0.0483 -0.0626  0.5021
  428loPI   C2B 6846   6.465   3.157  10.368 -0.0748 -0.1023  0.1995
  428loPI   C3B 6847   6.532   3.152  10.013  0.0313 -0.3512 -0.2151
  428loPI   C4B 6848   6.468   2.963   9.619 -0.1315  0.2300  0.2218
  429loPI    C1 6849  16.566  14.190  11.799 -0.1347 -0.0414 -0.0063
  429loPI    C2 6850  16.389  13.933  12.049  0.0733 -0.1548  0.0272
  429loPI    C3 6851  16.567  14.261  12.193 -0.0275 -0.0884  0.0021
  429loPI   PO4 6852  16.496  14.127  11.583 -0.1404 -0.0488 -0.2978
  429loPI   GL1 6853  16.455  14.104  11.111 -0.1010 -0.2844  0.0852
  429loPI   GL2 6854  16.516  13.797  11.061  0.1190 -0.1041  0.0718
  429loPI   C1A 6855  16.460  14.468  10.743 -0.1810  0.3586 -0.0090
  429loPI   C2A 6856  16.437  14.592  10.255  0.2025 -0.1047 -0.1958
  429loPI   C3A 6857  16.412  14.586   9.886 -0.0293  0.0293  0.0358
  429loPI   C4A 6858  16.337  14.455   9.432 -0.0347  0.3178  0.0821
  429loPI   C5A 6859  16.414  14.646   9.022 -0.2506  0.1836 -0.3549
  429loPI   C6A 6860  16.746  14.508   8.631  0.6678 -0.0827  0.1515
  429loPI   C1B 6861  16.724  13.599  10.641  0.3607 -0.1164 -0.0114
  429loPI   C2B 6862  16.649  13.612  10.144  0.0373  0.0581 -0.3166
  429loPI   C3B 6863  16.535  13.579   9.646 -0.0714  0.0576 -0.0207
  429loPI   C4B 6864  16.648  13.618   9.137  0.2758 -0.2757 -0.2216
  430loPI    C1 6865   8.814  13.619  11.618  0.1258 -0.2546 -0.0984
  430loPI    C2 6866   9.155  13.557  11.818  0.1331 -0.3001 -0.1249
  430loPI    C3 6867   8.803  13.503  12.001  0.1400 -0.2310 -0.0908
  430loPI   PO4 6868   8.939  13.803  11.409  0.2424  0.1766  0.0610
  430loPI   GL1 6869   9.081  13.824  10.988 -0.0241 -0.0231 -0.3679
  430loPI   GL2 6870   8.877  14.120  10.964  0.0840  0.1325  0.2731
  430loPI   C1A 6871   9.201  13.763  10.488  0.0782 -0.2591  0.0174
  430loPI   C2A 6872   9.124  13.721  10.064  0.0431  0.1129  0.0121
  430loPI   C3A 6873   9.074  13.645   9.613 -0.0888  0.0500  0.2297
  430loPI   C4A 6874   8.961  13.658   9.158  0.1945  0.1598  0.1639
  430loPI   C5A 6875   8.578  13.605   8.901  0.0937 -0.1654 -0.1103
  430loPI   C6A 6876   8.414  13.694   8.423  0.0047 -0.0803 -0.1168
  430loPI   C1B 6877   8.845  14.086  10.522 -0.0297 -0.1535  0.1259
  430loPI   C2B 6878   8.821  14.121  10.097 -0.1981 -0.2943  0.1252
  430loPI   C3B 6879   8.792  14.123   9.689 -0.1111 -0.2112 -0.1930
  430loPI   C4B 6880   8.680  14.024   9.219  0.1519  0.2240 -0.2946
  431loPI    C1 6881  15.503   5.796  11.603 -0.0664 -0.1649 -0.0701
  431loPI    C2 6882  15.485   5.727  11.997  0.1622  0.1532  0.0011
  431loPI    C3 6883  15.159   5.849  11.799  0.0229 -0.0983  0.0704
  431loPI   PO4 6884  15.687   5.973  11.527  0.1419 -0.2577  0.0278
  431loPI   GL1 6885  15.809   6.059  11.210 -0.2206 -0.0583 -0.1935
  431loPI   GL2 6886  16.108   5.941  11.040  0.2788  0.2191  0.1029
  431loPI   C1A 6887  15.747   6.042  10.751  0.1229  0.0425  0.0170
  431loPI   C2A 6888  15.746   6.083  10.381  0.2699  0.0745 -0.4426
  431loPI   C3A 6889  15.730   6.118   9.931 -0.0390 -0.0837  0.2056
  431loPI   C4A 6890  15.665   6.057   9.446 -0.0900 -0.2280  0.0671
  431loPI   C5A 6891  15.337   6.076   9.244 -0.0537  0.0753  0.2036
  431loPI   C6A 6892  15.083   5.732   8.947  0.2547  0.2468  0.2472
  431loPI   C1B 6893  16.308   6.124  10.664 -0.1391 -0.0726 -0.0182
  431loPI   C2B 6894  16.275   6.230  10.229 -0.0841  0.1138 -0.2747
  431loPI   C3B 6895  16.190   6.125   9.693 -0.0858  0.0976 -0.4525
  431loPI   C4B 6896  16.233   6.135   9.291 -0.1057  0.1709  0.0053
  432loPI    C1 6897   6.863  12.531  11.368 -0.0584 -0.1324 -0.2332
  432loPI    C2 6898   6.536  12.545  11.597  0.0634 -0.0049 -0.0654
  432loPI    C3 6899   6.886  12.431  11.754  0.0890 -0.1983 -0.2581
  432loPI   PO4 6900   6.767  12.476  11.180 -0.0686 -0.1623  0.1294
  432loPI   GL1 6901   6.803  12.363  10.763  0.1070  0.2303 -0.3794
  432loPI   GL2 6902   7.083  12.550  10.667  0.0473 -0.0739 -0.0903
  432loPI   C1A 6903   6.578  12.491  10.520  0.0327 -0.1701 -0.3305
  432loPI   C2A 6904   6.411  12.563  10.210  0.0929 -0.0874 -0.0177
  432loPI   C3A 6905   6.382  12.563   9.780 -0.4634 -0.0905 -0.1628
  432loPI   C4A 6906   6.431  12.586   9.368  0.0239  0.0501 -0.0611
  432loPI   C5A 6907   6.329  12.325   9.101  0.1661  0.1936  0.1886
  432loPI   C6A 6908   6.436  12.080   8.714 -0.0250  0.0473  0.0438
  432loPI   C1B 6909   7.246  12.707  10.289 -0.1180  0.0863 -0.0283
  432loPI   C2B 6910   7.422  12.734   9.809  0.1480 -0.0342 -0.1563
  432loPI   C3B 6911   7.349  12.816   9.440 -0.1076  0.1686  0.0077
  432loPI   C4B 6912   7.374  12.919   9.008  0.1818 -0.1273 -0.0966
  433loPI    C1 6913   0.361   4.756  11.639 -0.0243  0.0395  0.0345
  433loPI    C2 6914   0.515   5.019  11.899 -0.1803  0.2278 -0.0615
  433loPI    C3 6915   0.556   4.627  11.964  0.1332  0.2744  0.0361
  433loPI   PO4 6916   0.424   4.853  11.380  0.1832  0.0748  0.1700
  433loPI   GL1 6917   0.618   4.715  11.035 -0.0575  0.1971  0.2286
  433loPI   GL2 6918   0.674   5.073  11.036 -0.1870  0.1613 -0.1137
  433loPI   C1A 6919   0.785   4.733  10.567  0.1921  0.0173  0.3561
  433loPI   C2A 6920   0.764   4.780  10.135  0.1622  0.1633 -0.2675
  433loPI   C3A 6921   0.704   4.717   9.696  0.2133 -0.2006 -0.0052
  433loPI   C4A 6922   0.745   4.773   9.286 -0.0402 -0.3057  0.0091
  433loPI   C5A 6923   1.129   4.735   9.010  0.1017 -0.3659 -0.1875
  433loPI   C6A 6924   1.299   5.024   8.615  0.1943  0.0423  0.2920
  433loPI   C1B 6925   0.471   5.112  10.744  0.0150 -0.2126  0.0100
  433loPI   C2B 6926   0.422   5.179  10.308  0.0316 -0.1844 -0.0740
  433loPI   C3B 6927   0.385   5.120   9.943 -0.1361  0.0757  0.2337
  433loPI   C4B 6928   0.384   5.071   9.450  0.0747  0.1078 -0.0125
  434loPI    C1 6929   3.678  10.339  11.717 -0.0552  0.4193 -0.0728
  434loPI    C2 6930   3.878  10.542  11.998  0.0042  0.1827  0.0589
  434loPI    C3 6931   3.904  10.143  11.983 -0.5095  0.1404  0.1208
  434loPI   PO4 6932   3.578  10.484  11.492  0.2301  0.2952 -0.0300
  434loPI   GL1 6933   3.326  10.481  11.130 -0.1407 -0.2210 -0.1442
  434loPI   GL2 6934   3.051  10.557  11.128  0.2970  0.1686 -0.0146
  434loPI   C1A 6935   3.526  10.567  10.700 -0.0360  0.0934 -0.0535
  434loPI   C2A 6936   3.481  10.430  10.325  0.2399 -0.1846  0.1094
  434loPI   C3A 6937   3.440  10.406   9.867 -0.0024 -0.1835  0.0578
  434loPI   C4A 6938   3.387  10.389   9.404 -0.1833  0.0402 -0.0092
  434loPI   C5A 6939   3.346  10.014   9.143 -0.0964 -0.1662 -0.1783
  434loPI   C6A 6940   3.219   9.586   9.047 -0.0805 -0.2727 -0.0707
  434loPI   C1B 6941   3.005  10.435  10.586  0.1993 -0.2629  0.2261
  434loPI   C2B 6942   2.958  10.319  10.194 -0.1257 -0.0702  0.0096
  434loPI   C3B 6943   2.878  10.294   9.736  0.1420 -0.1293  0.2328
  434loPI   C4B 6944   2.854  10.296   9.343  0.2626 -0.0981  0.0718
  435loPI    C1 6945   2.096   2.994  11.682 -0.0790 -0.1239  0.1039
  435loPI    C2 6946   1.990   3.354  11.821 -0.1178 -0.0959  0.0025
  435loPI    C3 6947   2.101   3.066  12.076 -0.0585 -0.0033  0.0819
  435loPI   PO4 6948   2.164   3.053  11.465  0.2273  0.0899  0.0738
  435loPI   GL1 6949   2.095   3.090  11.133 -0.0651 -0.3785  0.0084
  435loPI   GL2 6950   2.339   2.932  10.991  0.0949  0.1876  0.1951
  435loPI   C1A 6951   1.943   3.364  10.884  0.0790  0.0532 -0.0335
  435loPI   C2A 6952   1.873   3.426  10.484  0.0432 -0.1601 -0.1106
  435loPI   C3A 6953   1.863   3.533   9.963 -0.0149  0.1769 -0.0030
  435loPI   C4A 6954   1.765   3.548   9.613 -0.1191  0.0956 -0.1013
  435loPI   C5A 6955   1.810   3.535   9.267 -0.1629 -0.1060 -0.0757
  435loPI   C6A 6956   2.192   3.564   9.016 -0.1421 -0.0730 -0.0939
  435loPI   C1B 6957   2.249   3.068  10.615 -0.1636  0.0318  0.0125
  435loPI   C2B 6958   2.146   3.133  10.110 -0.0478 -0.1828  0.2608
  435loPI   C3B 6959   2.106   3.119   9.661  0.1165  0.1495  0.0527
  435loPI   C4B 6960   2.137   3.036   9.217  0.2453 -0.1984 -0.1955
  436loPI    C1 6961  11.489  16.896  11.490  0.2996 -0.1252 -0.0929
  436loPI    C2 6962  11.467  16.652  11.174  0.3475 -0.1879 -0.0483
  436loPI    C3 6963  11.654  16.532  11.506  0.2339 -0.1503  0.0298
  436loPI   PO4 6964  11.371  17.156  11.386 -0.0192  0.0708 -0.1693
  436loPI   GL1 6965  11.116  17.130  11.020 -0.0194  0.1888 -0.2557
  436loPI   GL2 6966  11.416  17.369  10.874  0.3673  0.0412 -0.0064
  436loPI   C1A 6967  11.307  16.874  10.687  0.3125  0.3266  0.3151
  436loPI   C2A 6968  11.217  16.887  10.293 -0.2502  0.1323 -0.2791
  436loPI   C3A 6969  11.112  16.894   9.889 -0.2519  0.3217 -0.0667
  436loPI   C4A 6970  11.081  16.914   9.450 -0.0578 -0.0559 -0.0657
  436loPI   C5A 6971  11.208  16.840   9.110 -0.2627  0.0018 -0.1094
  436loPI   C6A 6972  11.023  17.037   8.777  0.0455  0.1819 -0.1940
  436loPI   C1B 6973  11.303  17.454  10.350 -0.0345  0.0934 -0.1924
  436loPI   C2B 6974  11.215  17.372   9.995 -0.1471  0.1962 -0.1242
  436loPI   C3B 6975  11.234  17.390   9.601  0.1003 -0.0358 -0.2445
  436loPI   C4B 6976  11.233  17.457   9.080  0.0449  0.1159  0.4601
  437loPI    C1 6977   8.335  15.587  11.389  0.1447 -0.1100  0.1745
  437loPI    C2 6978   8.248  15.938  11.561 -0.1373 -0.0328 -0.1156
  437loPI    C3 6979   8.264  15.605  11.782  0.0850  0.1516  0.1539
  437loPI   PO4 6980   8.570  15.570  11.267  0.0004  0.0869  0.2274
  437loPI   GL1 6981   8.773  15.709  10.884 -0.2717  0.2678 -0.1755
  437loPI   GL2 6982   8.884  15.908  10.793  0.0128  0.1795 -0.2219
  437loPI   C1A 6983   8.734  15.407  10.517  0.3887 -0.3054  0.1760
  437loPI   C2A 6984   8.737  15.455  10.130 -0.1466  0.0297  0.1291
  437loPI   C3A 6985   8.798  15.364   9.714  0.3039  0.0741  0.2218
  437loPI   C4A 6986   8.675  15.323   9.293  0.0744  0.1274  0.1977
  437loPI   C5A 6987   8.491  15.460   8.949  0.1457  0.0877 -0.0627
  437loPI   C6A 6988   8.448  15.856   8.721 -0.2786 -0.3555 -0.2373
  437loPI   C1B 6989   8.823  15.875  10.347  0.2787 -0.1995 -0.2326
  437loPI   C2B 6990   8.772  15.936   9.908 -0.0804  0.1736 -0.2198
  437loPI   C3B 6991   8.811  15.892   9.508 -0.2288 -0.2275  0.2516
  437loPI   C4B 6992   8.862  15.855   9.080  0.0824  0.0332 -0.1476
  438loPI    C1 6993  12.140   2.606  11.789 -0.0217  0.0301 -0.0817
  438loPI    C2 6994  12.342   2.799  12.075  0.1193 -0.0495 -0.1267
  438loPI    C3 6995  12.076   2.996  11.850 -0.0112  0.0079  0.0750
  438loPI   PO4 6996  12.257   2.483  11.626 -0.1777  0.0087 -0.0032
  438loPI   GL1 6997  12.286   2.568  11.257  0.1526 -0.0487  0.4187
  438loPI   GL2 6998  12.198   2.245  11.050  0.0602 -0.1694 -0.2043
  438loPI   C1A 6999  12.118   2.810  10.935 -0.1783 -0.2938 -0.3887
  438loPI   C2A 7000  12.069   2.966  10.551 -0.0249 -0.0413 -0.1300
  438loPI   C3A 7001  12.029   3.051  10.080  0.1156  0.0505  0.0230
  438loPI   C4A 7002  12.072   3.008   9.624 -0.0189  0.2326 -0.1395
  438loPI   C5A 7003  12.114   2.978   9.221  0.0076  0.0722  0.2406
  438loPI   C6A 7004  12.244   2.917   8.723  0.0200 -0.0536 -0.1955
  438loPI   C1B 7005  12.272   2.160  10.607  0.4154  0.5763 -0.2171
  438loPI   C2B 7006  12.339   2.091  10.147 -0.1015 -0.0128 -0.1451
  438loPI   C3B 7007  12.284   2.104   9.703 -0.1383  0.2214 -0.1986
  438loPI   C4B 7008  12.251   2.115   9.307  0.4992 -0.1709 -0.3433
  439loPI    C1 7009  16.101  14.955  11.699  0.1464 -0.0897 -0.0543
  439loPI    C2 7010  16.249  15.318  11.781  0.0325 -0.0533 -0.0072
  439loPI    C3 7011  16.141  15.074  12.079  0.0272 -0.0920 -0.0408
  439loPI   PO4 7012  16.192  14.884  11.517 -0.1315  0.0620  0.0674
  439loPI   GL1 7013  16.128  14.768  11.088 -0.1772 -0.0033  0.1533
  439loPI   GL2 7014  15.956  14.442  10.928  0.0449  0.1486 -0.1700
  439loPI   C1A 7015  16.117  14.858  10.693  0.2539 -0.0624 -0.3613
  439loPI   C2A 7016  16.049  14.895  10.179 -0.2381  0.0281 -0.1079
  439loPI   C3A 7017  16.029  14.936   9.760 -0.0582 -0.3166 -0.4158
  439loPI   C4A 7018  16.007  14.830   9.388 -0.1606  0.0835  0.1922
  439loPI   C5A 7019  15.908  14.601   8.914 -0.3328  0.1149 -0.2518
  439loPI   C6A 7020  16.246  14.511   8.566  0.0661 -0.1064 -0.2741
  439loPI   C1B 7021  16.010  14.453  10.423  0.0964  0.0139 -0.4447
  439loPI   C2B 7022  15.957  14.459  10.023  0.2213 -0.0108  0.2138
  439loPI   C3B 7023  15.796  14.293   9.609 -0.1865  0.1059  0.0136
  439loPI   C4B 7024  15.779  14.215   9.174 -0.0304  0.0761 -0.2183
  440loPI    C1 7025   2.938  11.270  11.791 -0.2031  0.1267 -0.0753
  440loPI    C2 7026   2.565  11.247  11.934 -0.1444 -0.1090  0.0443
  440loPI    C3 7027   2.842  11.460  12.130 -0.1860 -0.0317  0.0193
  440loPI   PO4 7028   2.884  11.324  11.539  0.2738 -0.0046 -0.1119
  440loPI   GL1 7029   2.908  11.205  11.108 -0.1849  0.1005  0.1959
  440loPI   GL2 7030   2.741  10.961  11.099 -0.1665  0.3314 -0.1185
  440loPI   C1A 7031   2.892  11.290  10.680  0.0139 -0.4213  0.2783
  440loPI   C2A 7032   2.765  11.222  10.304  0.0350  0.1564 -0.3209
  440loPI   C3A 7033   2.797  11.125   9.892 -0.1206  0.0256  0.0480
  440loPI   C4A 7034   2.637  11.117   9.427 -0.0465  0.1474 -0.1005
  440loPI   C5A 7035   2.449  11.418   9.112  0.1186 -0.0724 -0.1888
  440loPI   C6A 7036   2.214  11.757   8.892 -0.3020  0.1925  0.1121
  440loPI   C1B 7037   2.682  10.804  10.785 -0.3862  0.0614  0.3182
  440loPI   C2B 7038   2.601  10.688  10.387  0.1281 -0.2749  0.2523
  440loPI   C3B 7039   2.576  10.724  10.033 -0.1183 -0.1847  0.0716
  440loPI   C4B 7040   2.549  10.667   9.614 -0.3049 -0.3080  0.0634
  441loPI    C1 7041  11.948  13.922  11.339  0.0124  0.3082  0.1259
  441loPI    C2 7042  11.955  13.683  11.660 -0.1341  0.0732 -0.0426
  441loPI    C3 7043  11.668  13.960  11.622 -0.0572  0.1702  0.0767
  441loPI   PO4 7044  11.959  13.822  11.169 -0.0139 -0.3134  0.3487
  441loPI   GL1 7045  11.841  13.939  10.717 -0.0958  0.0163 -0.2446
  441loPI   GL2 7046  11.485  13.881  10.601 -0.1680 -0.1282 -0.5217
  441loPI   C1A 7047  11.892  13.986  10.302  0.0469  0.0931  0.1474
  441loPI   C2A 7048  11.922  13.923   9.845 -0.1840 -0.1062  0.0055
  441loPI   C3A 7049  11.961  13.869   9.453  0.0734 -0.3037  0.2623
  441loPI   C4A 7050  11.947  13.870   8.968  0.2097  0.1664 -0.0263
  441loPI   C5A 7051  11.818  13.767   8.502  0.0166 -0.1471  0.0048
  441loPI   C6A 7052  11.480  13.627   8.271 -0.0807 -0.2860 -0.0045
  441loPI   C1B 7053  11.405  13.773  10.230 -0.0822 -0.2200 -0.2827
  441loPI   C2B 7054  11.422  13.789   9.808  0.0557  0.0708  0.2875
  441loPI   C3B 7055  11.382  13.698   9.329  0.0733 -0.0191 -0.2902
  441loPI   C4B 7056  11.400  13.657   8.928 -0.0770  0.2707 -0.2008
  442loPI    C1 7057  16.832  14.621  11.661 -0.0688 -0.2853 -0.0463
  442loPI    C2 7058  16.858  14.693  12.054  0.2642  0.2631 -0.1575
  442loPI    C3 7059  16.504  14.718  11.868  0.1420  0.2190  0.0662
  442loPI   PO4 7060  17.027  14.439  11.513  0.2779 -0.2322  0.2220
  442loPI   GL1 7061  16.909  14.335  11.146  0.4218 -0.2691  0.1986
  442loPI   GL2 7062  17.032  14.608  11.036 -0.0160  0.0078 -0.2380
  442loPI   C1A 7063  16.875  14.153  10.749  0.1881  0.0713 -0.1826
  442loPI   C2A 7064  16.735  14.145  10.367  0.1872  0.2590  0.2539
  442loPI   C3A 7065  16.711  14.194   9.970  0.0766 -0.2740 -0.3060
  442loPI   C4A 7066  16.737  14.053   9.563 -0.1711  0.3803  0.1879
  442loPI   C5A 7067  16.821  14.139   9.176  0.0116  0.3747  0.0298
  442loPI   C6A 7068  16.525  14.160   8.968 -0.1402  0.1108 -0.4015
  442loPI   C1B 7069  16.980  14.676  10.587  0.0331 -0.0804  0.0447
  442loPI   C2B 7070  16.922  14.705  10.098  0.0758  0.2829  0.0314
  442loPI   C3B 7071  16.850  14.555   9.617  0.1446  0.1994 -0.1563
  442loPI   C4B 7072  16.825  14.625   9.257 -0.2208  0.0892 -0.3317
  443loPI    C1 7073   7.938   8.855  11.882  0.0275  0.0366 -0.1504
  443loPI    C2 7074   8.260   8.678  12.039 -0.1845 -0.0204  0.2323
  443loPI    C3 7075   7.898   8.513  12.084 -0.3012  0.1706  0.0197
  443loPI   PO4 7076   7.877   8.912  11.581  0.0066  0.4005 -0.2380
  443loPI   GL1 7077   7.513   8.727  11.201 -0.1804 -0.0420  0.2572
  443loPI   GL2 7078   7.605   9.050  11.164  0.0657  0.2491  0.1060
  443loPI   C1A 7079   7.658   8.672  10.713  0.1450 -0.4840 -0.2803
  443loPI   C2A 7080   7.534   8.652  10.192  0.4050 -0.1967 -0.3384
  443loPI   C3A 7081   7.512   8.761   9.776  0.0637  0.0086  0.3353
  443loPI   C4A 7082   7.467   8.708   9.270 -0.1377  0.2506  0.2231
  443loPI   C5A 7083   7.375   8.516   8.921  0.1571 -0.2808  0.0091
  443loPI   C6A 7084   7.031   8.694   8.651 -0.1473 -0.2086 -0.3006
  443loPI   C1B 7085   7.784   9.137  10.758  0.2854 -0.1814  0.1568
  443loPI   C2B 7086   7.690   9.155  10.304  0.1567 -0.2622 -0.2591
  443loPI   C3B 7087   7.720   9.229   9.940 -0.1458  0.0553  0.0837
  443loPI   C4B 7088   7.712   9.238   9.453 -0.1213  0.0032 -0.0390
  444loPI    C1 7089   0.900   5.613  11.531  0.0416  0.2973 -0.0145
  444loPI    C2 7090   1.068   5.759  11.863  0.0096  0.0769  0.0997
  444loPI    C3 7091   0.785   5.477  11.889 -0.2194  0.2849 -0.1010
  444loPI   PO4 7092   0.839   5.746  11.396 -0.1236  0.4232 -0.0037
  444loPI   GL1 7093   1.017   5.883  11.109 -0.0197 -0.0066 -0.0520
  444loPI   GL2 7094   0.775   6.073  10.915 -0.1064 -0.2999 -0.3403
  444loPI   C1A 7095   1.173   5.840  10.701 -0.1884 -0.1059 -0.1383
  444loPI   C2A 7096   1.054   5.735  10.388  0.1704  0.1255  0.2315
  444loPI   C3A 7097   1.146   5.628   9.941  0.1701  0.3333 -0.2690
  444loPI   C4A 7098   1.094   5.604   9.536  0.0289 -0.3292 -0.0516
  444loPI   C5A 7099   1.236   5.767   9.121  0.0439 -0.1639  0.0880
  444loPI   C6A 7100   1.022   5.800   8.685 -0.0251 -0.1769 -0.5200
  444loPI   C1B 7101   0.772   6.154  10.517  0.0115  0.1208 -0.1948
  444loPI   C2B 7102   0.813   6.078  10.063 -0.2493  0.3130  0.1053
  444loPI   C3B 7103   0.832   6.053   9.568  0.1060 -0.0878 -0.1864
  444loPI   C4B 7104   0.750   6.020   9.103  0.0796 -0.0888  0.1294
  445loPI    C1 7105  17.330   7.044  11.910  0.3987  0.2545  0.1159
  445loPI    C2 7106  17.663   6.910  12.087  0.2053 -0.3324  0.0550
  445loPI    C3 7107  17.328   6.958  12.300  0.2466 -0.0260  0.0554
  445loPI   PO4 7108  17.357   7.089  11.654 -0.3671  0.1499  0.1026
  445loPI   GL1 7109  17.268   7.010  11.305 -0.1978  0.0835  0.0151
  445loPI   GL2 7110  17.444   6.898  11.066  0.0713 -0.3134 -0.1434
  445loPI   C1A 7111  17.044   7.290  10.955 -0.1490 -0.0732 -0.2969
  445loPI   C2A 7112  17.065   7.293  10.551  0.2144 -0.0729  0.1461
  445loPI   C3A 7113  17.098   7.219  10.045 -0.0877  0.1232 -0.2601
  445loPI   C4A 7114  17.168   7.117   9.671 -0.1943  0.1174  0.1144
  445loPI   C5A 7115  16.988   7.093   9.319  0.1033  0.2220  0.1138
  445loPI   C6A 7116  16.731   7.432   9.097 -0.1720 -0.1730  0.2941
  445loPI   C1B 7117  17.442   6.922  10.568 -0.0741  0.0323 -0.1235
  445loPI   C2B 7118  17.390   6.841  10.099  0.2364  0.0294  0.1671
  445loPI   C3B 7119  17.447   6.725   9.692  0.0572 -0.0801  0.1231
  445loPI   C4B 7120  17.430   6.828   9.297  0.1734 -0.0546 -0.3244
  446loPI    C1 7121   3.167   0.440  11.522  0.0533 -0.0450  0.0965
  446loPI    C2 7122   3.505   0.234  11.463 -0.0044 -0.1603  0.1659
  446loPI    C3 7123   3.455   0.444  11.800  0.0449 -0.0508  0.1053
  446loPI   PO4 7124   3.194   0.623  11.295  0.1643 -0.2318 -0.3392
  446loPI   GL1 7125   3.411   0.552  11.007 -0.0998  0.1266  0.3343
  446loPI   GL2 7126   3.507   0.904  11.019  0.0708  0.0268  0.3538
  446loPI   C1A 7127   3.468   0.463  10.589 -0.0136  0.2654  0.1807
  446loPI   C2A 7128   3.454   0.509  10.212 -0.1235 -0.3095 -0.0096
  446loPI   C3A 7129   3.419   0.553   9.825  0.0246 -0.1558  0.0700
  446loPI   C4A 7130   3.323   0.615   9.455  0.1087 -0.0436 -0.0487
  446loPI   C5A 7131   3.146   0.571   9.166 -0.1343 -0.1616 -0.0059
  446loPI   C6A 7132   2.769   0.460   8.947  0.1591 -0.0048 -0.2969
  446loPI   C1B 7133   3.591   0.943  10.630  0.1087  0.0425 -0.0516
  446loPI   C2B 7134   3.590   1.089  10.241  0.0966 -0.0332  0.2221
  446loPI   C3B 7135   3.421   1.143   9.745  0.1220  0.1549  0.3979
  446loPI   C4B 7136   3.388   1.131   9.294  0.0254  0.0688  0.0096
  447loPI    C1 7137   1.029  12.440  11.599  0.0201 -0.1924 -0.1207
  447loPI    C2 7138   1.241  12.451  11.938 -0.2007 -0.1729  0.0186
  447loPI    C3 7139   0.855  12.557  11.940 -0.2129 -0.2071 -0.2326
  447loPI   PO4 7140   1.231  12.403  11.405 -0.2612 -0.0538 -0.1535
  447loPI   GL1 7141   1.539  12.527  11.071  0.0134 -0.0945  0.1102
  447loPI   GL2 7142   1.602  12.202  11.126 -0.0723 -0.0729  0.0432
  447loPI   C1A 7143   1.727  12.450  10.724 -0.0393  0.0217  0.0403
  447loPI   C2A 7144   1.794  12.388  10.213 -0.0119  0.1665 -0.0492
  447loPI   C3A 7145   1.769  12.299   9.793  0.1552  0.1158 -0.2927
  447loPI   C4A 7146   1.697  12.234   9.317  0.1798  0.1759 -0.1108
  447loPI   C5A 7147   1.570  11.859   9.033  0.3009 -0.0314  0.3481
  447loPI   C6A 7148   1.729  11.964   8.586  0.1768 -0.1230  0.0244
  447loPI   C1B 7149   1.982  12.007  10.859  0.1749  0.0131  0.3752
  447loPI   C2B 7150   2.027  11.951  10.414 -0.0363  0.0934 -0.1814
  447loPI   C3B 7151   2.019  11.888   9.918  0.0275  0.1948 -0.1443
  447loPI   C4B 7152   2.068  11.930   9.408 -0.1105 -0.1675 -0.0580
  448loPI    C1 7153   5.028  12.570  11.847  0.0665 -0.1607 -0.0964
  448loPI    C2 7154   4.644  12.482  11.917 -0.0039  0.1533 -0.0704
  448loPI    C3 7155   4.897  12.530  12.223  0.1177 -0.2976 -0.0927
  448loPI   PO4 7156   5.135  12.402  11.670  0.2511  0.1752 -0.1787
  448loPI   GL1 7157   5.270  12.562  11.293  0.1362  0.0063 -0.0201
  448loPI   GL2 7158   5.156  12.228  11.221 -0.2230 -0.0635  0.0474
  448loPI   C1A 7159   5.264  12.676  10.904  0.2808  0.0979  0.0413
  448loPI   C2A 7160   5.135  12.694  10.505 -0.0116 -0.3321 -0.0948
  448loPI   C3A 7161   5.107  12.624  10.108  0.0420  0.0504  0.0129
  448loPI   C4A 7162   5.008  12.745   9.684  0.2182 -0.2467 -0.1950
  448loPI   C5A 7163   4.969  12.766   9.301 -0.2458 -0.0433 -0.0533
  448loPI   C6A 7164   5.140  12.560   8.872  0.1552  0.1662  0.1938
  448loPI   C1B 7165   5.058  12.202  10.717 -0.0007 -0.0386 -0.0387
  448loPI   C2B 7166   4.947  12.139  10.312 -0.3259 -0.1585 -0.3385
  448loPI   C3B 7167   4.918  12.164   9.846 -0.0253  0.2159 -0.0003
  448loPI   C4B 7168   4.883  12.190   9.430 -0.1437  0.0379  0.2139
  449loPI    C1 7169  17.121   8.996  11.928  0.0785 -0.1797 -0.1826
  449loPI    C2 7170  17.501   9.066  12.030 -0.0010 -0.0001 -0.0031
  449loPI    C3 7171  17.241   8.936  12.304 -0.0501 -0.2075 -0.1456
  449loPI   PO4 7172  17.205   8.813  11.698 -0.0075 -0.2821  0.3818
  449loPI   GL1 7173  17.436   8.699  11.265  0.1569  0.0932 -0.0406
  449loPI   GL2 7174  17.492   9.105  11.230  0.0682 -0.1254  0.0843
  449loPI   C1A 7175  17.536   8.724  10.817 -0.2329  0.1196  0.0897
  449loPI   C2A 7176  17.543   8.614  10.362  0.4442 -0.0668 -0.1737
  449loPI   C3A 7177  17.460   8.663   9.875  0.0897 -0.1096  0.2494
  449loPI   C4A 7178  17.472   8.670   9.444  0.0768  0.2198  0.1284
  449loPI   C5A 7179  17.320   8.903   9.104 -0.1044 -0.1831  0.0121
  449loPI   C6A 7180  17.176   9.261   8.980  0.1107  0.1336 -0.0697
  449loPI   C1B 7181  17.678   9.193  10.881 -0.0079 -0.1644  0.3839
  449loPI   C2B 7182  17.642   9.100  10.485 -0.1367 -0.0047 -0.3650
  449loPI   C3B 7183  17.626   9.171  10.061 -0.0225 -0.0369 -0.1714
  449loPI   C4B 7184  17.611   9.196   9.634 -0.2185  0.0943 -0.2921
  450loPI    C1 7185   0.148  13.307  11.852  0.0631  0.0663 -0.0160
  450loPI    C2 7186   0.161  13.074  12.176 -0.0822 -0.0988 -0.1267
  450loPI    C3 7187   0.378  13.409  12.162  0.1324 -0.2281  0.0325
  450loPI   PO4 7188   0.233  13.106  11.595  0.0023 -0.0723 -0.1502
  450loPI   GL1 7189   0.149  13.225  11.180  0.2519 -0.1318 -0.2724
  450loPI   GL2 7190   0.031  12.950  11.086  0.1989 -0.0778 -0.1624
  450loPI   C1A 7191   0.212  13.449  10.803 -0.0939  0.0092 -0.0749
  450loPI   C2A 7192   0.131  13.422  10.386 -0.4269 -0.0448  0.2953
  450loPI   C3A 7193   0.143  13.302   9.984 -0.0058  0.1055  0.3732
  450loPI   C4A 7194   0.031  13.355   9.552 -0.1553 -0.1467  0.0093
  450loPI   C5A 7195   0.045  13.360   9.070  0.1341  0.0114  0.0771
  450loPI   C6A 7196   0.345  13.169   8.767  0.4397 -0.0779  0.0477
  450loPI   C1B 7197   0.024  12.875  10.678 -0.0321  0.3430  0.0517
  450loPI   C2B 7198  -0.021  12.938  10.269  0.3468 -0.4859  0.1095
  450loPI   C3B 7199  -0.079  12.859   9.774 -0.4044 -0.1147 -0.0831
  450loPI   C4B 7200  -0.111  12.868   9.391 -0.3384 -0.3397  0.0000
  451loPI    C1 7201   0.700   7.593  11.911  0.0184  0.0039 -0.0102
  451loPI    C2 7202   0.639   7.259  12.122  0.0997  0.0917  0.1543
  451loPI    C3 7203   0.866   7.551  12.272  0.0660  0.2026 -0.0081
  451loPI   PO4 7204   0.718   7.554  11.710 -0.1056 -0.2100  0.2920
  451loPI   GL1 7205   0.913   7.457  11.317 -0.3932  0.0101  0.0943
  451loPI   GL2 7206   1.160   7.634  11.286  0.0161  0.1374  0.2400
  451loPI   C1A 7207   0.804   7.491  10.951 -0.2180  0.0166  0.1276
  451loPI   C2A 7208   0.724   7.431  10.581  0.1400 -0.1362  0.2851
  451loPI   C3A 7209   0.684   7.393  10.048  0.3020 -0.1327  0.0598
  451loPI   C4A 7210   0.715   7.413   9.667  0.1431 -0.0002  0.2952
  451loPI   C5A 7211   0.375   7.338   9.334  0.0885 -0.2365  0.1809
  451loPI   C6A 7212   0.133   7.307   9.101  0.0245 -0.0979 -0.4778
  451loPI   C1B 7213   1.286   7.561  10.899 -0.0381  0.1123  0.1317
  451loPI   C2B 7214   1.193   7.577  10.486 -0.0909 -0.0868  0.0246
  451loPI   C3B 7215   1.160   7.534   9.970  0.0271 -0.0826 -0.0928
  451loPI   C4B 7216   1.219   7.489   9.575  0.0675  0.0951 -0.1377
  452loPI    C1 7217   6.060   2.560  11.770  0.0628 -0.0831 -0.1251
  452loPI    C2 7218   5.948   2.796  12.073 -0.0439  0.0643 -0.2775
  452loPI    C3 7219   6.022   2.408  12.138  0.1190  0.1352 -0.0277
  452loPI   PO4 7220   6.215   2.666  11.584 -0.1542 -0.2142 -0.1087
  452loPI   GL1 7221   6.058   2.708  11.184  0.1000 -0.0476 -0.0947
  452loPI   GL2 7222   6.077   3.103  11.119 -0.1637  0.2771 -0.2603
  452loPI   C1A 7223   5.838   2.578  10.830  0.1104  0.0265  0.2203
  452loPI   C2A 7224   5.757   2.667  10.422 -0.1511 -0.0878  0.2414
  452loPI   C3A 7225   5.851   2.517  10.020 -0.0484 -0.0746  0.0152
  452loPI   C4A 7226   5.798   2.453   9.531 -0.1488 -0.1974 -0.1294
  452loPI   C5A 7227   5.778   2.095   9.223 -0.0466 -0.2410  0.0511
  452loPI   C6A 7228   6.038   1.862   9.034 -0.0937  0.2672 -0.3546
  452loPI   C1B 7229   5.941   3.078  10.663 -0.0665  0.1194  0.0628
  452loPI   C2B 7230   6.011   3.076  10.234  0.4425 -0.0193 -0.1383
  452loPI   C3B 7231   6.045   3.010   9.836  0.2073 -0.0347  0.0471
  452loPI   C4B 7232   6.049   2.870   9.376  0.0705  0.0327 -0.4381
  453loPI    C1 7233  11.189  16.479  11.757  0.1527 -0.1792  0.2382
  453loPI    C2 7234  10.942  16.332  12.035 -0.0999 -0.0480  0.0865
  453loPI    C3 7235  11.137  16.674  12.102  0.0202 -0.1368  0.1948
  453loPI   PO4 7236  11.111  16.320  11.554  0.2146 -0.3524 -0.1015
  453loPI   GL1 7237  11.063  16.276  11.124 -0.4881  0.1606  0.1365
  453loPI   GL2 7238  10.910  16.086  11.078  0.3548 -0.0595 -0.2329
  453loPI   C1A 7239  11.283  16.363  10.747 -0.1156 -0.1330  0.1001
  453loPI   C2A 7240  11.447  16.422  10.233 -0.1114 -0.3461 -0.0931
  453loPI   C3A 7241  11.417  16.510   9.815  0.0459  0.0739 -0.2201
  453loPI   C4A 7242  11.520  16.544   9.429  0.0478  0.2301 -0.3598
  453loPI   C5A 7243  11.351  16.204   9.091 -0.3378 -0.1965  0.1299
  453loPI   C6A 7244  10.973  16.152   8.985 -0.1292  0.0722 -0.2058
  453loPI   C1B 7245  10.735  15.975  10.617 -0.0675 -0.0048  0.3112
  453loPI   C2B 7246  10.718  15.845  10.222  0.2327  0.1386  0.0490
  453loPI   C3B 7247  10.744  15.811   9.786 -0.2544  0.1203  0.0782
  453loPI   C4B 7248  10.761  15.796   9.408 -0.1611  0.3723  0.1079
  454loPI    C1 7249   9.976   1.037  11.820 -0.1929  0.3427 -0.0989
  454loPI    C2 7250  10.265   0.807  11.973 -0.4649 -0.0537 -0.1671
  454loPI    C3 7251  10.118   1.111  12.187 -0.0525  0.1076 -0.1041
  454loPI   PO4 7252  10.161   1.118  11.575  0.0140 -0.2464  0.1179
  454loPI   GL1 7253  10.461   1.232  11.216  0.2017 -0.0298  0.0894
  454loPI   GL2 7254  10.210   1.123  11.052  0.1029 -0.0819  0.0172
  454loPI   C1A 7255  10.632   1.222  10.827  0.1761  0.0655 -0.2053
  454loPI   C2A 7256  10.703   1.336  10.382 -0.3244 -0.1912 -0.1666
  454loPI   C3A 7257  10.626   1.362   9.882 -0.0071  0.0480  0.4404
  454loPI   C4A 7258  10.715   1.362   9.492  0.0367 -0.3290  0.0453
  454loPI   C5A 7259  10.457   1.245   9.101  0.0760  0.4410 -0.0506
  454loPI   C6A 7260  10.100   0.990   8.883 -0.0107 -0.0314 -0.2819
  454loPI   C1B 7261  10.250   1.183  10.543 -0.0341 -0.3232 -0.1068
  454loPI   C2B 7262  10.149   1.182  10.106 -0.1554 -0.1389  0.1035
  454loPI   C3B 7263  10.200   1.147   9.685  0.2621 -0.0199 -0.3239
  454loPI   C4B 7264  10.041   1.272   9.302 -0.0631  0.0785  0.2611
  455loPI    C1 7265   8.119   5.962  12.124 -0.1357 -0.1588  0.0264
  455loPI    C2 7266   8.220   6.281  12.343 -0.1888 -0.0055 -0.1708
  455loPI    C3 7267   8.205   5.920  12.513  0.0352  0.0702  0.0154
  455loPI   PO4 7268   8.285   6.018  11.853 -0.2524  0.1877 -0.0262
  455loPI   GL1 7269   8.184   5.825  11.546  0.1932 -0.2333  0.0731
  455loPI   GL2 7270   8.445   6.095  11.331  0.0874  0.2216  0.0568
  455loPI   C1A 7271   8.280   5.693  11.103  0.1836  0.3728 -0.1743
  455loPI   C2A 7272   8.241   5.617  10.687  0.2075 -0.0428  0.2503
  455loPI   C3A 7273   8.133   5.622  10.261 -0.3815  0.3233  0.0503
  455loPI   C4A 7274   8.129   5.625   9.898 -0.1271 -0.0374  0.2536
  455loPI   C5A 7275   8.237   5.550   9.448  0.3510  0.2706  0.1904
  455loPI   C6A 7276   7.914   5.596   9.209 -0.0339  0.1120 -0.1878
  455loPI   C1B 7277   8.404   6.076  10.805  0.0101  0.0483  0.1256
  455loPI   C2B 7278   8.365   6.065  10.327  0.0490  0.0060 -0.4061
  455loPI   C3B 7279   8.265   6.102   9.842 -0.1220 -0.1550  0.2542
  455loPI   C4B 7280   8.343   6.022   9.323 -0.0341 -0.3786  0.1540
  456loPI    C1 7281   6.641  10.721  11.524  0.1272  0.1088  0.1511
  456loPI    C2 7282   6.947  10.769  11.777  0.1338  0.0804  0.1485
  456loPI    C3 7283   6.961  10.483  11.497  0.0772  0.0368  0.1901
  456loPI   PO4 7284   6.616  10.954  11.400 -0.0873  0.0729  0.2421
  456loPI   GL1 7285   6.371  11.079  11.020 -0.0824  0.0294  0.0458
  456loPI   GL2 7286   6.632  11.176  10.860 -0.1284  0.0158 -0.2855
  456loPI   C1A 7287   6.050  11.053  10.758  0.1745  0.1291 -0.0504
  456loPI   C2A 7288   5.985  11.131  10.306 -0.0494  0.2760  0.0057
  456loPI   C3A 7289   6.052  11.088   9.870  0.0448  0.1562  0.3036
  456loPI   C4A 7290   6.018  11.139   9.432 -0.1519 -0.0023 -0.3407
  456loPI   C5A 7291   6.051  11.475   9.157  0.1300 -0.1155 -0.1920
  456loPI   C6A 7292   6.170  11.512   8.741  0.3194 -0.0073 -0.1005
  456loPI   C1B 7293   6.496  11.212  10.433 -0.0913  0.0864 -0.0418
  456loPI   C2B 7294   6.444  11.221  10.073 -0.1561  0.1832  0.4545
  456loPI   C3B 7295   6.500  11.109   9.727 -0.2522 -0.0129  0.0717
  456loPI   C4B 7296   6.544  11.232   9.312  0.3121  0.1026  0.3213
  457loPI    C1 7297   2.226  16.671  11.804 -0.0918  0.0766  0.0360
  457loPI    C2 7298   2.613  16.581  11.855 -0.0217  0.2424 -0.1830
  457loPI    C3 7299   2.385  16.672  12.171  0.0675 -0.0473 -0.0315
  457loPI   PO4 7300   2.209  16.724  11.492  0.2715  0.1203  0.2685
  457loPI   GL1 7301   2.456  16.597  11.167 -0.0197 -0.0734 -0.0302
  457loPI   GL2 7302   2.426  16.311  11.010 -0.3819  0.3234 -0.0772
  457loPI   C1A 7303   2.603  16.808  10.817  0.0660 -0.3410 -0.0140
  457loPI   C2A 7304   2.607  16.958  10.349 -0.0508  0.2893  0.2448
  457loPI   C3A 7305   2.576  16.765  10.022 -0.2713  0.2067  0.1406
  457loPI   C4A 7306   2.418  16.816   9.620 -0.2092  0.1311 -0.1922
  457loPI   C5A 7307   2.462  16.773   9.142  0.2177 -0.0620  0.1472
  457loPI   C6A 7308   2.494  16.701   8.643  0.1159 -0.0385  0.1237
  457loPI   C1B 7309   2.428  16.219  10.610  0.0252  0.0509 -0.0472
  457loPI   C2B 7310   2.478  16.209  10.178  0.0496  0.0357 -0.2327
  457loPI   C3B 7311   2.415  16.248   9.791 -0.2346  0.0562 -0.1729
  457loPI   C4B 7312   2.258  16.379   9.372 -0.0917  0.2616  0.2030
  458loPI    C1 7313   3.200  15.594  11.673 -0.2580  0.0088 -0.1118
  458loPI    C2 7314   3.251  15.814  12.003 -0.1913 -0.2579  0.0591
  458loPI    C3 7315   2.929  15.580  11.968 -0.2471 -0.1577 -0.1089
  458loPI   PO4 7316   3.253  15.667  11.399 -0.1800  0.1041  0.0906
  458loPI   GL1 7317   3.037  15.441  11.075  0.0315  0.1168  0.0761
  458loPI   GL2 7318   2.700  15.397  11.073  0.0164 -0.3262 -0.1367
  458loPI   C1A 7319   3.144  15.456  10.641  0.3239  0.1556 -0.0430
  458loPI   C2A 7320   3.119  15.435  10.280  0.0025  0.1753  0.1100
  458loPI   C3A 7321   3.062  15.564   9.894  0.4838  0.1080 -0.1947
  458loPI   C4A 7322   3.010  15.519   9.436  0.0399  0.0118 -0.0087
  458loPI   C5A 7323   2.859  15.589   8.979  0.1363  0.0575  0.0434
  458loPI   C6A 7324   2.965  15.342   8.662 -0.0517  0.1700 -0.3335
  458loPI   C1B 7325   2.647  15.393  10.616  0.1100 -0.2173  0.1682
  458loPI   C2B 7326   2.627  15.429  10.122 -0.2137  0.1140 -0.2268
  458loPI   C3B 7327   2.590  15.441   9.710  0.0094 -0.1411 -0.0540
  458loPI   C4B 7328   2.445  15.397   9.226 -0.2811 -0.0500 -0.0191
  459loPI    C1 7329  15.774   8.920  11.803 -0.0855 -0.0266 -0.0647
  459loPI    C2 7330  15.605   8.558  11.821 -0.0365 -0.0493 -0.0611
  459loPI    C3 7331  15.881   8.664  12.091 -0.0712  0.0010 -0.0452
  459loPI   PO4 7332  15.850   8.942  11.635  0.0345  0.1285  0.1877
  459loPI   GL1 7333  15.649   8.761  11.266 -0.0488 -0.0818 -0.0155
  459loPI   GL2 7334  15.845   8.571  11.301  0.3537  0.0349  0.2342
  459loPI   C1A 7335  15.710   8.826  10.848  0.0231 -0.1147 -0.0514
  459loPI   C2A 7336  15.608   8.754  10.370  0.1572 -0.1301 -0.2526
  459loPI   C3A 7337  15.626   8.803   9.998  0.0007 -0.2147 -0.2275
  459loPI   C4A 7338  15.662   8.822   9.456 -0.0309 -0.0180 -0.0213
  459loPI   C5A 7339  15.693   8.733   9.036  0.0698  0.1077  0.0575
  459loPI   C6A 7340  15.357   8.734   8.716 -0.4626 -0.3463 -0.1550
  459loPI   C1B 7341  16.004   8.348  10.846  0.0490  0.0442 -0.0832
  459loPI   C2B 7342  15.955   8.356  10.447 -0.1488  0.0193 -0.0861
  459loPI   C3B 7343  15.966   8.421  10.073  0.0886 -0.1574  0.0443
  459loPI   C4B 7344  16.043   8.407   9.653 -0.1115 -0.1235 -0.2937
  460loPI    C1 7345  13.007   8.699  11.848  0.0295  0.0509 -0.1101
  460loPI    C2 7346  13.135   9.040  12.014  0.0858  0.1034 -0.2603
  460loPI    C3 7347  12.983   8.751  12.244 -0.1994  0.3307 -0.1565
  460loPI   PO4 7348  12.965   8.763  11.654 -0.1266 -0.1907  0.2083
  460loPI   GL1 7349  13.108   8.689  11.251 -0.1280  0.2917 -0.1010
  460loPI   GL2 7350  12.914   8.946  11.195 -0.3869  0.1074 -0.0607
  460loPI   C1A 7351  13.366   8.791  10.907  0.0430 -0.0169 -0.3799
  460loPI   C2A 7352  13.362   8.805  10.484 -0.0335  0.1033  0.1039
  460loPI   C3A 7353  13.330   8.796   9.988  0.0037 -0.1018 -0.2113
  460loPI   C4A 7354  13.352   8.734   9.581 -0.2559 -0.0704  0.1621
  460loPI   C5A 7355  13.286   8.701   9.191  0.0909 -0.0071  0.2785
  460loPI   C6A 7356  13.016   8.817   8.764 -0.0471  0.1696  0.1814
  460loPI   C1B 7357  12.977   9.094  10.780 -0.1061  0.0500  0.0158
  460loPI   C2B 7358  12.844   9.159  10.349  0.1416  0.0924 -0.2169
  460loPI   C3B 7359  12.989   9.204   9.979  0.0227  0.1318 -0.1462
  460loPI   C4B 7360  13.023   9.128   9.597  0.3562  0.2834  0.1561
  461loPI    C1 7361   2.519  10.493  11.867  0.1386  0.3567  0.0626
  461loPI    C2 7362   2.850  10.335  12.025 -0.0575 -0.0857  0.0440
  461loPI    C3 7363   2.547  10.443  12.263 -0.0128  0.0535  0.0381
  461loPI   PO4 7364   2.550  10.381  11.600 -0.2564 -0.1185 -0.2890
  461loPI   GL1 7365   2.560  10.447  11.179  0.1570 -0.0539  0.1671
  461loPI   GL2 7366   2.322  10.647  11.042  0.1242  0.1133  0.3347
  461loPI   C1A 7367   2.522  10.291  10.759  0.0421  0.1612  0.0181
  461loPI   C2A 7368   2.529  10.203  10.444  0.3625  0.1491 -0.1867
  461loPI   C3A 7369   2.479  10.247   9.976  0.1340 -0.1656 -0.0711
  461loPI   C4A 7370   2.406  10.131   9.584 -0.2572  0.3659 -0.1272
  461loPI   C5A 7371   2.001  10.059   9.242  0.0829 -0.2024 -0.1213
  461loPI   C6A 7372   1.921   9.772   8.936  0.0107 -0.0596 -0.0399
  461loPI   C1B 7373   2.201  10.685  10.654 -0.1542 -0.2239 -0.1626
  461loPI   C2B 7374   2.113  10.614  10.301  0.1310  0.2528  0.1677
  461loPI   C3B 7375   2.124  10.575   9.873  0.1965  0.0241  0.0337
  461loPI   C4B 7376   2.121  10.516   9.441  0.1403 -0.0821 -0.0814
  462loPI    C1 7377  11.695   9.481  11.785  0.0807  0.0886 -0.1399
  462loPI    C2 7378  11.511   9.485  12.141  0.2180 -0.0516 -0.0663
  462loPI    C3 7379  11.569   9.139  11.949  0.2341  0.0127 -0.1788
  462loPI   PO4 7380  11.519   9.666  11.653 -0.0721 -0.1035 -0.0392
  462loPI   GL1 7381  11.439   9.700  11.124  0.2480  0.0385  0.3479
  462loPI   GL2 7382  11.168   9.567  10.963 -0.0344 -0.0284  0.0510
  462loPI   C1A 7383  11.709   9.731  10.662  0.0415 -0.1151 -0.1590
  462loPI   C2A 7384  11.643   9.682  10.229  0.2772 -0.2181 -0.0797
  462loPI   C3A 7385  11.663   9.677   9.814  0.1837 -0.0289  0.0845
  462loPI   C4A 7386  11.680   9.693   9.420 -0.2696 -0.0833  0.3832
  462loPI   C5A 7387  11.768   9.762   9.016  0.1135 -0.1281 -0.1878
  462loPI   C6A 7388  12.145   9.861   8.790 -0.2040  0.0467  0.1309
  462loPI   C1B 7389  11.217   9.618  10.532  0.1258  0.0528  0.0162
  462loPI   C2B 7390  11.190   9.634  10.085  0.1742 -0.1076 -0.1343
  462loPI   C3B 7391  11.199   9.547   9.595  0.1141 -0.0652 -0.0105
  462loPI   C4B 7392  11.236   9.632   9.133 -0.0213 -0.1543 -0.3667
  463loPI    C1 7393   1.280   3.732  11.592 -0.1687  0.0286  0.1891
  463loPI    C2 7394   1.505   3.498  11.826  0.1362  0.1273  0.0010
  463loPI    C3 7395   1.125   3.573  11.925  0.2382  0.1129  0.4268
  463loPI   PO4 7396   1.333   3.588  11.337 -0.0760  0.1099  0.0292
  463loPI   GL1 7397   1.451   3.482  11.014  0.1227  0.1019 -0.1285
  463loPI   GL2 7398   1.300   3.146  11.145  0.4340  0.1230 -0.1245
  463loPI   C1A 7399   1.406   3.349  10.620  0.0452 -0.3956  0.0919
  463loPI   C2A 7400   1.413   3.335  10.175  0.1624 -0.3288  0.0510
  463loPI   C3A 7401   1.320   3.401   9.847 -0.0177 -0.2858  0.0056
  463loPI   C4A 7402   1.259   3.395   9.397  0.1663 -0.1566 -0.3310
  463loPI   C5A 7403   1.078   3.263   9.073 -0.4610 -0.3126 -0.0091
  463loPI   C6A 7404   1.126   3.237   8.717  0.2819 -0.3707 -0.4072
  463loPI   C1B 7405   1.197   2.956  10.773  0.0017 -0.0197 -0.0455
  463loPI   C2B 7406   1.276   2.867  10.302 -0.0843  0.0956  0.1003
  463loPI   C3B 7407   1.183   2.871   9.885 -0.2080 -0.1964  0.2595
  463loPI   C4B 7408   1.158   2.903   9.386 -0.0021 -0.0731 -0.0013
  464loPI    C1 7409   9.520   4.010  12.005  0.0120 -0.0510  0.1709
  464loPI    C2 7410   9.287   4.036  12.329  0.0986  0.2571  0.2119
  464loPI    C3 7411   9.528   3.720  12.280  0.0703  0.1991  0.4369
  464loPI   PO4 7412   9.393   3.952  11.675  0.1801  0.2075  0.0696
  464loPI   GL1 7413   9.284   4.096  11.245 -0.1100  0.0813 -0.1698
  464loPI   GL2 7414   9.560   4.129  11.200  0.2143  0.1248  0.1595
  464loPI   C1A 7415   9.078   4.009  10.908  0.0460 -0.3086 -0.3056
  464loPI   C2A 7416   9.064   4.089  10.453 -0.2652 -0.3556  0.2019
  464loPI   C3A 7417   9.177   4.061  10.053 -0.0589 -0.1697 -0.0007
  464loPI   C4A 7418   9.155   4.081   9.635 -0.0550 -0.1371 -0.1407
  464loPI   C5A 7419   9.137   4.377   9.247  0.3056  0.1443 -0.0161
  464loPI   C6A 7420   9.487   4.515   9.016  0.1642 -0.1475 -0.1341
  464loPI   C1B 7421   9.636   4.231  10.783 -0.0780  0.1439 -0.1710
  464loPI   C2B 7422   9.607   4.236  10.261  0.0929  0.1216 -0.2023
  464loPI   C3B 7423   9.579   4.217   9.883 -0.1630 -0.2523  0.2562
  464loPI   C4B 7424   9.634   4.182   9.398  0.0790 -0.0976  0.1079
  465loPI    C1 7425   9.360   2.729  11.933  0.1191 -0.1873  0.1676
  465loPI    C2 7426   9.051   2.890  12.129  0.1045  0.1705 -0.1374
  465loPI    C3 7427   9.371   2.762  12.331 -0.2230 -0.1746  0.1792
  465loPI   PO4 7428   9.264   2.581  11.772  0.0837  0.2147  0.1392
  465loPI   GL1 7429   9.421   2.630  11.382  0.0050  0.0268  0.0002
  465loPI   GL2 7430   9.506   2.283  11.100  0.0681 -0.1366 -0.0262
  465loPI   C1A 7431   9.187   2.624  10.938 -0.0485  0.2774 -0.1011
  465loPI   C2A 7432   9.137   2.644  10.489  0.2960 -0.0359 -0.0103
  465loPI   C3A 7433   9.188   2.772  10.092  0.0630  0.1431 -0.1220
  465loPI   C4A 7434   9.247   2.790   9.717  0.2858  0.0388  0.0240
  465loPI   C5A 7435   9.379   2.842   9.161  0.1536  0.2489  0.0304
  465loPI   C6A 7436   9.102   2.673   8.883  0.1558  0.1214 -0.0442
  465loPI   C1B 7437   9.572   2.351  10.561  0.0533 -0.0351  0.0897
  465loPI   C2B 7438   9.487   2.304  10.177  0.0445  0.0307  0.0805
  465loPI   C3B 7439   9.541   2.366   9.795  0.2927 -0.1988 -0.1796
  465loPI   C4B 7440   9.556   2.281   9.357  0.1018  0.1274  0.1747
  466loPI    C1 7441  11.687   6.825  11.797 -0.0032 -0.1202 -0.0941
  466loPI    C2 7442  11.954   6.770  12.090  0.0378  0.1907 -0.0699
  466loPI    C3 7443  11.565   6.705  12.158  0.0507  0.2329  0.0445
  466loPI   PO4 7444  11.806   6.911  11.616  0.1497  0.2583 -0.4170
  466loPI   GL1 7445  11.907   6.807  11.243 -0.0530 -0.0278  0.0595
  466loPI   GL2 7446  11.681   6.673  11.212  0.0541  0.0147  0.0066
  466loPI   C1A 7447  11.864   7.112  10.928 -0.2527 -0.1455  0.1675
  466loPI   C2A 7448  11.825   7.045  10.573  0.0732  0.2252 -0.2436
  466loPI   C3A 7449  11.804   6.985  10.169 -0.1693  0.2007  0.1240
  466loPI   C4A 7450  11.779   7.002   9.808 -0.1991  0.1690  0.0822
  466loPI   C5A 7451  11.848   7.008   9.392  0.0067  0.2275 -0.0072
  466loPI   C6A 7452  11.750   7.151   9.029 -0.2285  0.1760 -0.0296
  466loPI   C1B 7453  11.680   6.599  10.790  0.2119 -0.0313 -0.1148
  466loPI   C2B 7454  11.749   6.578  10.413 -0.0804 -0.3133  0.0133
  466loPI   C3B 7455  11.702   6.516  10.029 -0.0169  0.0832  0.0603
  466loPI   C4B 7456  11.683   6.540   9.641 -0.2329  0.2892 -0.0682
  467loPI    C1 7457   6.260   0.237  11.652  0.0440 -0.3204 -0.0864
  467loPI    C2 7458   6.368   0.004  11.958 -0.1052  0.1395  0.3312
  467loPI    C3 7459   6.430   0.399  11.976 -0.0231  0.1642 -0.2837
  467loPI   PO4 7460   6.249   0.129  11.444  0.0159 -0.1519 -0.0189
  467loPI   GL1 7461   6.343   0.446  11.103 -0.0370 -0.2276  0.2494
  467loPI   GL2 7462   6.499   0.228  10.956  0.0548  0.2867 -0.1299
  467loPI   C1A 7463   6.207   0.701  10.812  0.1715 -0.3415 -0.2366
  467loPI   C2A 7464   6.182   0.762  10.354  0.2649  0.1234  0.1111
  467loPI   C3A 7465   6.236   0.689   9.886 -0.0037  0.1960  0.1874
  467loPI   C4A 7466   6.106   0.684   9.523 -0.0673  0.0313  0.2092
  467loPI   C5A 7467   6.088   0.682   9.092 -0.0791 -0.2358 -0.0356
  467loPI   C6A 7468   6.286   0.438   8.828  0.2102 -0.4358  0.1046
  467loPI   C1B 7469   6.609   0.304  10.545  0.1467  0.0744  0.2768
  467loPI   C2B 7470   6.524   0.299  10.101 -0.2751 -0.0141 -0.0262
  467loPI   C3B 7471   6.529   0.335   9.662  0.0353  0.0963  0.1420
  467loPI   C4B 7472   6.393   0.281   9.284 -0.0653  0.0881  0.0314
  468loPI    C1 7473  13.419   5.039  11.602  0.0479 -0.0161 -0.0995
  468loPI    C2 7474  13.284   5.218  11.934  0.0120  0.1026 -0.1774
  468loPI    C3 7475  13.533   4.905  11.962 -0.2536 -0.0997 -0.0322
  468loPI   PO4 7476  13.310   5.017  11.443 -0.1814 -0.5536  0.0586
  468loPI   GL1 7477  13.278   5.254  11.059  0.0201  0.4579  0.2227
  468loPI   GL2 7478  13.289   5.466  10.931 -0.0673 -0.0616  0.0297
  468loPI   C1A 7479  13.186   5.072  10.693  0.1601  0.0928 -0.0516
  468loPI   C2A 7480  13.146   5.105  10.257  0.1771  0.2469 -0.1714
  468loPI   C3A 7481  13.094   5.106   9.827  0.0225 -0.1640 -0.1613
  468loPI   C4A 7482  13.103   5.056   9.351 -0.1077 -0.0473  0.2583
  468loPI   C5A 7483  13.139   5.128   8.905 -0.3413 -0.2285 -0.0276
  468loPI   C6A 7484  13.038   5.488   8.728  0.1004 -0.0105  0.0568
  468loPI   C1B 7485  13.176   5.511  10.497  0.3126 -0.1522 -0.1403
  468loPI   C2B 7486  13.183   5.632  10.033 -0.1018  0.0189 -0.1130
  468loPI   C3B 7487  13.222   5.536   9.610 -0.1926  0.0310  0.1080
  468loPI   C4B 7488  13.215   5.585   9.200  0.0306 -0.1397  0.0394
  469loPI    C1 7489  11.467   8.608  11.827 -0.1037 -0.0921  0.1097
  469loPI    C2 7490  11.662   8.273  11.926 -0.0202 -0.1167 -0.1317
  469loPI    C3 7491  11.732   8.612  12.126  0.0516 -0.1938 -0.0251
  469loPI   PO4 7492  11.487   8.638  11.593  0.0648 -0.2963 -0.0532
  469loPI   GL1 7493  11.531   8.688  11.255  0.3406  0.2504 -0.2449
  469loPI   GL2 7494  11.755   8.451  11.028  0.0230 -0.0420  0.0948
  469loPI   C1A 7495  11.473   8.799  10.879 -0.0259  0.1322 -0.2281
  469loPI   C2A 7496  11.441   8.810  10.306 -0.2826 -0.0272  0.0435
  469loPI   C3A 7497  11.457   8.759   9.826  0.2862 -0.2891 -0.1648
  469loPI   C4A 7498  11.428   8.827   9.373  0.0266 -0.0112  0.1511
  469loPI   C5A 7499  11.456   8.755   8.914  0.0457 -0.0791 -0.0643
  469loPI   C6A 7500  11.519   8.746   8.544 -0.1803 -0.0127  0.1062
  469loPI   C1B 7501  11.730   8.379  10.643  0.2299  0.0003  0.1162
  469loPI   C2B 7502  11.698   8.437  10.145 -0.3254 -0.0765  0.0283
  469loPI   C3B 7503  11.766   8.407   9.705  0.2066  0.0955 -0.0931
  469loPI   C4B 7504  11.795   8.517   9.273  0.2082  0.1297  0.3853
  470loPI    C1 7505   2.123   1.140  11.669  0.0418  0.0261 -0.0818
  470loPI    C2 7506   2.393   1.031  11.943 -0.0530 -0.0429 -0.0150
  470loPI    C3 7507   2.017   0.897  11.969 -0.1019  0.0787 -0.0892
  470loPI   PO4 7508   2.222   1.130  11.471 -0.0907 -0.0555 -0.4161
  470loPI   GL1 7509   2.000   1.181  11.167 -0.1985 -0.0587 -0.2448
  470loPI   GL2 7510   1.747   1.101  11.095  0.2201 -0.0645  0.0126
  470loPI   C1A 7511   2.126   1.275  10.740  0.1528  0.1328 -0.0466
  470loPI   C2A 7512   2.152   1.217  10.303  0.3319 -0.0166 -0.1271
  470loPI   C3A 7513   2.104   1.285   9.902 -0.4829  0.3881 -0.0840
  470loPI   C4A 7514   2.031   1.255   9.401 -0.4047  0.0903  0.1931
  470loPI   C5A 7515   1.852   1.234   8.981  0.4198 -0.0208  0.1300
  470loPI   C6A 7516   1.552   1.006   8.934  0.2272 -0.1516 -0.1323
  470loPI   C1B 7517   1.659   1.162  10.657  0.1749 -0.2064  0.0149
  470loPI   C2B 7518   1.630   1.258  10.223 -0.1080 -0.1122  0.0157
  470loPI   C3B 7519   1.622   1.165   9.814 -0.1411 -0.0054  0.0311
  470loPI   C4B 7520   1.597   1.072   9.450 -0.0552  0.1075 -0.1269
  471loPI    C1 7521  12.878  17.116  11.762  0.0310 -0.0233 -0.1122
  471loPI    C2 7522  13.151  17.294  11.993 -0.0029 -0.1125 -0.0024
  471loPI    C3 7523  12.784  17.449  11.962 -0.0499 -0.1938  0.1384
  471loPI   PO4 7524  12.997  17.063  11.495 -0.2669 -0.0139  0.2110
  471loPI   GL1 7525  12.850  16.797  11.124 -0.0357 -0.0714 -0.0860
  471loPI   GL2 7526  12.939  16.491  11.024 -0.0542 -0.0344 -0.0829
  471loPI   C1A 7527  13.095  16.980  10.758  0.2453  0.1550 -0.3060
  471loPI   C2A 7528  12.986  16.875  10.325 -0.1137  0.1242 -0.0251
  471loPI   C3A 7529  12.925  16.856   9.952 -0.0414 -0.0573  0.0472
  471loPI   C4A 7530  12.960  16.853   9.523  0.1155  0.0662  0.2295
  471loPI   C5A 7531  12.956  17.166   9.225  0.0838 -0.0924  0.0968
  471loPI   C6A 7532  13.065  17.533   9.023  0.0020 -0.0560 -0.1223
  471loPI   C1B 7533  12.863  16.471  10.580 -0.0176  0.1401 -0.2366
  471loPI   C2B 7534  12.792  16.425  10.222 -0.1605 -0.0341 -0.2249
  471loPI   C3B 7535  12.727  16.346   9.892 -0.1950  0.1240  0.0034
  471loPI   C4B 7536  12.748  16.410   9.506 -0.0455  0.3198  0.0664
  472loPI    C1 7537  14.585   3.625  11.305 -0.2448  0.0547  0.2690
  472loPI    C2 7538  14.620   3.723  11.692 -0.1089  0.2779  0.2024
  472loPI    C3 7539  14.929   3.557  11.499 -0.1573  0.2201  0.1741
  472loPI   PO4 7540  14.367   3.765  11.163  0.2948 -0.0180 -0.0700
  472loPI   GL1 7541  14.401   3.990  10.812 -0.1334  0.0949  0.0824
  472loPI   GL2 7542  14.352   4.258  10.892 -0.0716  0.0374 -0.1187
  472loPI   C1A 7543  14.251   4.079  10.377  0.1545  0.0428  0.0435
  472loPI   C2A 7544  14.260   4.141   9.981 -0.2789 -0.1003 -0.1271
  472loPI   C3A 7545  14.253   4.079   9.570 -0.0763  0.2877  0.2509
  472loPI   C4A 7546  14.126   4.050   9.156  0.0754 -0.0097 -0.2357
  472loPI   C5A 7547  14.122   4.213   8.782 -0.0046  0.2124 -0.0143
  472loPI   C6A 7548  14.033   4.136   8.339  0.0562  0.3511  0.1408
  472loPI   C1B 7549  14.383   4.571  10.552 -0.0213  0.0780  0.2687
  472loPI   C2B 7550  14.319   4.612  10.183  0.0842 -0.0035 -0.0835
  472loPI   C3B 7551  14.431   4.652   9.734  0.1859 -0.1128  0.0846
  472loPI   C4B 7552  14.361   4.521   9.281  0.1526 -0.1184  0.2032
  473loPI    C1 7553  16.803  13.445  11.522 -0.1531 -0.0641  0.0437
  473loPI    C2 7554  16.761  13.717  11.813 -0.0780  0.0520 -0.0531
  473loPI    C3 7555  16.454  13.637  11.569 -0.0291  0.2211 -0.1720
  473loPI   PO4 7556  17.128  13.478  11.493 -0.0253  0.1359  0.2094
  473loPI   GL1 7557  17.144  13.626  11.130 -0.1181 -0.1021 -0.1693
  473loPI   GL2 7558  17.005  13.333  11.024  0.0119 -0.0325 -0.0629
  473loPI   C1A 7559  17.214  13.813  10.642  0.2151 -0.1623  0.1105
  473loPI   C2A 7560  17.156  13.767  10.203  0.1264  0.1586  0.0547
  473loPI   C3A 7561  17.102  13.747   9.780 -0.2715 -0.3519 -0.2236
  473loPI   C4A 7562  17.108  13.741   9.373  0.0957 -0.1458  0.0138
  473loPI   C5A 7563  17.238  13.912   9.056 -0.1883  0.2977  0.1170
  473loPI   C6A 7564  17.408  14.101   8.667  0.2470  0.1417  0.3277
  473loPI   C1B 7565  17.076  13.208  10.610  0.1953  0.0903 -0.1664
  473loPI   C2B 7566  16.988  13.253  10.306  0.2715 -0.1048 -0.3421
  473loPI   C3B 7567  16.959  13.255   9.870  0.2640  0.0938 -0.1094
  473loPI   C4B 7568  16.918  13.278   9.401  0.2191 -0.4315 -0.1672
  474loPI    C1 7569   5.091  13.705  11.714 -0.3337 -0.1623 -0.0695
  474loPI    C2 7570   4.932  14.020  11.901  0.0785 -0.0593  0.1187
  474loPI    C3 7571   4.850  13.650  12.028  0.0730 -0.0033  0.2803
  474loPI   PO4 7572   5.050  13.723  11.460 -0.0930 -0.1811 -0.0086
  474loPI   GL1 7573   5.104  13.497  11.049  0.0437 -0.3172  0.0252
  474loPI   GL2 7574   5.011  13.921  10.992 -0.0858  0.0778  0.0905
  474loPI   C1A 7575   4.877  13.507  10.619 -0.1115 -0.3958  0.0290
  474loPI   C2A 7576   4.922  13.469  10.277  0.1014 -0.0699  0.0356
  474loPI   C3A 7577   4.905  13.589   9.793  0.0434  0.2576 -0.0812
  474loPI   C4A 7578   4.820  13.616   9.349  0.2956 -0.4780 -0.2278
  474loPI   C5A 7579   5.085  13.629   9.039  0.1800 -0.1597 -0.0992
  474loPI   C6A 7580   5.027  13.498   8.653 -0.1794  0.2258  0.1742
  474loPI   C1B 7581   5.011  14.101  10.559  0.3153  0.1067 -0.3602
  474loPI   C2B 7582   5.027  13.929  10.121 -0.0368 -0.0044 -0.0053
  474loPI   C3B 7583   4.906  14.033   9.724 -0.2330  0.0128 -0.1085
  474loPI   C4B 7584   4.975  14.095   9.228  0.0878  0.0613 -0.1792
  475loPI    C1 7585  14.305  12.120  12.124  0.1740 -0.1341  0.1902
  475loPI    C2 7586  14.372  11.880  12.437 -0.0749 -0.0607  0.3025
  475loPI    C3 7587  14.097  12.170  12.462  0.0859  0.1127  0.1021
  475loPI   PO4 7588  14.266  11.930  11.938  0.2026  0.0909  0.1877
  475loPI   GL1 7589  14.307  11.801  11.481  0.1055  0.4367  0.0720
  475loPI   GL2 7590  14.510  11.940  11.274  0.0211  0.2959  0.3376
  475loPI   C1A 7591  14.237  11.653  10.991 -0.4669  0.1130 -0.1432
  475loPI   C2A 7592  14.116  11.673  10.576  0.1595 -0.2228 -0.0746
  475loPI   C3A 7593  14.052  11.682  10.149 -0.3391  0.1415 -0.1951
  475loPI   C4A 7594  14.061  11.681   9.681 -0.1691  0.2074 -0.0250
  475loPI   C5A 7595  14.053  11.642   9.249 -0.0285  0.2173  0.0166
  475loPI   C6A 7596  14.303  11.597   8.932  0.1477  0.1886  0.0652
  475loPI   C1B 7597  14.696  11.840  10.912 -0.3505 -0.1212  0.1004
  475loPI   C2B 7598  14.720  11.788  10.453  0.0015 -0.1310  0.1004
  475loPI   C3B 7599  14.588  11.797  10.020 -0.0389 -0.0226 -0.0689
  475loPI   C4B 7600  14.667  11.810   9.654  0.2037 -0.2050 -0.2437
  476loPI    C1 7601   2.120  17.167  11.696 -0.2624  0.0363 -0.1213
  476loPI    C2 7602   1.980  17.412  11.979 -0.2017  0.0119 -0.0703
  476loPI    C3 7603   2.071  17.033  12.070  0.1199  0.0920 -0.0477
  476loPI   PO4 7604   2.287  17.318  11.578 -0.1473  0.2786 -0.0401
  476loPI   GL1 7605   2.640  17.246  11.134  0.3598  0.1060 -0.1555
  476loPI   GL2 7606   2.312  17.055  11.126 -0.0294  0.2006  0.1972
  476loPI   C1A 7607   2.725  17.276  10.708 -0.0919  0.0337  0.0892
  476loPI   C2A 7608   2.663  17.454  10.353 -0.0370 -0.0027 -0.1382
  476loPI   C3A 7609   2.660  17.318  10.002  0.0860  0.2981 -0.4842
  476loPI   C4A 7610   2.559  17.339   9.556 -0.2771 -0.0400 -0.0515
  476loPI   C5A 7611   2.419  17.479   9.182  0.0660 -0.0044 -0.0540
  476loPI   C6A 7612   2.063  17.549   8.941  0.1652 -0.0760 -0.0390
  476loPI   C1B 7613   2.193  17.227  10.725  0.2315  0.1795 -0.0425
  476loPI   C2B 7614   2.209  17.341  10.263  0.0579  0.0924  0.0807
  476loPI   C3B 7615   2.147  17.183   9.832  0.0788  0.0564 -0.0227
  476loPI   C4B 7616   2.089  17.182   9.333  0.1492 -0.0699 -0.0293
  477loPI    C1 7617   3.109  11.871  11.773  0.0442  0.1208 -0.0975
  477loPI    C2 7618   3.338  11.564  11.886 -0.1691  0.0108  0.0424
  477loPI    C3 7619   3.389  11.923  12.054 -0.1831 -0.0438  0.1643
  477loPI   PO4 7620   3.100  11.847  11.561 -0.0014 -0.1792  0.0942
  477loPI   GL1 7621   2.846  11.970  11.307  0.1073 -0.1407  0.0322
  477loPI   GL2 7622   2.833  11.699  11.191 -0.1018  0.0210  0.1787
  477loPI   C1A 7623   2.661  12.147  10.968  0.0733  0.0626  0.2728
  477loPI   C2A 7624   2.677  12.131  10.516  0.0483  0.0425 -0.0005
  477loPI   C3A 7625   2.591  12.019  10.121 -0.0242 -0.1502 -0.1652
  477loPI   C4A 7626   2.460  12.036   9.760 -0.3707 -0.1787  0.1108
  477loPI   C5A 7627   2.546  11.983   9.309 -0.2264  0.2391 -0.0753
  477loPI   C6A 7628   2.837  11.770   8.986 -0.2671 -0.0694  0.1770
  477loPI   C1B 7629   2.961  11.778  10.754  0.0670  0.1214  0.1021
  477loPI   C2B 7630   3.045  11.825  10.373 -0.1891  0.1579  0.0436
  477loPI   C3B 7631   2.917  11.718   9.996 -0.1743 -0.0184  0.0548
  477loPI   C4B 7632   2.814  11.717   9.565 -0.1673 -0.1921  0.1882
  478loPI    C1 7633  12.348  10.362  11.621  0.2123  0.0725 -0.0278
  478loPI    C2 7634  12.170  10.418  11.975  0.1545  0.1191 -0.0639
  478loPI    C3 7635  12.566  10.365  11.956  0.1605  0.1373  0.0057
  478loPI   PO4 7636  12.216  10.045  11.527 -0.1954  0.0062 -0.1073
  478loPI   GL1 7637  12.304   9.770  11.151  0.0423  0.0655  0.1183
  478loPI   GL2 7638  12.035   9.876  11.062  0.3368 -0.2034 -0.0652
  478loPI   C1A 7639  12.162   9.457  10.809 -0.2178  0.3716  0.1848
  478loPI   C2A 7640  12.053   9.354  10.362 -0.0270 -0.0275 -0.0649
  478loPI   C3A 7641  12.044   9.354   9.893 -0.2259  0.0046 -0.3947
  478loPI   C4A 7642  12.197   9.392   9.425  0.0372  0.1121  0.0841
  478loPI   C5A 7643  12.554   9.441   9.125  0.0564  0.1404 -0.1017
  478loPI   C6A 7644  12.623   9.808   8.876 -0.1567 -0.0498 -0.3706
  478loPI   C1B 7645  12.213   9.941  10.706 -0.2388  0.0725  0.2533
  478loPI   C2B 7646  12.238   9.888  10.224  0.2522  0.0004 -0.2549
  478loPI   C3B 7647  12.157   9.855   9.788  0.2261 -0.0907 -0.1054
  478loPI   C4B 7648  12.183   9.918   9.336  0.0902  0.1653  0.1488
  479loPI    C1 7649   9.269  12.545  11.434 -0.0630  0.1544 -0.0040
  479loPI    C2 7650   8.908  12.565  11.607 -0.1424 -0.3383 -0.0958
  479loPI    C3 7651   9.205  12.364  11.785  0.0045 -0.1824 -0.1610
  479loPI   PO4 7652   9.195  12.419  11.136 -0.1621  0.2876 -0.2384
  479loPI   GL1 7653   9.182  12.487  10.791 -0.0786 -0.0576  0.2883
  479loPI   GL2 7654   8.997  12.145  10.779  0.2514  0.0296 -0.1068
  479loPI   C1A 7655   9.176  12.411  10.388 -0.3408 -0.1248 -0.0708
  479loPI   C2A 7656   9.174  12.428   9.919 -0.1990 -0.2415 -0.1998
  479loPI   C3A 7657   9.149  12.266   9.571  0.2355  0.1941  0.4102
  479loPI   C4A 7658   9.013  12.166   9.175  0.1664 -0.3417  0.2056
  479loPI   C5A 7659   8.992  11.764   8.957  0.2648  0.3101 -0.1783
  479loPI   C6A 7660   8.843  11.349   8.922  0.1736  0.1311 -0.1737
  479loPI   C1B 7661   8.699  12.280  10.383  0.0415 -0.0466 -0.2043
  479loPI   C2B 7662   8.651  12.164   9.935  0.2690 -0.0598  0.2087
  479loPI   C3B 7663   8.613  12.147   9.542 -0.0355  0.1240  0.1509
  479loPI   C4B 7664   8.207  11.953   9.416 -0.1476 -0.0661 -0.0645
  480loPI    C1 7665   9.065   9.398  11.570 -0.3166  0.0614 -0.1224
  480loPI    C2 7666   9.133   9.650  11.874  0.0571 -0.2134  0.0295
  480loPI    C3 7667   8.789   9.447  11.855 -0.1091  0.0590  0.0820
  480loPI   PO4 7668   9.090   9.538  11.396 -0.1956 -0.0565  0.0393
  480loPI   GL1 7669   9.110   9.781  11.078 -0.2339 -0.0853  0.1091
  480loPI   GL2 7670   9.502   9.799  11.057  0.2876  0.0440  0.0727
  480loPI   C1A 7671   9.208   9.606  10.651  0.1513 -0.2894 -0.1928
  480loPI   C2A 7672   9.305   9.535  10.265 -0.0682 -0.0015 -0.1444
  480loPI   C3A 7673   9.212   9.474   9.758 -0.2970 -0.0880 -0.1609
  480loPI   C4A 7674   9.189   9.561   9.251  0.3195  0.2170  0.0947
  480loPI   C5A 7675   9.239   9.431   8.793  0.1481  0.1679 -0.0021
  480loPI   C6A 7676   9.343   9.130   8.578  0.0951 -0.0413  0.1135
  480loPI   C1B 7677   9.435  10.113  10.637  0.0097 -0.3872  0.1741
  480loPI   C2B 7678   9.445  10.048  10.246  0.3109 -0.1305 -0.1229
  480loPI   C3B 7679   9.379  10.140   9.870 -0.1149  0.0220  0.0004
  480loPI   C4B 7680   9.408   9.941   9.471  0.0591  0.0742 -0.0477
  481loPI    C1 7681   0.277   6.654  11.653 -0.1574 -0.1220  0.0770
  481loPI    C2 7682   0.165   6.270  11.671 -0.0340 -0.1622 -0.0007
  481loPI    C3 7683   0.432   6.413  11.932 -0.1117 -0.1181  0.0550
  481loPI   PO4 7684   0.300   6.690  11.452  0.0089 -0.0060 -0.2093
  481loPI   GL1 7685   0.634   6.715  11.159  0.1464  0.0323  0.1868
  481loPI   GL2 7686   0.688   7.044  11.194 -0.0963  0.4348  0.1103
  481loPI   C1A 7687   0.408   6.495  10.794  0.1415 -0.1540 -0.0207
  481loPI   C2A 7688   0.454   6.481  10.366  0.2511 -0.0200 -0.0969
  481loPI   C3A 7689   0.515   6.441  10.022 -0.2188  0.5400  0.2551
  481loPI   C4A 7690   0.459   6.424   9.601  0.2376 -0.0671  0.0325
  481loPI   C5A 7691   0.382   6.360   9.270  0.1006  0.2496  0.0651
  481loPI   C6A 7692   0.349   6.504   8.818  0.1358  0.2565  0.0300
  481loPI   C1B 7693   0.643   6.979  10.727 -0.3485  0.0492  0.1338
  481loPI   C2B 7694   0.478   6.975  10.259  0.0210 -0.1016 -0.4110
  481loPI   C3B 7695   0.624   6.909   9.860 -0.0974 -0.0038  0.0372
  481loPI   C4B 7696   0.608   6.913   9.301 -0.0493 -0.0141 -0.2110
  482loPI    C1 7697  14.333   8.458  11.739 -0.2004  0.3977 -0.0902
  482loPI    C2 7698  14.690   8.280  11.774 -0.2719  0.2361 -0.1747
  482loPI    C3 7699  14.541   8.491  12.080 -0.2869 -0.0378  0.0097
  482loPI   PO4 7700  14.346   8.541  11.466  0.1616 -0.1926 -0.0877
  482loPI   GL1 7701  14.438   8.720  11.154  0.1605 -0.2603 -0.1639
  482loPI   GL2 7702  14.315   8.912  11.003  0.0132 -0.1095 -0.2364
  482loPI   C1A 7703  14.680   8.611  10.721  0.0539  0.2324  0.0132
  482loPI   C2A 7704  14.641   8.592  10.351 -0.1252 -0.0732 -0.3511
  482loPI   C3A 7705  14.648   8.613   9.904 -0.2745 -0.1112  0.3135
  482loPI   C4A 7706  14.700   8.602   9.477  0.0392 -0.1928  0.2384
  482loPI   C5A 7707  14.752   8.500   9.069 -0.0453 -0.2163  0.1167
  482loPI   C6A 7708  14.900   8.528   8.749 -0.1210  0.0244 -0.0954
  482loPI   C1B 7709  14.277   8.967  10.515 -0.0895 -0.0120  0.2740
  482loPI   C2B 7710  14.303   8.951  10.086  0.4753  0.0829 -0.2252
  482loPI   C3B 7711  14.368   8.961   9.587  0.1314 -0.1382 -0.3624
  482loPI   C4B 7712  14.259   9.065   9.220  0.1466  0.2745  0.1176
  483loPI    C1 7713  11.753   4.537  11.934 -0.1634  0.1023  0.0231
  483loPI    C2 7714  11.632   4.328  12.253  0.0966 -0.2489 -0.1026
  483loPI    C3 7715  11.979   4.526  12.264 -0.1238  0.1417 -0.0028
  483loPI   PO4 7716  11.715   4.376  11.722  0.1353  0.3227 -0.2046
  483loPI   GL1 7717  11.700   4.416  11.281  0.0674  0.1765 -0.1281
  483loPI   GL2 7718  11.724   4.805  11.209 -0.1327 -0.0203  0.2788
  483loPI   C1A 7719  11.470   4.254  10.965  0.1258 -0.2401  0.0887
  483loPI   C2A 7720  11.366   4.225  10.575  0.2139 -0.1546 -0.4094
  483loPI   C3A 7721  11.419   4.166  10.150  0.1020 -0.1636  0.2806
  483loPI   C4A 7722  11.427   4.240   9.623  0.3294 -0.0691  0.0155
  483loPI   C5A 7723  11.526   4.229   9.220  0.0343  0.1635  0.0711
  483loPI   C6A 7724  11.388   4.413   8.848  0.0973 -0.0708  0.1122
  483loPI   C1B 7725  11.488   4.724  10.773 -0.0233 -0.1451 -0.1824
  483loPI   C2B 7726  11.520   4.628  10.400  0.1261 -0.2538  0.0973
  483loPI   C3B 7727  11.539   4.640   9.919  0.0117 -0.1258  0.1736
  483loPI   C4B 7728  11.619   4.683   9.430  0.0155 -0.1275  0.0634
  484loPI    C1 7729   4.293   2.432  11.362 -0.1721  0.0158 -0.0197
  484loPI    C2 7730   4.085   2.527  11.690  0.1854  0.0011  0.2163
  484loPI    C3 7731   4.402   2.746  11.584 -0.0863  0.1708 -0.2766
  484loPI   PO4 7732   4.387   2.147  11.373 -0.0884  0.0326  0.1340
  484loPI   GL1 7733   4.450   2.002  11.089  0.0590 -0.1202 -0.0966
  484loPI   GL2 7734   4.641   1.836  10.958 -0.1461 -0.2842  0.1767
  484loPI   C1A 7735   4.421   2.215  10.709 -0.1192 -0.0663  0.2935
  484loPI   C2A 7736   4.369   2.302  10.305 -0.0786  0.0606  0.2390
  484loPI   C3A 7737   4.399   2.278   9.923 -0.2390 -0.3041 -0.0181
  484loPI   C4A 7738   4.315   2.199   9.478  0.2003  0.2148 -0.0852
  484loPI   C5A 7739   4.102   2.441   9.063  0.0573 -0.2696 -0.1038
  484loPI   C6A 7740   4.057   2.787   8.858 -0.1238  0.1324 -0.1071
  484loPI   C1B 7741   4.673   1.841  10.413 -0.1092  0.2552 -0.1275
  484loPI   C2B 7742   4.677   1.822   9.970 -0.3645 -0.0900  0.1464
  484loPI   C3B 7743   4.691   1.739   9.521  0.0883 -0.1589  0.2118
  484loPI   C4B 7744   4.490   1.916   9.136  0.0949 -0.3209 -0.0295
  485loPI    C1 7745   9.594   8.788  11.736 -0.1413  0.0977 -0.0215
  485loPI    C2 7746   9.881   9.049  11.832 -0.0198  0.0268 -0.1886
  485loPI    C3 7747   9.727   8.809  12.112 -0.0057  0.1532 -0.0721
  485loPI   PO4 7748   9.570   8.693  11.529 -0.0924 -0.1745 -0.2282
  485loPI   GL1 7749   9.550   8.755  11.017 -0.0524 -0.2558 -0.0025
  485loPI   GL2 7750   9.807   8.936  10.918  0.1158  0.3683  0.1374
  485loPI   C1A 7751   9.514   8.692  10.543 -0.1283 -0.2358 -0.1026
  485loPI   C2A 7752   9.483   8.651  10.081 -0.0018 -0.1191 -0.1950
  485loPI   C3A 7753   9.399   8.664   9.630  0.0547 -0.1718 -0.4170
  485loPI   C4A 7754   9.167   8.581   9.267  0.2749 -0.1424  0.3266
  485loPI   C5A 7755   8.783   8.548   9.003  0.0586 -0.0253 -0.0676
  485loPI   C6A 7756   8.487   8.755   8.786  0.0438  0.0072  0.0104
  485loPI   C1B 7757   9.984   8.883  10.516 -0.1948  0.1287 -0.0612
  485loPI   C2B 7758  10.000   8.780  10.112  0.3423 -0.2057 -0.0377
  485loPI   C3B 7759   9.889   8.823   9.702  0.1590 -0.0067  0.1405
  485loPI   C4B 7760   9.778   8.733   9.270 -0.0513 -0.2055  0.1895
  486loPI    C1 7761  12.561   4.204  11.505 -0.0932  0.1007  0.1935
  486loPI    C2 7762  12.576   4.027  11.863 -0.1003  0.1598  0.2231
  486loPI    C3 7763  12.841   4.312  11.769  0.0773 -0.0499  0.0771
  486loPI   PO4 7764  12.303   4.126  11.438 -0.1768  0.2618 -0.0155
  486loPI   GL1 7765  12.109   4.242  11.065 -0.1659 -0.0960 -0.2173
  486loPI   GL2 7766  12.309   4.473  11.079 -0.3054 -0.3463  0.0711
  486loPI   C1A 7767  11.866   4.372  10.718  0.0133  0.0035 -0.0760
  486loPI   C2A 7768  11.881   4.299  10.286 -0.0545 -0.2594  0.0095
  486loPI   C3A 7769  11.968   4.313   9.847  0.1749  0.2207 -0.1160
  486loPI   C4A 7770  12.038   4.279   9.369  0.1743 -0.3045  0.0101
  486loPI   C5A 7771  11.993   4.599   9.027 -0.1844  0.0611 -0.2695
  486loPI   C6A 7772  11.819   4.746   8.654  0.0461  0.4397 -0.2532
  486loPI   C1B 7773  12.418   4.502  10.629  0.1716  0.0040 -0.1919
  486loPI   C2B 7774  12.348   4.465  10.305 -0.0920 -0.1480  0.1837
  486loPI   C3B 7775  12.420   4.439   9.869 -0.0814  0.1843 -0.1631
  486loPI   C4B 7776  12.480   4.444   9.459  0.0473 -0.1322  0.1644
  487loPI    C1 7777  14.885  15.666  11.701  0.0531  0.0641  0.1622
  487loPI    C2 7778  14.822  16.060  11.668  0.0247  0.0490  0.0305
  487loPI    C3 7779  14.913  15.901  12.023  0.2260  0.2015  0.0494
  487loPI   PO4 7780  14.993  15.604  11.527 -0.1363 -0.3132 -0.0082
  487loPI   GL1 7781  14.905  15.627  11.018 -0.2607  0.0449 -0.3278
  487loPI   GL2 7782  14.945  15.932  11.165 -0.1531  0.2438  0.1644
  487loPI   C1A 7783  14.883  15.640  10.605  0.2152 -0.0590 -0.0858
  487loPI   C2A 7784  14.831  15.460  10.163 -0.1156  0.0529 -0.1328
  487loPI   C3A 7785  14.836  15.506   9.757  0.0231 -0.2473  0.0298
  487loPI   C4A 7786  14.863  15.498   9.337 -0.2584 -0.0204 -0.0248
  487loPI   C5A 7787  15.015  15.865   9.125 -0.1699  0.0523  0.2779
  487loPI   C6A 7788  15.114  16.226   9.022 -0.0421 -0.0893  0.0697
  487loPI   C1B 7789  15.020  16.145  10.769 -0.0342 -0.0894 -0.1773
  487loPI   C2B 7790  14.983  16.041  10.311  0.3279 -0.0568  0.2327
  487loPI   C3B 7791  14.939  15.945   9.963 -0.0266  0.1425 -0.1161
  487loPI   C4B 7792  14.869  16.058   9.614  0.0077 -0.2801 -0.2444
  488loPI    C1 7793   9.220   5.615  12.142  0.1223  0.0020 -0.2039
  488loPI    C2 7794   8.870   5.531  12.317 -0.0319  0.3085 -0.3579
  488loPI    C3 7795   9.139   5.241  12.260 -0.1689  0.1132 -0.0392
  488loPI   PO4 7796   9.126   5.617  11.876  0.2179  0.0497 -0.1794
  488loPI   GL1 7797   9.163   5.386  11.560  0.4420  0.1548 -0.1970
  488loPI   GL2 7798   9.485   5.469  11.456 -0.0415 -0.1000 -0.1025
  488loPI   C1A 7799   9.063   5.307  11.169  0.0318  0.2613  0.1554
  488loPI   C2A 7800   9.060   5.426  10.729  0.0753  0.0443  0.0749
  488loPI   C3A 7801   9.080   5.468  10.298 -0.1091  0.0236  0.4767
  488loPI   C4A 7802   9.072   5.448   9.850  0.0683  0.2247 -0.1540
  488loPI   C5A 7803   9.160   5.478   9.421  0.0483 -0.0737  0.1081
  488loPI   C6A 7804   9.161   5.707   9.029 -0.0279  0.0826 -0.2251
  488loPI   C1B 7805   9.470   5.488  11.016 -0.2795 -0.0819  0.0587
  488loPI   C2B 7806   9.553   5.599  10.599  0.0726  0.1692  0.2442
  488loPI   C3B 7807   9.519   5.581  10.130  0.3068  0.0612 -0.0495
  488loPI   C4B 7808   9.523   5.656   9.755 -0.0994 -0.0065 -0.3165
  489loPI    C1 7809   3.410  12.250  11.720  0.4931  0.0893  0.0340
  489loPI    C2 7810   3.355  12.637  11.801  0.0827  0.0236  0.0890
  489loPI    C3 7811   3.206  12.359  12.046  0.1108 -0.1704 -0.1113
  489loPI   PO4 7812   3.438  12.283  11.376  0.1160 -0.1176  0.1673
  489loPI   GL1 7813   3.275  12.179  11.113 -0.0185  0.3975 -0.1451
  489loPI   GL2 7814   3.397  11.874  11.015 -0.0562  0.0317 -0.0283
  489loPI   C1A 7815   3.118  12.260  10.821 -0.2025 -0.0132  0.1390
  489loPI   C2A 7816   3.183  12.300  10.351  0.2500  0.1792 -0.0992
  489loPI   C3A 7817   3.152  12.255   9.978  0.2199  0.0197  0.1720
  489loPI   C4A 7818   2.923  12.193   9.516 -0.1145 -0.0691 -0.3251
  489loPI   C5A 7819   3.017  12.180   9.094  0.0540 -0.1029  0.3184
  489loPI   C6A 7820   3.377  12.090   8.758  0.3200  0.2843  0.2222
  489loPI   C1B 7821   3.501  11.926  10.536 -0.2003 -0.1572 -0.0763
  489loPI   C2B 7822   3.482  11.919  10.150  0.2358 -0.2326 -0.1351
  489loPI   C3B 7823   3.383  11.924   9.662  0.0789  0.1380 -0.0214
  489loPI   C4B 7824   3.469  11.838   9.173  0.0496  0.3222 -0.2144
  490loPI    C1 7825   1.862   4.509  11.646  0.1271  0.2977 -0.1073
  490loPI    C2 7826   1.493   4.635  11.732  0.0434  0.0064 -0.0298
  490loPI    C3 7827   1.770   4.614  12.020  0.0151 -0.1245 -0.0115
  490loPI   PO4 7828   1.905   4.583  11.364 -0.0905  0.3758 -0.3799
  490loPI   GL1 7829   1.965   4.834  11.012  0.0636 -0.1615 -0.1868
  490loPI   GL2 7830   1.746   4.830  10.858 -0.3105  0.0746  0.1372
  490loPI   C1A 7831   1.985   5.225  10.832 -0.3018  0.2936  0.0143
  490loPI   C2A 7832   1.990   5.470  10.506 -0.2746  0.0176 -0.3809
  490loPI   C3A 7833   2.058   5.377  10.070  0.1582 -0.2398 -0.0686
  490loPI   C4A 7834   1.872   5.403   9.682 -0.4377  0.0596  0.0580
  490loPI   C5A 7835   2.023   5.378   9.240  0.1130  0.0224 -0.2347
  490loPI   C6A 7836   2.002   5.543   8.800  0.0702 -0.1396  0.0044
  490loPI   C1B 7837   1.861   5.004  10.374  0.1357 -0.3326 -0.1097
  490loPI   C2B 7838   1.860   4.938   9.871 -0.0438 -0.2871 -0.0887
  490loPI   C3B 7839   1.777   4.913   9.478 -0.0429  0.0374 -0.3189
  490loPI   C4B 7840   1.554   4.924   9.080 -0.0403 -0.0819 -0.1330
  491loPI    C1 7841   8.413   1.685  11.751  0.1534 -0.0493  0.1850
  491loPI    C2 7842   8.577   1.967  11.982  0.0166  0.1060  0.0943
  491loPI    C3 7843   8.303   1.719  12.133  0.0701  0.0805  0.1499
  491loPI   PO4 7844   8.315   1.890  11.540  0.1639  0.0629  0.2643
  491loPI   GL1 7845   8.131   1.860  11.223  0.0512 -0.2030 -0.0002
  491loPI   GL2 7846   7.933   1.656  11.366 -0.0647 -0.2897  0.2197
  491loPI   C1A 7847   7.973   1.943  10.817 -0.1368 -0.0277  0.0626
  491loPI   C2A 7848   8.017   1.985  10.450 -0.2978  0.0550 -0.4029
  491loPI   C3A 7849   8.037   1.989  10.060  0.2493 -0.0125 -0.2781
  491loPI   C4A 7850   8.050   1.964   9.586 -0.3538  0.3142 -0.3190
  491loPI   C5A 7851   8.091   2.019   9.155  0.4399 -0.1424 -0.0580
  491loPI   C6A 7852   8.432   2.151   8.809  0.0612 -0.0028 -0.4017
  491loPI   C1B 7853   7.870   1.514  10.981  0.2134  0.1854 -0.0868
  491loPI   C2B 7854   7.859   1.512  10.509 -0.0350 -0.0035  0.0742
  491loPI   C3B 7855   7.814   1.502  10.071  0.0830  0.0575  0.4757
  491loPI   C4B 7856   7.811   1.528   9.562 -0.3441 -0.2190 -0.0636
  492loPI    C1 7857   6.046   7.373  11.676  0.0774 -0.0000  0.0639
  492loPI    C2 7858   6.282   7.506  11.970  0.0980 -0.2196  0.1487
  492loPI    C3 7859   5.885   7.503  12.018  0.0904 -0.0730  0.0982
  492loPI   PO4 7860   6.140   7.445  11.460 -0.2242 -0.1788  0.2514
  492loPI   GL1 7861   6.056   7.260  11.093  0.1835 -0.0601 -0.2453
  492loPI   GL2 7862   6.327   7.325  11.028 -0.0704 -0.2866 -0.0378
  492loPI   C1A 7863   5.910   7.459  10.758  0.1931 -0.1108 -0.0046
  492loPI   C2A 7864   5.813   7.206  10.451 -0.1354  0.2381  0.1159
  492loPI   C3A 7865   5.847   7.254  10.043 -0.1107 -0.2285  0.0720
  492loPI   C4A 7866   5.785   7.314   9.596  0.0841  0.1681  0.1013
  492loPI   C5A 7867   5.682   7.355   9.126  0.1675  0.3295 -0.0953
  492loPI   C6A 7868   5.858   7.552   8.700  0.0311 -0.1037  0.1176
  492loPI   C1B 7869   6.384   7.443  10.578 -0.0755 -0.1977 -0.2728
  492loPI   C2B 7870   6.327   7.338  10.163  0.0919  0.0832 -0.1436
  492loPI   C3B 7871   6.239   7.445   9.783  0.1304 -0.0778  0.1234
  492loPI   C4B 7872   6.279   7.429   9.314 -0.2486 -0.0229  0.0039
  493loPI    C1 7873  13.394  16.333  11.281  0.0877 -0.1226 -0.0131
  493loPI    C2 7874  13.587  16.553  11.553 -0.0841 -0.2498  0.2153
  493loPI    C3 7875  13.360  16.731  11.277  0.0367 -0.1237  0.1960
  493loPI   PO4 7876  13.504  16.171  11.184 -0.1068  0.0688  0.2524
  493loPI   GL1 7877  13.749  16.153  10.909 -0.1557 -0.3522 -0.1280
  493loPI   GL2 7878  14.077  16.302  10.803  0.0947 -0.1564 -0.2943
  493loPI   C1A 7879  13.603  16.111  10.518  0.0317  0.1261 -0.1985
  493loPI   C2A 7880  13.726  16.096  10.123 -0.0643 -0.0310 -0.0863
  493loPI   C3A 7881  13.668  16.096   9.692 -0.2178 -0.0023 -0.0373
  493loPI   C4A 7882  13.552  16.193   9.222  0.1870 -0.0587  0.2581
  493loPI   C5A 7883  13.621  16.139   8.866  0.3390  0.1281  0.0890
  493loPI   C6A 7884  13.602  15.966   8.414 -0.0819 -0.0398 -0.1422
  493loPI   C1B 7885  14.098  16.265  10.435  0.1565  0.0356  0.0340
  493loPI   C2B 7886  14.152  16.252   9.964 -0.1606  0.0764 -0.5942
  493loPI   C3B 7887  14.232  16.181   9.583 -0.0128  0.1755 -0.0517
  493loPI   C4B 7888  14.137  16.166   9.211 -0.1944 -0.4437 -0.0398
  494loPI    C1 7889   1.096  10.083  11.903  0.1401 -0.0018  0.1053
  494loPI    C2 7890   1.464  10.186  12.023  0.1607 -0.0523  0.0858
  494loPI    C3 7891   1.249   9.925  12.237  0.1750 -0.0983  0.0442
  494loPI   PO4 7892   1.126  10.009  11.643  0.0096 -0.0876  0.0091
  494loPI   GL1 7893   1.236  10.171  11.201 -0.3648  0.0643  0.0581
  494loPI   GL2 7894   1.435  10.399  11.154 -0.0172 -0.1115  0.0525
  494loPI   C1A 7895   1.407   9.967  10.877  0.0932 -0.0120  0.1544
  494loPI   C2A 7896   1.373  10.003  10.482 -0.0108 -0.0304  0.1591
  494loPI   C3A 7897   1.410   9.952  10.030  0.0386 -0.1776 -0.1949
  494loPI   C4A 7898   1.457   9.890   9.646  0.0649  0.0331 -0.1241
  494loPI   C5A 7899   1.538   9.910   9.277 -0.1990 -0.0622 -0.0715
  494loPI   C6A 7900   1.397   9.618   8.934  0.1476 -0.3213  0.1035
  494loPI   C1B 7901   1.181  10.365  10.784 -0.0532 -0.0844  0.0162
  494loPI   C2B 7902   1.009  10.310  10.406 -0.1085 -0.0641 -0.1908
  494loPI   C3B 7903   1.072  10.337   9.936  0.1538  0.2503 -0.3228
  494loPI   C4B 7904   1.099  10.229   9.522  0.0340 -0.1921 -0.3112
  495loPI    C1 7905  14.582   7.042  11.913  0.0445 -0.1658 -0.0619
  495loPI    C2 7906  14.206   6.905  11.927  0.0137 -0.0898 -0.1379
  495loPI    C3 7907  14.332   7.172  12.197 -0.0055 -0.0686 -0.1498
  495loPI   PO4 7908  14.591   7.064  11.657 -0.0541  0.1523  0.2162
  495loPI   GL1 7909  14.523   6.965  11.221 -0.0415 -0.0446  0.0500
  495loPI   GL2 7910  14.560   7.188  11.125  0.1585 -0.4137  0.1132
  495loPI   C1A 7911  14.524   6.782  10.787 -0.1993  0.0283 -0.1631
  495loPI   C2A 7912  14.531   6.786  10.343 -0.0412  0.1246  0.0709
  495loPI   C3A 7913  14.546   6.693   9.902  0.0467 -0.0943 -0.1517
  495loPI   C4A 7914  14.595   6.792   9.437 -0.1338 -0.1155  0.3917
  495loPI   C5A 7915  14.599   6.856   8.998  0.1063 -0.0442  0.0377
  495loPI   C6A 7916  14.446   6.794   8.549 -0.3553 -0.0943  0.0329
  495loPI   C1B 7917  14.653   7.239  10.697  0.1335  0.0136 -0.2453
  495loPI   C2B 7918  14.670   7.255  10.218 -0.0300  0.0142  0.0947
  495loPI   C3B 7919  14.624   7.176   9.893  0.2697 -0.2454  0.0888
  495loPI   C4B 7920  14.601   7.285   9.368 -0.0989  0.0943  0.0879
  496loPI    C1 7921   4.885  15.175  11.479 -0.2279 -0.2089 -0.3399
  496loPI    C2 7922   5.222  14.974  11.556 -0.1235  0.0218 -0.1855
  496loPI    C3 7923   4.909  14.941  11.802 -0.0111  0.2587 -0.0063
  496loPI   PO4 7924   4.930  15.133  11.215  0.0436  0.1952  0.0851
  496loPI   GL1 7925   4.860  15.471  10.986 -0.2045  0.0173 -0.2610
  496loPI   GL2 7926   4.610  15.259  10.834  0.2013 -0.1124  0.2686
  496loPI   C1A 7927   5.023  15.468  10.566 -0.0576 -0.0958 -0.0400
  496loPI   C2A 7928   4.938  15.415  10.089  0.0285 -0.0550  0.1660
  496loPI   C3A 7929   4.860  15.493   9.652  0.0541  0.0382  0.0127
  496loPI   C4A 7930   4.900  15.439   9.218  0.1026 -0.2258  0.0430
  496loPI   C5A 7931   5.060  15.623   8.836 -0.1479  0.1108  0.1583
  496loPI   C6A 7932   4.941  15.823   8.470 -0.2164  0.2475  0.0946
  496loPI   C1B 7933   4.480  15.342  10.409  0.0456 -0.2734  0.1086
  496loPI   C2B 7934   4.442  15.390  10.019  0.0752 -0.3222  0.1753
  496loPI   C3B 7935   4.333  15.404   9.611 -0.2358 -0.1250  0.1179
  496loPI   C4B 7936   4.266  15.391   9.248 -0.0291 -0.1408 -0.0758
  497loPI    C1 7937   9.434   6.640  12.207 -0.0778  0.0069 -0.1623
  497loPI    C2 7938   9.116   6.714  12.438 -0.1245 -0.1322 -0.1814
  497loPI    C3 7939   9.304   7.015  12.254 -0.1968 -0.0409 -0.1067
  497loPI   PO4 7940   9.442   6.455  12.040  0.3366  0.1807 -0.0448
  497loPI   GL1 7941   9.634   6.480  11.555  0.0261  0.1512  0.1746
  497loPI   GL2 7942   9.344   6.448  11.530 -0.0618  0.1212  0.1135
  497loPI   C1A 7943   9.813   6.531  11.243  0.2705  0.0488  0.1502
  497loPI   C2A 7944   9.852   6.556  10.788 -0.0972 -0.0769  0.0495
  497loPI   C3A 7945   9.791   6.549  10.349 -0.0556 -0.1113  0.0296
  497loPI   C4A 7946   9.855   6.488   9.854  0.1889  0.0407  0.0128
  497loPI   C5A 7947   9.870   6.510   9.407  0.0149 -0.2002 -0.3328
  497loPI   C6A 7948   9.812   6.405   8.994 -0.4461  0.0786 -0.0558
  497loPI   C1B 7949   9.303   6.417  11.119 -0.2265  0.0744  0.0753
  497loPI   C2B 7950   9.361   6.426  10.660 -0.0456 -0.3372  0.2839
  497loPI   C3B 7951   9.264   6.501  10.258  0.1623  0.1547  0.2779
  497loPI   C4B 7952   9.294   6.383   9.807  0.1309  0.0682 -0.1864
  498loPI    C1 7953   1.726   5.911  11.820  0.2237 -0.1852 -0.1730
  498loPI    C2 7954   1.722   5.554  12.001  0.0469 -0.1119 -0.0296
  498loPI    C3 7955   1.681   5.888  12.217 -0.2108 -0.0253 -0.2079
  498loPI   PO4 7956   1.892   5.901  11.607 -0.0401 -0.3122  0.0840
  498loPI   GL1 7957   1.979   6.106  11.204 -0.2532  0.3121 -0.4076
  498loPI   GL2 7958   1.944   6.442  11.171  0.1511 -0.1157  0.4276
  498loPI   C1A 7959   2.101   5.836  10.893  0.2437  0.0237  0.5184
  498loPI   C2A 7960   2.125   5.957  10.432  0.1757  0.3741  0.2139
  498loPI   C3A 7961   2.085   5.867   9.976 -0.1298 -0.0465  0.1566
  498loPI   C4A 7962   2.135   5.806   9.538 -0.1666  0.0600 -0.0848
  498loPI   C5A 7963   2.250   5.895   9.183  0.2892 -0.0506  0.0381
  498loPI   C6A 7964   2.639   6.171   8.952 -0.3401 -0.0326  0.1507
  498loPI   C1B 7965   1.896   6.258  10.736  0.1724  0.0431  0.1101
  498loPI   C2B 7966   1.787   6.305  10.233 -0.3610  0.0418  0.2099
  498loPI   C3B 7967   1.772   6.254   9.814 -0.0907  0.4900 -0.0100
  498loPI   C4B 7968   1.782   6.276   9.330  0.1736  0.1284  0.1511
  499loPI    C1 7969   5.816  13.797  11.530 -0.1314  0.1127 -0.0433
  499loPI    C2 7970   6.053  13.616  11.796  0.0167  0.1313 -0.1614
  499loPI    C3 7971   5.664  13.666  11.876 -0.0206 -0.2095 -0.1134
  499loPI   PO4 7972   5.860  13.653  11.336 -0.3297  0.2238 -0.1183
  499loPI   GL1 7973   5.657  13.617  10.944  0.0429 -0.0126 -0.4201
  499loPI   GL2 7974   5.878  13.315  10.960  0.0065 -0.0144  0.1365
  499loPI   C1A 7975   5.346  13.709  10.626  0.1312 -0.1553  0.1760
  499loPI   C2A 7976   5.413  13.591  10.259  0.2723  0.3039  0.0342
  499loPI   C3A 7977   5.436  13.664   9.846  0.0820  0.2449 -0.0885
  499loPI   C4A 7978   5.259  13.788   9.458 -0.1102 -0.0006 -0.1816
  499loPI   C5A 7979   5.447  13.954   9.092  0.4249 -0.3268 -0.1234
  499loPI   C6A 7980   5.659  14.382   9.138  0.2007  0.1720 -0.0792
  499loPI   C1B 7981   5.796  13.306  10.505  0.1782  0.1021  0.2501
  499loPI   C2B 7982   5.738  13.247  10.046  0.4992 -0.0483 -0.1563
  499loPI   C3B 7983   5.689  13.255   9.692 -0.0532 -0.3095 -0.0561
  499loPI   C4B 7984   5.574  13.389   9.278  0.2610 -0.0628  0.1887
  500loPI    C1 7985   1.809   8.466  11.702  0.1124 -0.1032  0.1618
  500loPI    C2 7986   1.867   8.186  11.982 -0.1221 -0.1932  0.1222
  500loPI    C3 7987   1.594   8.473  12.039 -0.1625 -0.2050 -0.0078
  500loPI   PO4 7988   1.807   8.366  11.503 -0.0075  0.2313  0.1432
  500loPI   GL1 7989   1.589   8.439  11.107  0.0681  0.1437 -0.1907
  500loPI   GL2 7990   1.503   8.149  11.201  0.1941  0.2529  0.2159
  500loPI   C1A 7991   1.481   8.514  10.636 -0.1204  0.0844 -0.1064
  500loPI   C2A 7992   1.412   8.566  10.188  0.0415  0.2334 -0.0461
  500loPI   C3A 7993   1.490   8.449   9.733  0.0122  0.3077 -0.0340
  500loPI   C4A 7994   1.530   8.390   9.321 -0.2188  0.0211  0.4351
  500loPI   C5A 7995   1.877   8.355   9.040  0.3397  0.0701  0.2786
  500loPI   C6A 7996   2.184   8.555   8.852 -0.1050 -0.2101  0.3784
  500loPI   C1B 7997   1.384   8.049  10.874  0.3128  0.0272  0.0912
  500loPI   C2B 7998   1.292   8.074  10.447  0.1328  0.1112  0.0241
  500loPI   C3B 7999   1.329   8.029  10.033 -0.1978  0.0332  0.0121
  500loPI   C4B 8000   1.332   7.974   9.668 -0.0126 -0.4017 -0.0774
  501loPI    C1 8001  14.331   5.099  11.456  0.0514 -0.0011 -0.0754
  501loPI    C2 8002  14.429   4.756  11.637 -0.2324 -0.1445 -0.1875
  501loPI    C3 8003  14.300   5.067  11.854 -0.0646 -0.1387 -0.0947
  501loPI   PO4 8004  14.225   5.046  11.232  0.0606 -0.0808 -0.0909
  501loPI   GL1 8005  14.560   5.002  10.878 -0.1927  0.0140 -0.2495
  501loPI   GL2 8006  14.789   4.783  10.738 -0.2243  0.0783 -0.0241
  501loPI   C1A 8007  14.477   5.047  10.501 -0.2788 -0.2665  0.2747
  501loPI   C2A 8008  14.561   4.998  10.091  0.2014  0.0232 -0.1199
  501loPI   C3A 8009  14.616   5.162   9.698  0.2198 -0.1953  0.1936
  501loPI   C4A 8010  14.458   5.009   9.315 -0.1346  0.0688  0.2704
  501loPI   C5A 8011  14.459   4.866   8.918 -0.0881 -0.1351  0.0916
  501loPI   C6A 8012  14.315   4.734   8.558  0.0611 -0.0470 -0.0448
  501loPI   C1B 8013  14.932   4.786  10.331  0.1596  0.0411  0.0643
  501loPI   C2B 8014  14.944   4.744   9.904 -0.1177  0.0611 -0.0977
  501loPI   C3B 8015  14.905   4.749   9.492 -0.0235  0.1985 -0.0609
  501loPI   C4B 8016  14.897   4.676   9.036 -0.2123  0.0317  0.2545
  502loPI    C1 8017  15.984  10.398  11.786 -0.1037 -0.0082  0.1339
  502loPI    C2 8018  15.790  10.710  11.629  0.0851 -0.0313 -0.1521
  502loPI    C3 8019  15.623  10.500  11.925 -0.1590  0.1767 -0.1382
  502loPI   PO4 8020  16.007  10.182  11.633 -0.2760 -0.0331  0.4168
  502loPI   GL1 8021  16.100  10.038  11.290  0.0129  0.0517  0.4465
  502loPI   GL2 8022  16.104   9.764  11.188  0.1363  0.0777  0.3381
  502loPI   C1A 8023  16.100  10.175  10.826  0.0332  0.0160  0.1905
  502loPI   C2A 8024  16.091  10.251  10.401 -0.0065 -0.1026  0.0491
  502loPI   C3A 8025  16.179  10.222   9.947 -0.1397 -0.1133 -0.2857
  502loPI   C4A 8026  16.054  10.326   9.581 -0.0924  0.2242  0.2256
  502loPI   C5A 8027  16.100  10.327   9.183  0.0007 -0.1768  0.0378
  502loPI   C6A 8028  15.802  10.297   8.890 -0.1990  0.0560  0.0457
  502loPI   C1B 8029  15.995   9.705  10.732  0.1585 -0.0358  0.0389
  502loPI   C2B 8030  15.981   9.772  10.270  0.1922  0.2609  0.3071
  502loPI   C3B 8031  15.941   9.749   9.894 -0.0588  0.2129  0.0978
  502loPI   C4B 8032  15.835   9.828   9.533  0.0827  0.0464  0.0485
  503loPI    C1 8033   9.270  13.996  11.692 -0.1750 -0.2644  0.1818
  503loPI    C2 8034   9.551  14.187  11.903 -0.1554  0.0451 -0.1156
  503loPI    C3 8035   9.229  14.037  12.087  0.0070  0.0433  0.1721
  503loPI   PO4 8036   9.404  14.098  11.388 -0.0570  0.0322 -0.1843
  503loPI   GL1 8037   9.542  13.951  11.036 -0.0645 -0.0674 -0.3468
  503loPI   GL2 8038   9.772  14.213  11.071  0.0449  0.1434  0.3165
  503loPI   C1A 8039   9.675  13.887  10.649  0.0923 -0.0461  0.3192
  503loPI   C2A 8040   9.662  13.784  10.174  0.0466 -0.0483  0.0441
  503loPI   C3A 8041   9.653  13.777   9.809  0.2698 -0.1970  0.2526
  503loPI   C4A 8042   9.548  13.757   9.425 -0.2499 -0.1294 -0.4844
  503loPI   C5A 8043   9.567  13.581   9.049  0.1128  0.0585  0.0949
  503loPI   C6A 8044   9.844  13.641   8.599 -0.1906 -0.2550 -0.0772
  503loPI   C1B 8045   9.794  14.355  10.614  0.1824 -0.2275  0.0366
  503loPI   C2B 8046   9.792  14.264  10.172 -0.0039  0.0926  0.3670
  503loPI   C3B 8047   9.817  14.256   9.766 -0.1020  0.4123 -0.1209
  503loPI   C4B 8048   9.799  14.176   9.317 -0.1197 -0.0858  0.1182
  504loPI    C1 8049   8.141   4.647  11.909 -0.0060  0.0810  0.0042
  504loPI    C2 8050   8.311   4.459  12.219  0.1912  0.1374 -0.0683
  504loPI    C3 8051   8.092   4.788  12.280 -0.0357 -0.0318  0.0437
  504loPI   PO4 8052   8.305   4.663  11.702  0.0694 -0.0894  0.0789
  504loPI   GL1 8053   8.209   4.765  11.325 -0.1211 -0.2474  0.0599
  504loPI   GL2 8054   7.961   4.767  11.177 -0.0454 -0.1420  0.2094
  504loPI   C1A 8055   8.450   4.799  10.950  0.3288 -0.1087  0.0797
  504loPI   C2A 8056   8.453   4.797  10.520 -0.0490  0.0211  0.0174
  504loPI   C3A 8057   8.421   4.937  10.160 -0.2118 -0.3401  0.1516
  504loPI   C4A 8058   8.424   4.822   9.811  0.0528 -0.4401 -0.1643
  504loPI   C5A 8059   8.300   4.836   9.440 -0.0880 -0.2411 -0.0235
  504loPI   C6A 8060   8.033   4.740   9.052 -0.0733 -0.1250  0.0664
  504loPI   C1B 8061   7.988   4.670  10.774  0.2226 -0.0873  0.1207
  504loPI   C2B 8062   8.041   4.672  10.317  0.0348 -0.4170  0.2636
  504loPI   C3B 8063   7.918   4.716   9.923  0.0856 -0.1511  0.0836
  504loPI   C4B 8064   7.845   4.615   9.502  0.0049  0.0973  0.0085
  505loPI    C1 8065  13.666  12.598  11.850  0.2695 -0.0785 -0.0865
  505loPI    C2 8066  13.817  12.264  12.010  0.0496 -0.0477  0.1926
  505loPI    C3 8067  13.742  12.580  12.242  0.0240  0.1108 -0.0282
  505loPI   PO4 8068  13.727  12.634  11.566 -0.2624  0.0466  0.0611
  505loPI   GL1 8069  14.039  12.551  11.194  0.2613  0.4849 -0.0289
  505loPI   GL2 8070  14.297  12.328  11.081 -0.1887  0.2817 -0.1115
  505loPI   C1A 8071  13.946  12.618  10.828  0.0977  0.2837 -0.2360
  505loPI   C2A 8072  13.947  12.521  10.370  0.1161  0.1829 -0.2023
  505loPI   C3A 8073  13.966  12.538   9.973 -0.2738 -0.1024 -0.3014
  505loPI   C4A 8074  13.955  12.532   9.514 -0.0145  0.0370  0.0206
  505loPI   C5A 8075  13.857  12.482   9.059  0.0263  0.3890 -0.2248
  505loPI   C6A 8076  13.832  12.633   8.664  0.0271 -0.1363 -0.2224
  505loPI   C1B 8077  14.346  12.091  10.666 -0.0407 -0.0427  0.0914
  505loPI   C2B 8078  14.270  12.122  10.292  0.2265 -0.1136 -0.1495
  505loPI   C3B 8079  14.258  12.128   9.867  0.0923 -0.0948  0.0143
  505loPI   C4B 8080  14.290  12.129   9.455 -0.0125  0.4987 -0.1249
  506loPI    C1 8081  13.013   3.840  11.666 -0.0522 -0.0377  0.0959
  506loPI    C2 8082  13.229   3.613  11.915 -0.1688 -0.1051  0.1367
  506loPI    C3 8083  13.325   3.997  11.861 -0.0030 -0.1493  0.1085
  506loPI   PO4 8084  12.974   3.685  11.440 -0.4751 -0.2096  0.0289
  506loPI   GL1 8085  12.839   3.532  11.052  0.1453 -0.0074  0.1213
  506loPI   GL2 8086  12.675   3.857  11.090 -0.0194  0.1422  0.1966
  506loPI   C1A 8087  12.793   3.706  10.639 -0.2302  0.1340  0.0766
  506loPI   C2A 8088  12.725   3.722  10.211  0.0566 -0.1270  0.2972
  506loPI   C3A 8089  12.774   3.605   9.732  0.0122  0.1826  0.2102
  506loPI   C4A 8090  12.743   3.588   9.237  0.0184  0.2366 -0.3249
  506loPI   C5A 8091  12.588   3.188   9.022 -0.2176  0.0502  0.0352
  506loPI   C6A 8092  12.700   2.956   8.908  0.0029  0.0508 -0.1361
  506loPI   C1B 8093  12.429   3.992  10.775 -0.1047  0.2051 -0.0290
  506loPI   C2B 8094  12.280   4.001  10.476 -0.2769  0.1043 -0.1669
  506loPI   C3B 8095  12.321   3.983   9.987 -0.1154 -0.1070  0.2945
  506loPI   C4B 8096  12.382   3.949   9.564  0.1581  0.0631  0.1707
  507loPI    C1 8097  10.872   7.344  11.829  0.2011 -0.1226  0.1466
  507loPI    C2 8098  10.817   7.668  12.056  0.0957  0.0341 -0.0989
  507loPI    C3 8099  10.989   7.342  12.212 -0.1210  0.0808  0.2493
  507loPI   PO4 8100  10.675   7.383  11.626  0.1260 -0.0112 -0.0647
  507loPI   GL1 8101  10.852   7.484  11.270  0.0600  0.2328  0.0146
  507loPI   GL2 8102  10.924   7.203  11.216  0.4323  0.2193  0.0624
  507loPI   C1A 8103  10.606   7.546  10.901 -0.3737 -0.0995 -0.2303
  507loPI   C2A 8104  10.668   7.630  10.479 -0.2108 -0.2418  0.0061
  507loPI   C3A 8105  10.549   7.546  10.112 -0.1763  0.0720 -0.0537
  507loPI   C4A 8106  10.582   7.609   9.618 -0.0893  0.1986  0.0494
  507loPI   C5A 8107  10.800   7.570   9.180 -0.0399  0.1689 -0.0872
  507loPI   C6A 8108  11.020   7.574   8.754  0.0822 -0.7042 -0.3766
  507loPI   C1B 8109  10.942   7.207  10.716 -0.3519  0.1725 -0.4555
  507loPI   C2B 8110  10.946   7.203  10.310 -0.0910 -0.0534 -0.0784
  507loPI   C3B 8111  10.884   7.273   9.874 -0.2831  0.0213 -0.3648
  507loPI   C4B 8112  11.042   7.281   9.489  0.0425 -0.0690  0.0743
  508loPI    C1 8113  11.526  12.588  11.915 -0.1145 -0.0645  0.1944
  508loPI    C2 8114  11.704  12.425  12.234 -0.0078  0.0281  0.1832
  508loPI    C3 8115  11.444  12.725  12.282 -0.0700 -0.0268  0.1906
  508loPI   PO4 8116  11.752  12.648  11.713 -0.0022 -0.2875 -0.0144
  508loPI   GL1 8117  11.806  12.795  11.288 -0.0319 -0.0431 -0.2287
  508loPI   GL2 8118  11.683  13.075  11.158 -0.1869 -0.0962 -0.1378
  508loPI   C1A 8119  11.969  12.516  11.025  0.0284  0.1010 -0.0964
  508loPI   C2A 8120  11.965  12.648  10.602 -0.2599 -0.0130 -0.2440
  508loPI   C3A 8121  12.013  12.612  10.124  0.3914 -0.0210  0.1698
  508loPI   C4A 8122  12.051  12.518   9.693 -0.3682 -0.0327 -0.3233
  508loPI   C5A 8123  12.008  12.566   9.293 -0.0600 -0.0203 -0.1141
  508loPI   C6A 8124  11.805  12.859   9.089  0.1409 -0.0386 -0.2756
  508loPI   C1B 8125  11.662  12.954  10.776  0.0750  0.0091 -0.1535
  508loPI   C2B 8126  11.697  13.012  10.307 -0.1681  0.1254 -0.3364
  508loPI   C3B 8127  11.671  13.020   9.897  0.0028 -0.2641  0.0099
  508loPI   C4B 8128  11.662  12.893   9.566  0.3513  0.0433  0.1668
  509loPI    C1 8129   8.883  13.024  11.854  0.2148  0.1646  0.1049
  509loPI    C2 8130   8.499  13.133  11.884  0.1492 -0.0898  0.2160
  509loPI    C3 8131   8.681  12.955  12.192  0.3280 -0.0624  0.1277
  509loPI   PO4 8132   8.930  13.097  11.593  0.0953  0.0396 -0.2765
  509loPI   GL1 8133   9.001  13.376  11.174  0.0306 -0.2033 -0.0132
  509loPI   GL2 8134   8.767  13.449  11.131 -0.2475 -0.1971  0.2463
  509loPI   C1A 8135   9.067  13.296  10.717 -0.0261 -0.1067  0.0507
  509loPI   C2A 8136   9.085  13.221  10.332  0.1041  0.0234 -0.1544
  509loPI   C3A 8137   9.058  13.175   9.876  0.0291 -0.3759  0.1860
  509loPI   C4A 8138   8.907  13.167   9.355 -0.0100  0.1329 -0.3538
  509loPI   C5A 8139   8.781  13.140   8.896 -0.0641  0.1540  0.1249
  509loPI   C6A 8140   8.755  13.295   8.448  0.0306  0.0915 -0.1192
  509loPI   C1B 8141   8.660  13.651  10.693  0.0717  0.0445 -0.2052
  509loPI   C2B 8142   8.699  13.605  10.244 -0.1498  0.1580 -0.2487
  509loPI   C3B 8143   8.559  13.639   9.821 -0.0464  0.1546 -0.1488
  509loPI   C4B 8144   8.574  13.559   9.495 -0.0664  0.0650 -0.0439
  510loPI    C1 8145  10.594   8.405  11.656 -0.1478  0.0116  0.2369
  510loPI    C2 8146  10.690   8.183  11.974  0.1671 -0.0585  0.0960
  510loPI    C3 8147  10.872   8.534  11.912  0.3388 -0.1915 -0.1732
  510loPI   PO4 8148  10.664   8.281  11.456  0.0641 -0.0896 -0.1464
  510loPI   GL1 8149  10.729   8.296  11.033 -0.0091 -0.0913 -0.1150
  510loPI   GL2 8150  10.833   8.009  11.103 -0.2790  0.1175  0.3182
  510loPI   C1A 8151  10.708   8.121  10.663  0.0334 -0.3019  0.1364
  510loPI   C2A 8152  10.802   8.130  10.275  0.1541  0.2478 -0.0717
  510loPI   C3A 8153  10.810   8.137   9.825  0.2115 -0.0584  0.1264
  510loPI   C4A 8154  10.660   8.079   9.400  0.0870 -0.3249  0.0143
  510loPI   C5A 8155  10.540   8.351   9.045  0.3298 -0.0256 -0.0354
  510loPI   C6A 8156  10.373   8.225   8.671 -0.0983 -0.0431 -0.0664
  510loPI   C1B 8157  11.077   7.758  10.796 -0.0777 -0.0457  0.0138
  510loPI   C2B 8158  11.137   7.746  10.321 -0.1681 -0.1678  0.0779
  510loPI   C3B 8159  11.088   7.701   9.854  0.2261  0.2527  0.1808
  510loPI   C4B 8160  11.092   7.829   9.479  0.0713 -0.0642 -0.1356
  511loPI    C1 8161   2.594   1.682  11.787  0.2054  0.1019 -0.0544
  511loPI    C2 8162   2.704   1.897  12.106 -0.2178  0.0529  0.1314
  511loPI    C3 8163   2.732   1.498  12.114  0.1844  0.0719 -0.0624
  511loPI   PO4 8164   2.727   1.719  11.576  0.2234  0.2455 -0.1134
  511loPI   GL1 8165   2.452   1.485  11.238 -0.0326  0.1538  0.1356
  511loPI   GL2 8166   2.764   1.419  11.089  0.3262 -0.1200  0.0118
  511loPI   C1A 8167   2.377   1.758  10.822  0.1730  0.0643  0.1893
  511loPI   C2A 8168   2.222   1.706  10.363 -0.1051 -0.0441 -0.0444
  511loPI   C3A 8169   2.193   1.809   9.908  0.1250  0.2808  0.2599
  511loPI   C4A 8170   2.232   1.713   9.494 -0.0564  0.0024  0.3934
  511loPI   C5A 8171   2.385   1.898   9.132 -0.0109 -0.1237  0.0946
  511loPI   C6A 8172   2.596   2.130   8.987  0.1662 -0.2774  0.0268
  511loPI   C1B 8173   2.826   1.389  10.629 -0.2031 -0.1365  0.2909
  511loPI   C2B 8174   2.651   1.441  10.249 -0.1875  0.4619  0.0023
  511loPI   C3B 8175   2.609   1.414   9.828 -0.2451 -0.2549  0.0547
  511loPI   C4B 8176   2.528   1.286   9.440  0.0513 -0.0955 -0.0374
  512loPI    C1 8177  11.297  10.390  11.691 -0.1852  0.3166  0.0998
  512loPI    C2 8178  10.981  10.205  11.852 -0.0067  0.0165  0.1116
  512loPI    C3 8179  11.351  10.077  11.933  0.1028  0.1109 -0.2212
  512loPI   PO4 8180  11.319  10.376  11.452  0.0687  0.3689  0.3692
  512loPI   GL1 8181  11.333  10.188  11.074  0.1755 -0.0976  0.1507
  512loPI   GL2 8182  10.964  10.025  10.974 -0.2862 -0.3725  0.1594
  512loPI   C1A 8183  11.402  10.112  10.560 -0.0404  0.0637 -0.2369
  512loPI   C2A 8184  11.418  10.069  10.117 -0.1944 -0.2307  0.1361
  512loPI   C3A 8185  11.308  10.024   9.692 -0.2702  0.1991  0.0165
  512loPI   C4A 8186  11.242  10.179   9.179 -0.2136  0.0296  0.3453
  512loPI   C5A 8187  11.220  10.333   8.714  0.1538  0.0679  0.2496
  512loPI   C6A 8188  11.517  10.336   8.352  0.0960  0.0017 -0.0935
  512loPI   C1B 8189  10.823   9.983  10.568 -0.0648  0.0999 -0.2485
  512loPI   C2B 8190  10.780   9.998  10.164  0.2887 -0.2770  0.1588
  512loPI   C3B 8191  10.810   9.950   9.755 -0.0432 -0.0817  0.1232
  512loPI   C4B 8192  10.841   9.930   9.332 -0.1265  0.0380 -0.0567
  513loPI    C1 8193   8.035   1.333  11.819  0.1426  0.2170 -0.0073
  513loPI    C2 8194   7.823   1.491  12.119  0.1946  0.2685  0.0024
  513loPI    C3 8195   8.060   1.176  12.185 -0.1244  0.0068 -0.0753
  513loPI   PO4 8196   7.891   1.249  11.612  0.3012 -0.2445  0.1191
  513loPI   GL1 8197   7.969   0.919  11.230  0.0616 -0.2319  0.0530
  513loPI   GL2 8198   7.668   1.052  11.101  0.0037  0.0615 -0.0705
  513loPI   C1A 8199   8.133   0.668  10.867 -0.1502 -0.2880  0.1337
  513loPI   C2A 8200   8.069   0.618  10.439  0.1476 -0.1461 -0.0160
  513loPI   C3A 8201   8.116   0.661   9.996 -0.1682 -0.3341  0.2467
  513loPI   C4A 8202   8.150   0.654   9.626 -0.1237  0.0459 -0.4440
  513loPI   C5A 8203   8.110   0.608   9.097  0.1900  0.2639  0.2718
  513loPI   C6A 8204   7.989   0.388   8.631 -0.0674  0.1083 -0.2779
  513loPI   C1B 8205   7.732   1.023  10.716 -0.1650  0.1723  0.1504
  513loPI   C2B 8206   7.716   1.002  10.191 -0.1826 -0.0724 -0.1136
  513loPI   C3B 8207   7.747   1.032   9.830  0.0315  0.1565 -0.1226
  513loPI   C4B 8208   7.537   1.049   9.513  0.0928  0.0174 -0.0992
  514loPI    C1 8209   7.085   8.166  11.431 -0.2263  0.0194 -0.1734
  514loPI    C2 8210   7.098   7.776  11.343 -0.4667 -0.0247 -0.0224
  514loPI    C3 8211   6.998   7.894  11.712  0.0134  0.1706  0.0520
  514loPI   PO4 8212   7.300   8.279  11.363  0.2258  0.1296  0.0057
  514loPI   GL1 8213   7.382   8.258  10.949 -0.1610 -0.3829 -0.0679
  514loPI   GL2 8214   7.095   8.491  10.941 -0.0155 -0.2364 -0.0890
  514loPI   C1A 8215   7.494   8.143  10.661  0.1542  0.0697  0.2515
  514loPI   C2A 8216   7.417   8.142  10.225 -0.2416 -0.1836 -0.1449
  514loPI   C3A 8217   7.407   8.198   9.859  0.1318  0.2708 -0.1797
  514loPI   C4A 8218   7.362   8.217   9.439  0.3442 -0.1428  0.1913
  514loPI   C5A 8219   7.417   8.015   9.025 -0.1310 -0.2588 -0.2885
  514loPI   C6A 8220   7.685   7.675   8.963  0.0281 -0.1817 -0.1431
  514loPI   C1B 8221   7.146   8.565  10.478  0.0560 -0.1200  0.0951
  514loPI   C2B 8222   7.050   8.563  10.058  0.0791  0.1325  0.0954
  514loPI   C3B 8223   6.979   8.593   9.550 -0.0042 -0.1985 -0.0943
  514loPI   C4B 8224   6.931   8.530   9.151  0.0606 -0.1388 -0.0290
  515loPI    C1 8225  10.420   5.639  12.159 -0.0500  0.0768 -0.0730
  515loPI    C2 8226  10.779   5.577  12.325 -0.1214 -0.1294  0.0074
  515loPI    C3 8227  10.587   5.923  12.386 -0.1067 -0.1678  0.2820
  515loPI   PO4 8228  10.453   5.586  11.897  0.1651  0.0833  0.1238
  515loPI   GL1 8229  10.656   5.722  11.493 -0.1496 -0.1129 -0.0266
  515loPI   GL2 8230  10.396   5.799  11.375  0.0862 -0.2678 -0.2712
  515loPI   C1A 8231  10.887   5.523  11.218  0.0057  0.2321  0.0789
  515loPI   C2A 8232  10.863   5.487  10.807 -0.1255 -0.2056  0.0528
  515loPI   C3A 8233  10.862   5.513  10.333  0.0243  0.0529 -0.2431
  515loPI   C4A 8234  10.886   5.457   9.848 -0.2507 -0.0449  0.1433
  515loPI   C5A 8235  11.000   5.435   9.419  0.3109 -0.1442  0.1985
  515loPI   C6A 8236  11.005   5.258   8.970 -0.1681  0.0893  0.1980
  515loPI   C1B 8237  10.526   5.800  10.964  0.1072 -0.0264 -0.2802
  515loPI   C2B 8238  10.537   5.818  10.560 -0.0642 -0.0682 -0.1222
  515loPI   C3B 8239  10.531   5.787  10.131  0.0052  0.1202  0.2747
  515loPI   C4B 8240  10.548   5.726   9.646  0.0316  0.2096 -0.3242
  516loPI    C1 8241   5.655  15.312  11.667  0.0350  0.0520  0.0346
  516loPI    C2 8242   5.755  14.999  11.897 -0.2610 -0.1540 -0.1114
  516loPI    C3 8243   5.454  15.240  12.006 -0.0699  0.0506 -0.0277
  516loPI   PO4 8244   5.657  15.278  11.493 -0.1668 -0.1697 -0.0062
  516loPI   GL1 8245   5.507  15.208  11.084 -0.2282  0.3104 -0.1706
  516loPI   GL2 8246   5.516  14.975  11.077  0.4661  0.0062  0.1012
  516loPI   C1A 8247   5.494  15.535  10.762 -0.0578 -0.2934  0.0501
  516loPI   C2A 8248   5.484  15.494  10.316 -0.2202  0.0053 -0.0622
  516loPI   C3A 8249   5.479  15.560   9.860 -0.0095  0.0341  0.0508
  516loPI   C4A 8250   5.354  15.544   9.439  0.2440  0.0194  0.1407
  516loPI   C5A 8251   5.334  15.214   8.980 -0.0042  0.1433  0.3429
  516loPI   C6A 8252   5.281  14.938   8.745 -0.1805  0.0990  0.3724
  516loPI   C1B 8253   5.324  14.987  10.668  0.0005  0.1753 -0.1160
  516loPI   C2B 8254   5.306  15.017  10.230 -0.0343 -0.4568 -0.1605
  516loPI   C3B 8255   5.269  15.116   9.817  0.1930 -0.1949 -0.1688
  516loPI   C4B 8256   5.159  15.077   9.454 -0.0337  0.1358  0.1080
  517loPI    C1 8257  16.100   0.539  11.461 -0.2010 -0.0258 -0.0703
  517loPI    C2 8258  16.171   0.183  11.293 -0.1931 -0.0896  0.0666
  517loPI    C3 8259  16.196   0.225  11.690  0.0581  0.1237  0.0313
  517loPI   PO4 8260  16.202   0.666  11.417  0.2045  0.1757 -0.1212
  517loPI   GL1 8261  16.462   0.877  11.079  0.0993 -0.0116 -0.1007
  517loPI   GL2 8262  16.376   0.562  10.992 -0.2456 -0.0891  0.3104
  517loPI   C1A 8263  16.675   0.936  10.656 -0.0341 -0.0177  0.0067
  517loPI   C2A 8264  16.636   0.920  10.264  0.2617  0.1108 -0.0339
  517loPI   C3A 8265  16.664   1.034   9.891 -0.1635 -0.4101  0.0065
  517loPI   C4A 8266  16.484   0.969   9.567  0.3471  0.0480 -0.0358
  517loPI   C5A 8267  16.558   0.964   9.203 -0.1236  0.1276  0.1103
  517loPI   C6A 8268  16.795   1.098   8.808  0.3746 -0.1627  0.1631
  517loPI   C1B 8269  16.381   0.533  10.500 -0.0097 -0.1547  0.0012
  517loPI   C2B 8270  16.465   0.505  10.085  0.1714 -0.1659 -0.1723
  517loPI   C3B 8271  16.373   0.446   9.672  0.0098  0.0632 -0.3619
  517loPI   C4B 8272  16.599   0.429   9.258  0.1712  0.0150  0.0377
  518loPI    C1 8273  16.695   0.930  11.551  0.2372 -0.3912 -0.0366
  518loPI    C2 8274  16.850   1.100  11.878  0.0687  0.1204 -0.2134
  518loPI    C3 8275  16.472   0.969  11.880  0.1617 -0.1529 -0.1139
  518loPI   PO4 8276  16.900   0.991  11.385  0.2159  0.3757  0.0773
  518loPI   GL1 8277  17.045   1.095  11.036 -0.1174  0.0822 -0.2791
  518loPI   GL2 8278  17.363   1.165  11.169  0.0383  0.3777 -0.0799
  518loPI   C1A 8279  17.201   1.130  10.659 -0.0845  0.2061  0.0607
  518loPI   C2A 8280  17.126   1.164  10.261 -0.2415  0.0239 -0.2268
  518loPI   C3A 8281  17.198   1.036   9.856 -0.1236 -0.2278 -0.0391
  518loPI   C4A 8282  16.990   1.093   9.498  0.2705 -0.0515  0.2220
  518loPI   C5A 8283  17.170   1.275   9.175  0.0620 -0.2282  0.1244
  518loPI   C6A 8284  17.602   1.282   9.015 -0.0005 -0.2270  0.1201
  518loPI   C1B 8285  17.576   0.797  10.998  0.3018  0.1219 -0.1296
  518loPI   C2B 8286  17.536   0.759  10.641  0.0003 -0.3175 -0.1419
  518loPI   C3B 8287  17.571   0.784  10.172 -0.0969 -0.0365 -0.0335
  518loPI   C4B 8288  17.497   0.686   9.713  0.2387  0.2038 -0.1714
  519loPI    C1 8289   9.092  11.601  11.468 -0.0841  0.3492 -0.3777
  519loPI    C2 8290   9.291  11.939  11.543  0.0977  0.1881 -0.1150
  519loPI    C3 8291   9.410  11.596  11.711 -0.1725  0.0186 -0.2626
  519loPI   PO4 8292   9.141  11.549  11.263  0.0737 -0.2843  0.0673
  519loPI   GL1 8293   9.227  11.704  10.935 -0.0206  0.0064  0.0684
  519loPI   GL2 8294   9.522  11.608  10.772  0.0340  0.1809 -0.1632
  519loPI   C1A 8295   9.104  11.701  10.519  0.1123 -0.3750  0.1035
  519loPI   C2A 8296   9.092  11.937  10.087  0.2767  0.1316  0.0139
  519loPI   C3A 8297   8.998  11.750   9.642  0.4868  0.0249  0.1174
  519loPI   C4A 8298   8.669  11.650   9.320  0.0302  0.0087  0.0126
  519loPI   C5A 8299   8.326  11.583   9.052  0.1986 -0.1904 -0.0250
  519loPI   C6A 8300   7.887  11.540   8.860 -0.2792  0.2008  0.0381
  519loPI   C1B 8301   9.933  11.620  10.479  0.3762  0.0069  0.0475
  519loPI   C2B 8302   9.940  11.555   9.974 -0.1888  0.1651 -0.0040
  519loPI   C3B 8303   9.800  11.435   9.552 -0.0402 -0.0296 -0.2237
  519loPI   C4B 8304   9.734  11.397   9.180  0.1731  0.1650 -0.0727
  520loPI    C1 8305  15.184  10.205  11.776  0.0309  0.1541  0.0148
  520loPI    C2 8306  15.061  10.003  12.098 -0.0810 -0.0468 -0.1517
  520loPI    C3 8307  15.188  10.380  12.136  0.0139 -0.1052  0.1434
  520loPI   PO4 8308  14.934  10.178  11.624 -0.0860 -0.2534 -0.1949
  520loPI   GL1 8309  14.915  10.081  11.310 -0.1554 -0.0550  0.2061
  520loPI   GL2 8310  15.190  10.092  11.208 -0.1218 -0.0694  0.2600
  520loPI   C1A 8311  14.729   9.935  10.908 -0.1922  0.1529  0.1408
  520loPI   C2A 8312  14.510   9.882  10.504 -0.1543 -0.1947 -0.1489
  520loPI   C3A 8313  14.557   9.865  10.084  0.1324 -0.1478 -0.0399
  520loPI   C4A 8314  14.514   9.969   9.600  0.0913  0.0510  0.4041
  520loPI   C5A 8315  14.632   9.944   9.220 -0.0129  0.0971 -0.0020
  520loPI   C6A 8316  14.507   9.935   8.810 -0.2923  0.0253 -0.0374
  520loPI   C1B 8317  15.187  10.108  10.776  0.0001 -0.0907  0.1954
  520loPI   C2B 8318  15.146   9.943  10.378  0.2430 -0.2832  0.0677
  520loPI   C3B 8319  15.105  10.037   9.928  0.1088 -0.0904 -0.4674
  520loPI   C4B 8320  15.063  10.070   9.498 -0.0796  0.0536  0.0395
  521loPI    C1 8321   4.415  12.958  11.826 -0.0854  0.0827 -0.1530
  521loPI    C2 8322   4.261  12.946  12.195 -0.0080 -0.0945 -0.1253
  521loPI    C3 8323   4.451  13.274  12.068 -0.0213 -0.0387 -0.0020
  521loPI   PO4 8324   4.166  12.951  11.681 -0.1238 -0.0367 -0.2101
  521loPI   GL1 8325   3.950  13.088  11.174 -0.1828 -0.1845 -0.1257
  521loPI   GL2 8326   3.732  12.839  11.073  0.0111  0.2509 -0.4209
  521loPI   C1A 8327   3.921  13.295  10.789 -0.2107 -0.1079 -0.1698
  521loPI   C2A 8328   3.972  13.365  10.363  0.1759  0.5842  0.1859
  521loPI   C3A 8329   3.900  13.330   9.982 -0.1961  0.2407  0.0036
  521loPI   C4A 8330   3.932  13.305   9.554 -0.0770  0.2167 -0.2370
  521loPI   C5A 8331   3.737  13.378   9.176  0.0624  0.3010 -0.0496
  521loPI   C6A 8332   3.847  13.196   8.816  0.0869  0.0106  0.2520
  521loPI   C1B 8333   3.805  12.854  10.666  0.2197 -0.2254 -0.0055
  521loPI   C2B 8334   3.821  12.818  10.222  0.2308 -0.1122  0.1421
  521loPI   C3B 8335   3.782  12.818   9.806 -0.0492  0.1926  0.0262
  521loPI   C4B 8336   3.644  12.897   9.332  0.0699 -0.2331  0.0211
  522loPI    C1 8337   4.076   8.838  11.729 -0.1094  0.3104  0.1622
  522loPI    C2 8338   4.230   8.850  12.099  0.1932 -0.0199  0.0529
  522loPI    C3 8339   4.099   8.504  11.948 -0.0478  0.1368 -0.1054
  522loPI   PO4 8340   4.234   8.923  11.559 -0.0070 -0.1059  0.3059
  522loPI   GL1 8341   4.342   8.771  11.265  0.0516 -0.1246 -0.0978
  522loPI   GL2 8342   4.069   8.779  11.128 -0.0926  0.3780  0.0939
  522loPI   C1A 8343   4.481   8.841  10.865  0.0533  0.1168 -0.0967
  522loPI   C2A 8344   4.444   8.897  10.489 -0.3093 -0.0711  0.1033
  522loPI   C3A 8345   4.336   8.915  10.131 -0.1465  0.0656  0.0753
  522loPI   C4A 8346   4.317   8.797   9.811 -0.0662 -0.1571  0.0142
  522loPI   C5A 8347   4.265   8.684   9.309 -0.1638 -0.1187 -0.2080
  522loPI   C6A 8348   4.027   8.321   9.204 -0.3703 -0.5873  0.2443
  522loPI   C1B 8349   3.912   8.694  10.675 -0.1684  0.1843 -0.0752
  522loPI   C2B 8350   3.807   8.645  10.187  0.0698 -0.0022  0.0037
  522loPI   C3B 8351   3.840   8.695   9.731 -0.3076  0.3596 -0.1468
  522loPI   C4B 8352   3.691   8.665   9.360  0.1597  0.1395  0.1389
  523loPI    C1 8353   0.582   9.936  11.929  0.0332 -0.2028  0.1249
  523loPI    C2 8354   0.407  10.280  12.033 -0.4069 -0.3754 -0.0183
  523loPI    C3 8355   0.713  10.138  12.248 -0.2340  0.0886  0.0554
  523loPI   PO4 8356   0.631   9.987  11.666  0.1331  0.2714  0.1907
  523loPI   GL1 8357   0.792   9.940  11.306 -0.0793  0.0125 -0.2086
  523loPI   GL2 8358   0.772  10.304  11.220 -0.1104 -0.1236  0.2784
  523loPI   C1A 8359   0.917   9.748  11.025  0.0901 -0.2727  0.0673
  523loPI   C2A 8360   0.881   9.720  10.538  0.0574 -0.0898 -0.1644
  523loPI   C3A 8361   0.935   9.835  10.194 -0.1678 -0.0415 -0.0201
  523loPI   C4A 8362   0.912   9.876   9.789  0.0494 -0.1878 -0.1002
  523loPI   C5A 8363   0.960   9.793   9.323  0.2297 -0.0836 -0.0452
  523loPI   C6A 8364   0.875   9.774   8.800  0.0160 -0.2457  0.1343
  523loPI   C1B 8365   0.658  10.191  10.767  0.0225 -0.1503  0.0310
  523loPI   C2B 8366   0.570  10.144  10.232 -0.1739  0.0502 -0.3177
  523loPI   C3B 8367   0.608  10.233   9.876  0.0204 -0.0092 -0.0327
  523loPI   C4B 8368   0.611  10.152   9.395 -0.0640  0.0404  0.2404
  524loPI    C1 8369   7.155  17.070  11.732 -0.1008 -0.2848 -0.1519
  524loPI    C2 8370   7.211  16.782  12.004  0.0408 -0.1067  0.0108
  524loPI    C3 8371   7.343  17.152  12.076 -0.0461 -0.0248 -0.2420
  524loPI   PO4 8372   7.251  16.986  11.480  0.1958 -0.0980  0.1152
  524loPI   GL1 8373   7.509  17.042  11.132 -0.0880  0.2820  0.0495
  524loPI   GL2 8374   7.529  17.360  11.112  0.0778  0.1440  0.2525
  524loPI   C1A 8375   7.419  16.782  10.773  0.2470  0.1852  0.4483
  524loPI   C2A 8376   7.321  16.836  10.282  0.0362  0.0931  0.0580
  524loPI   C3A 8377   7.260  16.909   9.888  0.0875 -0.1498 -0.1160
  524loPI   C4A 8378   7.194  16.990   9.412  0.1192 -0.0115 -0.2365
  524loPI   C5A 8379   7.030  17.112   8.965  0.1126 -0.0232  0.0794
  524loPI   C6A 8380   6.690  17.367   8.951  0.2270 -0.3189  0.4310
  524loPI   C1B 8381   7.533  17.294  10.601  0.0965  0.0624  0.0796
  524loPI   C2B 8382   7.416  17.299  10.210 -0.0400  0.1311 -0.1898
  524loPI   C3B 8383   7.447  17.406   9.860 -0.1600 -0.0593  0.1390
  524loPI   C4B 8384   7.366  17.539   9.453 -0.0092  0.1308 -0.1455
  525loPI    C1 8385   1.740   7.656  11.991 -0.0932  0.0309 -0.2047
  525loPI    C2 8386   1.471   7.889  12.175 -0.0807 -0.0751 -0.0505
  525loPI    C3 8387   1.482   7.496  12.252 -0.1751 -0.1481 -0.3929
  525loPI   PO4 8388   1.872   7.815  11.677 -0.1371 -0.0953  0.0132
  525loPI   GL1 8389   1.787   7.723  11.322 -0.1487  0.0499  0.1109
  525loPI   GL2 8390   2.030   7.996  11.169  0.1216  0.0516  0.2974
  525loPI   C1A 8391   1.751   7.652  10.925 -0.0104 -0.0207  0.0584
  525loPI   C2A 8392   1.709   7.776  10.590 -0.0417 -0.0822  0.1785
  525loPI   C3A 8393   1.615   7.623  10.144 -0.1601 -0.1920 -0.2270
  525loPI   C4A 8394   1.657   7.578   9.715 -0.0503 -0.0079  0.1689
  525loPI   C5A 8395   1.621   7.525   9.330 -0.0022  0.0683 -0.0806
  525loPI   C6A 8396   1.866   7.445   8.964  0.0381  0.2817  0.0889
  525loPI   C1B 8397   1.902   8.182  10.815  0.1813 -0.1758 -0.1373
  525loPI   C2B 8398   1.785   8.178  10.303 -0.0156 -0.0934 -0.2867
  525loPI   C3B 8399   1.894   8.078   9.860 -0.1097  0.0746 -0.2914
  525loPI   C4B 8400   1.853   8.037   9.413  0.0571 -0.0057 -0.1555
  526loPI    C1 8401   1.582  17.190  11.950 -0.0498 -0.1279 -0.0565
  526loPI    C2 8402   1.223  17.128  12.114 -0.0182 -0.0747  0.0335
  526loPI    C3 8403   1.543  16.932  12.253  0.0305  0.0654  0.1211
  526loPI   PO4 8404   1.581  17.263  11.667  0.0938 -0.2732 -0.1910
  526loPI   GL1 8405   1.385  17.073  11.328 -0.0451  0.3263 -0.1650
  526loPI   GL2 8406   1.173  17.221  11.166 -0.0561  0.1574  0.0423
  526loPI   C1A 8407   1.705  17.142  10.976 -0.0273  0.2777 -0.0073
  526loPI   C2A 8408   1.740  17.169  10.575 -0.0748  0.0515 -0.0124
  526loPI   C3A 8409   1.770  17.082  10.159  0.0467  0.0853 -0.0364
  526loPI   C4A 8410   1.662  17.024   9.741 -0.3080  0.0346 -0.3595
  526loPI   C5A 8411   1.630  16.970   9.326 -0.1038  0.1946 -0.1090
  526loPI   C6A 8412   1.490  17.038   8.838 -0.3534 -0.3190 -0.0089
  526loPI   C1B 8413   0.867  17.378  10.834  0.0724 -0.1870  0.2292
  526loPI   C2B 8414   0.878  17.345  10.332  0.1460  0.0957  0.1529
  526loPI   C3B 8415   0.903  17.346   9.849  0.0485  0.0666 -0.1315
  526loPI   C4B 8416   0.710  17.312   9.402  0.0861 -0.3249  0.2495
  527loPI    C1 8417   7.499  11.940  11.303  0.0653 -0.0174  0.1350
  527loPI    C2 8418   7.177  11.705  11.270  0.0368  0.0469 -0.0629
  527loPI    C3 8419   7.444  11.638  11.560 -0.2089  0.0603  0.1712
  527loPI   PO4 8420   7.553  11.927  10.974  0.0492 -0.2122 -0.1236
  527loPI   GL1 8421   7.707  11.914  10.590  0.0246  0.0266 -0.2851
  527loPI   GL2 8422   8.104  11.946  10.610  0.4791 -0.2603 -0.0489
  527loPI   C1A 8423   7.717  11.968  10.162 -0.1191  0.0546 -0.0754
  527loPI   C2A 8424   7.657  11.920   9.783 -0.0832 -0.0346  0.1639
  527loPI   C3A 8425   7.695  11.962   9.421 -0.2419 -0.1485  0.2333
  527loPI   C4A 8426   7.867  12.004   9.042  0.1068  0.2133 -0.1592
  527loPI   C5A 8427   7.892  12.183   8.734  0.0569  0.1003 -0.0888
  527loPI   C6A 8428   8.146  12.475   8.563 -0.1914  0.1040  0.1930
  527loPI   C1B 8429   8.216  11.986  10.257 -0.2577  0.1082 -0.0912
  527loPI   C2B 8430   8.120  12.194   9.849  0.0934  0.1121 -0.1683
  527loPI   C3B 8431   7.756  12.437   9.604  0.0944 -0.3197  0.2738
  527loPI   C4B 8432   7.260  12.309   9.486  0.2234  0.0332 -0.0516
  528loPI    C1 8433   9.742   5.678  12.183 -0.1305 -0.0822  0.1148
  528loPI    C2 8434   9.502   5.993  12.244 -0.0460  0.0080 -0.0136
  528loPI    C3 8435   9.671   5.807  12.555 -0.2122 -0.0016  0.0718
  528loPI   PO4 8436   9.878   5.830  11.915 -0.0927  0.0004  0.1768
  528loPI   GL1 8437   9.855   5.819  11.532 -0.1648  0.1526  0.0457
  528loPI   GL2 8438   9.769   6.040  11.335 -0.1481  0.3622 -0.3254
  528loPI   C1A 8439  10.016   5.671  11.119  0.3678  0.1771 -0.0289
  528loPI   C2A 8440  10.053   5.748  10.679 -0.0689  0.1173 -0.1614
  528loPI   C3A 8441  10.070   5.775  10.293  0.0956  0.2715 -0.0197
  528loPI   C4A 8442  10.038   5.759   9.885 -0.1270  0.0570 -0.0896
  528loPI   C5A 8443  10.114   5.673   9.422 -0.1110 -0.1732 -0.1432
  528loPI   C6A 8444  10.122   5.370   9.109 -0.2550  0.1660  0.0715
  528loPI   C1B 8445   9.656   6.039  10.894 -0.0448  0.0100  0.0412
  528loPI   C2B 8446   9.714   6.077  10.441  0.3204 -0.2233 -0.1173
  528loPI   C3B 8447   9.620   6.066  10.033  0.2315 -0.1486  0.0191
  528loPI   C4B 8448   9.622   6.131   9.598  0.1763 -0.0101 -0.1782
  529loPI    C1 8449   4.278   4.666  12.108 -0.0969  0.0090 -0.0826
  529loPI    C2 8450   4.265   5.049  12.225 -0.1138  0.0453 -0.2015
  529loPI    C3 8451   4.042   4.774  12.411  0.0392  0.0601  0.0063
  529loPI   PO4 8452   4.310   4.697  11.829 -0.0435 -0.0925 -0.0932
  529loPI   GL1 8453   4.240   5.022  11.479  0.1889 -0.1750 -0.1985
  529loPI   GL2 8454   4.044   5.286  11.371 -0.1609  0.3375 -0.1172
  529loPI   C1A 8455   4.287   4.994  11.055  0.1171 -0.0141  0.0141
  529loPI   C2A 8456   4.258   4.951  10.609 -0.0294 -0.1114  0.2040
  529loPI   C3A 8457   4.260   5.038  10.208 -0.1286 -0.2296 -0.1591
  529loPI   C4A 8458   4.234   4.970   9.756  0.0787 -0.0703 -0.0692
  529loPI   C5A 8459   4.330   5.011   9.338 -0.0492 -0.2294 -0.1500
  529loPI   C6A 8460   4.356   4.818   8.978 -0.0089  0.1584 -0.3847
  529loPI   C1B 8461   3.924   5.372  10.903 -0.1379 -0.3151  0.1334
  529loPI   C2B 8462   3.920   5.385  10.383  0.0970 -0.3084  0.1935
  529loPI   C3B 8463   3.917   5.370   9.937 -0.0162  0.1518  0.0447
  529loPI   C4B 8464   3.959   5.339   9.452 -0.0168 -0.1182 -0.2178
  530loPI    C1 8465  17.251  15.369  11.637  0.1717 -0.0283  0.0176
  530loPI    C2 8466  17.190  15.047  11.865  0.0912 -0.1019 -0.1065
  530loPI    C3 8467  17.124  15.412  12.014  0.0781 -0.1472 -0.0000
  530loPI   PO4 8468  17.500  15.236  11.512 -0.2652 -0.0915  0.0577
  530loPI   GL1 8469  17.549  15.178  11.122  0.1643 -0.0764 -0.3110
  530loPI   GL2 8470  17.737  15.283  11.029  0.0335 -0.1377 -0.0962
  530loPI   C1A 8471  17.538  14.790  10.881 -0.0663  0.1404 -0.1102
  530loPI   C2A 8472  17.433  14.758  10.443 -0.2253 -0.0908 -0.0289
  530loPI   C3A 8473  17.450  14.723  10.034  0.1204  0.2547 -0.0815
  530loPI   C4A 8474  17.359  14.833   9.605  0.1143  0.2691  0.0102
  530loPI   C5A 8475  17.275  14.825   9.194  0.0056 -0.4327  0.1911
  530loPI   C6A 8476  17.206  14.419   8.919  0.0848  0.1488 -0.2587
  530loPI   C1B 8477  17.619  15.254  10.595  0.4171  0.2672  0.1248
  530loPI   C2B 8478  17.615  15.239  10.131  0.2549 -0.1037 -0.0637
  530loPI   C3B 8479  17.637  15.256   9.746  0.0037 -0.0270  0.2566
  530loPI   C4B 8480  17.498  15.261   9.356 -0.2052  0.1081  0.2083
  531loPI    C1 8481   8.939   6.117  11.911  0.1135  0.0659 -0.0006
  531loPI    C2 8482   8.674   6.044  12.202  0.0507 -0.2073 -0.1229
  531loPI    C3 8483   9.032   6.200  12.291 -0.0458 -0.0957  0.0752
  531loPI   PO4 8484   8.791   5.988  11.626  0.1338  0.1632 -0.3786
  531loPI   GL1 8485   9.021   6.064  11.343 -0.1473  0.1216  0.1887
  531loPI   GL2 8486   9.207   5.898  11.276  0.0587  0.0612  0.3332
  531loPI   C1A 8487   8.814   6.227  11.008 -0.0872  0.0372 -0.1130
  531loPI   C2A 8488   8.854   6.297  10.617  0.1140  0.1032 -0.0723
  531loPI   C3A 8489   8.823   6.288  10.226  0.0421  0.1562 -0.0752
  531loPI   C4A 8490   8.745   6.219   9.746 -0.2101 -0.0865 -0.0976
  531loPI   C5A 8491   8.786   6.278   9.304  0.0757  0.2093  0.0142
  531loPI   C6A 8492   8.982   6.127   8.910  0.2100 -0.0702  0.0051
  531loPI   C1B 8493   9.205   5.896  10.755 -0.2489 -0.0585 -0.0300
  531loPI   C2B 8494   9.255   5.967  10.365 -0.1989 -0.1859  0.0984
  531loPI   C3B 8495   9.114   5.927   9.928 -0.0895 -0.0566  0.2264
  531loPI   C4B 8496   9.152   5.959   9.479 -0.0566 -0.0431  0.0731
  532loPI    C1 8497  16.236   9.032  12.012 -0.0448  0.1234 -0.1597
  532loPI    C2 8498  15.948   9.205  12.228 -0.0168 -0.1342  0.0912
  532loPI    C3 8499  16.254   9.025  12.412  0.0773 -0.2431 -0.1675
  532loPI   PO4 8500  16.288   9.118  11.830 -0.1305 -0.0516 -0.1025
  532loPI   GL1 8501  16.437   8.978  11.438 -0.5377 -0.1246  0.2081
  532loPI   GL2 8502  16.141   9.177  11.385  0.0506  0.0696 -0.0109
  532loPI   C1A 8503  16.180   8.840  11.066  0.0801  0.1715 -0.1274
  532loPI   C2A 8504  16.145   8.849  10.665 -0.0044 -0.0309 -0.2600
  532loPI   C3A 8505  16.089   8.869  10.238 -0.1260 -0.1371 -0.0445
  532loPI   C4A 8506  16.145   8.931   9.808 -0.1219 -0.0486 -0.2963
  532loPI   C5A 8507  16.186   8.805   9.409  0.2650  0.3585 -0.0060
  532loPI   C6A 8508  16.335   9.162   9.177  0.0702  0.2222 -0.0630
  532loPI   C1B 8509  16.218   9.320  10.950  0.1828  0.1154  0.0236
  532loPI   C2B 8510  16.363   9.382  10.531 -0.0502 -0.2027  0.0590
  532loPI   C3B 8511  16.270   9.374  10.033 -0.1028  0.1143 -0.1770
  532loPI   C4B 8512  16.274   9.421   9.637  0.2618  0.2697  0.0543
  533loPI    C1 8513  12.731   7.312  11.485 -0.1477  0.1769  0.3903
  533loPI    C2 8514  12.643   7.192  11.857  0.1204 -0.2837  0.3131
  533loPI    C3 8515  13.014   7.311  11.768 -0.0329  0.1891  0.2762
  533loPI   PO4 8516  12.651   7.086  11.343 -0.3024 -0.0358  0.0071
  533loPI   GL1 8517  12.566   6.910  10.954 -0.0815  0.0099 -0.0235
  533loPI   GL2 8518  12.972   6.898  10.990  0.1151 -0.1120 -0.2006
  533loPI   C1A 8519  12.693   6.756  10.474  0.2622 -0.3949 -0.0822
  533loPI   C2A 8520  12.650   6.835  10.079  0.2963  0.2342 -0.2096
  533loPI   C3A 8521  12.674   6.798   9.716 -0.1293  0.0288  0.0877
  533loPI   C4A 8522  12.712   6.718   9.281 -0.1805  0.1164 -0.5206
  533loPI   C5A 8523  12.778   6.751   8.757 -0.0165  0.0394 -0.0117
  533loPI   C6A 8524  12.470   6.752   8.381  0.2394  0.1445 -0.1071
  533loPI   C1B 8525  13.117   6.888  10.601 -0.1423  0.0340  0.1403
  533loPI   C2B 8526  13.166   6.886  10.133 -0.2308 -0.2371  0.0961
  533loPI   C3B 8527  13.194   6.905   9.655 -0.1719  0.0395 -0.3780
  533loPI   C4B 8528  13.203   6.918   9.269  0.0063  0.0350  0.2351
  534loPI    C1 8529   8.461  12.297  11.406  0.0912 -0.2384  0.1976
  534loPI    C2 8530   8.410  12.453  11.770 -0.0982 -0.0860  0.1074
  534loPI    C3 8531   8.092  12.344  11.553  0.0080 -0.0680 -0.0584
  534loPI   PO4 8532   8.587  12.478  11.267  0.0641 -0.1438 -0.0442
  534loPI   GL1 8533   8.567  12.664  10.801 -0.0227  0.2282  0.0960
  534loPI   GL2 8534   8.500  12.972  10.901 -0.3937 -0.2837  0.2127
  534loPI   C1A 8535   8.815  12.729  10.548  0.1429  0.0396  0.0700
  534loPI   C2A 8536   8.814  12.653  10.105 -0.1146 -0.0669  0.1934
  534loPI   C3A 8537   8.843  12.750   9.676 -0.1775  0.0429  0.0021
  534loPI   C4A 8538   8.787  12.624   9.272  0.0831 -0.2034 -0.2019
  534loPI   C5A 8539   8.502  12.633   8.896  0.0462 -0.0413  0.0742
  534loPI   C6A 8540   8.613  12.792   8.435  0.1802 -0.1532  0.0911
  534loPI   C1B 8541   8.590  13.162  10.510 -0.1358 -0.1346  0.0923
  534loPI   C2B 8542   8.563  13.178  10.048  0.0129 -0.2694  0.0311
  534loPI   C3B 8543   8.368  12.970   9.660 -0.2264 -0.0584  0.0824
  534loPI   C4B 8544   8.366  13.008   9.238  0.0972 -0.0336  0.0511
  535loPI    C1 8545   6.637   6.679  11.739 -0.2075 -0.0533 -0.1033
  535loPI    C2 8546   6.423   6.446  11.985 -0.2829  0.1506  0.0267
  535loPI    C3 8547   6.714   6.679  12.131 -0.0065 -0.0807 -0.1416
  535loPI   PO4 8548   6.580   6.614  11.519 -0.0576  0.1098  0.1592
  535loPI   GL1 8549   6.592   6.267  11.276  0.0185  0.0226  0.0577
  535loPI   GL2 8550   6.424   6.081  11.111  0.1222  0.1779 -0.1223
  535loPI   C1A 8551   6.642   6.454  10.861 -0.1107 -0.1913  0.3176
  535loPI   C2A 8552   6.584   6.452  10.435  0.1212  0.0261 -0.1099
  535loPI   C3A 8553   6.436   6.549  10.042  0.0482  0.1024  0.0359
  535loPI   C4A 8554   6.489   6.645   9.587  0.0922  0.0061 -0.0600
  535loPI   C5A 8555   6.564   6.413   9.307 -0.0565 -0.1061 -0.1766
  535loPI   C6A 8556   6.730   6.168   8.932  0.0313  0.2009 -0.1306
  535loPI   C1B 8557   6.448   5.913  10.763  0.2037 -0.3040  0.2504
  535loPI   C2B 8558   6.476   5.904  10.383  0.0365 -0.0052  0.4934
  535loPI   C3B 8559   6.438   5.987   9.995 -0.3001 -0.3039 -0.1030
  535loPI   C4B 8560   6.441   5.974   9.506 -0.1803  0.0124  0.1467
  536loPI    C1 8561   0.488  15.732  11.988  0.1496  0.0471  0.0336
  536loPI    C2 8562   0.589  15.451  12.254  0.2550  0.1160  0.0670
  536loPI    C3 8563   0.284  15.389  12.003  0.1905  0.0280  0.1666
  536loPI   PO4 8564   0.738  15.755  11.845  0.1749 -0.1051  0.0356
  536loPI   GL1 8565   0.952  15.907  11.585  0.0187  0.3429  0.1709
  536loPI   GL2 8566   0.754  16.002  11.331  0.3919 -0.0165 -0.3569
  536loPI   C1A 8567   1.308  15.753  11.263  0.0430 -0.0456  0.0714
  536loPI   C2A 8568   1.376  15.586  10.757 -0.2407  0.0170  0.3122
  536loPI   C3A 8569   1.226  15.535  10.348  0.3234 -0.1316 -0.1427
  536loPI   C4A 8570   1.204  15.589   9.976  0.1149 -0.1380  0.1795
  536loPI   C5A 8571   1.220  15.530   9.568 -0.0719 -0.1262  0.0315
  536loPI   C6A 8572   1.358  15.285   9.230 -0.1373 -0.2901  0.2033
  536loPI   C1B 8573   0.919  15.953  10.964 -0.1464  0.0502  0.1991
  536loPI   C2B 8574   0.980  15.911  10.500  0.3168 -0.0284  0.2874
  536loPI   C3B 8575   0.858  15.875  10.138  0.0728  0.1512 -0.2587
  536loPI   C4B 8576   0.797  15.826   9.675  0.0220  0.0791  0.3215
  537loPI    C1 8577   9.964   9.769  11.442  0.0146  0.3782 -0.0389
  537loPI    C2 8578   9.872   9.582  11.783  0.3104  0.0512 -0.1319
  537loPI    C3 8579   9.586   9.662  11.515  0.0775  0.3013  0.1824
  537loPI   PO4 8580  10.128   9.666  11.234 -0.1373 -0.0610 -0.2947
  537loPI   GL1 8581   9.914   9.416  10.908 -0.0304 -0.0267 -0.3493
  537loPI   GL2 8582  10.200   9.307  10.761  0.2369  0.4579  0.0530
  537loPI   C1A 8583   9.658   9.320  10.608 -0.1950  0.2312  0.1687
  537loPI   C2A 8584   9.727   9.186  10.204 -0.2027  0.1920 -0.4299
  537loPI   C3A 8585   9.625   9.170   9.868  0.0890  0.1440 -0.0350
  537loPI   C4A 8586   9.537   9.197   9.432 -0.0457 -0.0291 -0.0307
  537loPI   C5A 8587   9.398   9.005   9.083  0.0177  0.1440  0.0509
  537loPI   C6A 8588   9.536   8.736   8.843 -0.2900  0.0509  0.2497
  537loPI   C1B 8589  10.102   9.410  10.374 -0.4343  0.0704  0.0215
  537loPI   C2B 8590  10.146   9.291   9.920 -0.0225  0.1117  0.0718
  537loPI   C3B 8591  10.091   9.199   9.466  0.0173  0.2497  0.0038
  537loPI   C4B 8592  10.120   9.075   9.061  0.1749 -0.0920  0.1557
  538loPI    C1 8593   4.475   7.230  11.811  0.1384  0.0784 -0.0642
  538loPI    C2 8594   4.121   7.138  11.974  0.1792 -0.0376 -0.0408
  538loPI    C3 8595   4.426   7.249  12.208  0.0883  0.3052 -0.0795
  538loPI   PO4 8596   4.435   7.331  11.606 -0.0460 -0.0722  0.2684
  538loPI   GL1 8597   4.643   7.419  11.264 -0.1980  0.2558  0.3191
  538loPI   GL2 8598   4.900   7.642  11.034  0.3046 -0.1012  0.1317
  538loPI   C1A 8599   4.498   7.331  10.844  0.1258 -0.1706  0.3626
  538loPI   C2A 8600   4.509   7.389  10.426  0.1230  0.2075  0.2474
  538loPI   C3A 8601   4.439   7.312   9.993  0.1149  0.0573  0.1123
  538loPI   C4A 8602   4.367   7.448   9.654 -0.2381  0.0314  0.1800
  538loPI   C5A 8603   4.408   7.256   9.248 -0.1444  0.0985  0.1265
  538loPI   C6A 8604   4.420   6.815   9.072 -0.0120  0.1697 -0.0309
  538loPI   C1B 8605   4.960   7.487  10.600  0.0560 -0.0972  0.0918
  538loPI   C2B 8606   4.925   7.425  10.131 -0.0766  0.0745 -0.0266
  538loPI   C3B 8607   4.965   7.603   9.788  0.3231  0.1328 -0.2476
  538loPI   C4B 8608   4.759   7.616   9.407 -0.1199 -0.1202 -0.3986
  539loPI    C1 8609   7.865  15.182  11.759  0.0397 -0.0435  0.0612
  539loPI    C2 8610   7.795  15.556  11.882 -0.0750 -0.0692  0.0749
  539loPI    C3 8611   7.843  15.263  12.150 -0.0545 -0.0767  0.0630
  539loPI   PO4 8612   7.963  15.199  11.534  0.0809  0.1213 -0.1037
  539loPI   GL1 8613   8.040  15.091  11.158 -0.0165  0.1910  0.0222
  539loPI   GL2 8614   8.139  15.308  11.064  0.0684  0.0407  0.0606
  539loPI   C1A 8615   7.831  15.049  10.749  0.1983 -0.0595 -0.0200
  539loPI   C2A 8616   7.696  15.158  10.384 -0.2049 -0.0435 -0.0460
  539loPI   C3A 8617   7.641  15.175  10.045  0.0166 -0.3511  0.0297
  539loPI   C4A 8618   7.543  15.198   9.563  0.3710  0.0811  0.3985
  539loPI   C5A 8619   7.736  15.209   9.160  0.1942 -0.1705 -0.3423
  539loPI   C6A 8620   8.024  15.427   8.917 -0.2046  0.2995  0.0398
  539loPI   C1B 8621   8.282  15.313  10.662 -0.0129 -0.0494 -0.2347
  539loPI   C2B 8622   8.212  15.310  10.249  0.0313  0.2803  0.1240
  539loPI   C3B 8623   8.275  15.377   9.836 -0.1361  0.1679 -0.0109
  539loPI   C4B 8624   8.201  15.174   9.384 -0.3635  0.0966 -0.2092
  540loPI    C1 8625   9.543   1.389  11.844  0.0502 -0.0406 -0.0444
  540loPI    C2 8626   9.223   1.168  11.940  0.0591 -0.1141 -0.1814
  540loPI    C3 8627   9.577   1.095  12.113  0.0192 -0.0826 -0.0863
  540loPI   PO4 8628   9.415   1.576  11.639 -0.2202 -0.1872 -0.1452
  540loPI   GL1 8629   9.191   1.647  11.255  0.0272  0.0070 -0.1033
  540loPI   GL2 8630   9.409   1.757  11.191  0.2621 -0.1317 -0.2281
  540loPI   C1A 8631   8.990   1.643  10.866 -0.0617 -0.0433 -0.0553
  540loPI   C2A 8632   8.824   1.756  10.401 -0.5048  0.1201  0.2393
  540loPI   C3A 8633   8.885   1.699   9.969  0.0629  0.0406 -0.0481
  540loPI   C4A 8634   8.932   1.729   9.561  0.1167  0.1716  0.1241
  540loPI   C5A 8635   9.292   1.907   9.189  0.1156 -0.0121 -0.0120
  540loPI   C6A 8636   9.568   1.971   8.800  0.2164 -0.0631  0.1568
  540loPI   C1B 8637   9.444   1.709  10.806  0.0440 -0.1236  0.0885
  540loPI   C2B 8638   9.333   1.912  10.456  0.2330 -0.2194  0.2881
  540loPI   C3B 8639   9.334   1.846  10.029 -0.0495  0.0068 -0.0598
  540loPI   C4B 8640   9.394   1.877   9.666  0.2429  0.1316  0.0253
  541POPI    C1 8641   0.441  10.952  11.738  0.0083 -0.0713  0.0562
  541POPI    C2 8642   0.591  10.814  11.393 -0.0374  0.2797 -0.1084
  541POPI    C3 8643   0.836  10.960  11.674  0.0114 -0.1279  0.0679
  541POPI   PO4 8644   0.207  11.053  11.595 -0.0965 -0.2648 -0.2236
  541POPI   GL1 8645   0.253  11.094  11.174  0.0209  0.3853 -0.0716
  541POPI   GL2 8646   0.316  10.777  11.032  0.0161  0.2281  0.1266
  541POPI   C1A 8647   0.478  11.092  10.718  0.1765 -0.0006  0.0242
  541POPI   D2A 8648   0.384  11.139  10.282  0.3759 -0.0323  0.1168
  541POPI   C3A 8649   0.383  11.048   9.814  0.2315 -0.1906 -0.2739
  541POPI   C4A 8650   0.336  10.955   9.396 -0.2416 -0.2470  0.0507
  541POPI   C1B 8651   0.295  10.575  10.577 -0.2840  0.3205 -0.0850
  541POPI   C2B 8652   0.239  10.487  10.196  0.1302 -0.3016  0.1302
  541POPI   C3B 8653   0.208  10.586   9.757 -0.0691 -0.0119 -0.1009
  541POPI   C4B 8654   0.277  10.483   9.340 -0.1903 -0.0690  0.0636
  542POPI    C1 8655   0.097   8.480  12.036 -0.1223 -0.2086  0.0555
  542POPI    C2 8656   0.410   8.265  12.160 -0.1475 -0.2109  0.1155
  542POPI    C3 8657   0.051   8.210  12.328 -0.1171  0.0021  0.2542
  542POPI   PO4 8658   0.204   8.443  11.687  0.3485  0.0056 -0.1410
  542POPI   GL1 8659   0.051   7.955  11.400 -0.3653 -0.0505 -0.2119
  542POPI   GL2 8660  -0.058   7.755  11.058 -0.1004  0.1364  0.0094
  542POPI   C1A 8661  -0.004   8.249  11.074  0.2208  0.1182 -0.4252
  542POPI   D2A 8662   0.011   8.290  10.662  0.0324  0.0459  0.0606
  542POPI   C3A 8663   0.095   8.119  10.284  0.1159 -0.0462  0.0613
  542POPI   C4A 8664   0.012   8.209   9.830 -0.0003 -0.1005 -0.3254
  542POPI   C1B 8665  -0.124   7.776  10.670 -0.3338 -0.1043  0.2723
  542POPI   C2B 8666  -0.194   7.719  10.236  0.0244 -0.2143 -0.0275
  542POPI   C3B 8667  -0.185   7.699   9.803 -0.0444  0.0521  0.1731
  542POPI   C4B 8668  -0.162   7.577   9.387  0.2237  0.4058  0.2534
  543POPI    C1 8669  12.203   9.592  11.683  0.0349  0.0586  0.0097
  543POPI    C2 8670  12.165   9.535  12.077 -0.1027  0.0341 -0.0065
  543POPI    C3 8671  12.416   9.814  11.938  0.0199 -0.0248  0.0951
  543POPI   PO4 8672  12.274   9.316  11.572  0.0917  0.0952  0.1257
  543POPI   GL1 8673  12.492   9.322  11.178  0.0692 -0.0856 -0.0999
  543POPI   GL2 8674  12.340   9.015  11.047  0.0742  0.0941 -0.0148
  543POPI   C1A 8675  12.688   9.496  10.878  0.2373 -0.1653 -0.0774
  543POPI   D2A 8676  12.541   9.562  10.459  0.1068 -0.0991 -0.0892
  543POPI   C3A 8677  12.533   9.496  10.057 -0.0483  0.0374  0.3047
  543POPI   C4A 8678  12.611   9.510   9.618  0.0955  0.0827 -0.4509
  543POPI   C1B 8679  12.404   9.029  10.601 -0.0442 -0.0955 -0.0762
  543POPI   C2B 8680  12.401   8.964  10.108 -0.1834  0.0801  0.2338
  543POPI   C3B 8681  12.499   8.987   9.620  0.3228  0.3268  0.1072
  543POPI   C4B 8682  12.833   8.965   9.179  0.1988  0.0686 -0.0793
  544POPI    C1 8683   7.878  13.231  11.597  0.0013 -0.1873  0.2746
  544POPI    C2 8684   7.694  13.112  11.932  0.1070 -0.0287  0.3901
  544POPI    C3 8685   8.031  13.328  11.954  0.1010  0.0037  0.1816
  544POPI   PO4 8686   7.771  13.397  11.467  0.1886  0.0798 -0.0674
  544POPI   GL1 8687   7.441  13.435  11.088  0.0551 -0.3566  0.1290
  544POPI   GL2 8688   7.309  13.688  11.058 -0.2068  0.0094  0.0939
  544POPI   C1A 8689   7.761  13.320  10.734  0.1148  0.3047 -0.4270
  544POPI   D2A 8690   8.043  13.056  10.639 -0.0001  0.0589  0.0565
  544POPI   C3A 8691   8.189  12.942  10.259 -0.0005  0.0826 -0.2251
  544POPI   C4A 8692   7.880  12.901   9.836  0.1439 -0.0145  0.1498
  544POPI   C1B 8693   7.286  13.584  10.619  0.2027  0.3074  0.0169
  544POPI   C2B 8694   7.434  13.679  10.179  0.0206 -0.0368 -0.2932
  544POPI   C3B 8695   7.212  13.725   9.786 -0.1847  0.3254  0.0201
  544POPI   C4B 8696   7.092  13.734   9.409 -0.0744  0.1549  0.3065
  545POPI    C1 8697  16.063  13.946  11.687 -0.1093  0.0012  0.0918
  545POPI    C2 8698  15.683  14.063  11.729 -0.1759 -0.2345  0.1626
  545POPI    C3 8699  15.857  13.844  12.015 -0.0668 -0.3401  0.0166
  545POPI   PO4 8700  16.051  13.881  11.381  0.0192 -0.2445  0.0338
  545POPI   GL1 8701  16.016  13.929  10.909 -0.2766 -0.0021 -0.4817
  545POPI   GL2 8702  15.674  13.928  10.794 -0.1307 -0.0881  0.1046
  545POPI   C1A 8703  16.352  13.998  10.610  0.0168  0.1540 -0.0389
  545POPI   D2A 8704  16.283  14.064  10.169 -0.1588 -0.2865 -0.1482
  545POPI   C3A 8705  16.280  14.075   9.741 -0.0416  0.3575 -0.1435
  545POPI   C4A 8706  16.196  13.948   9.346 -0.0099 -0.2108  0.3636
  545POPI   C1B 8707  15.825  14.007  10.399 -0.2884 -0.0588  0.0910
  545POPI   C2B 8708  15.722  13.872   9.971 -0.2195 -0.1267 -0.0188
  545POPI   C3B 8709  15.777  13.813   9.492  0.1718  0.1283  0.6192
  545POPI   C4B 8710  15.761  13.768   9.021  0.3051  0.0624 -0.1859
  546POPI    C1 8711   2.410   7.644  11.716 -0.1733 -0.1545  0.1467
  546POPI    C2 8712   2.364   7.981  11.927 -0.0409 -0.0437  0.0010
  546POPI    C3 8713   2.234   7.633  12.076 -0.2366  0.0802  0.1247
  546POPI   PO4 8714   2.343   7.747  11.446  0.4320 -0.2268 -0.0343
  546POPI   GL1 8715   2.331   7.571  11.125  0.1868 -0.0767  0.0472
  546POPI   GL2 8716   2.271   7.331  11.002 -0.4258  0.1324  0.0530
  546POPI   C1A 8717   2.272   7.785  10.657 -0.1292 -0.0620  0.1541
  546POPI   D2A 8718   2.093   7.793  10.276  0.1525  0.0429  0.0277
  546POPI   C3A 8719   2.245   7.669   9.998 -0.0813  0.1142 -0.2977
  546POPI   C4A 8720   2.218   7.717   9.595 -0.2259 -0.1213 -0.2300
  546POPI   C1B 8721   2.126   7.247  10.612 -0.0772 -0.0202 -0.1847
  546POPI   C2B 8722   2.089   7.224  10.190 -0.0367  0.1265 -0.3800
  546POPI   C3B 8723   2.054   7.279   9.776 -0.1055 -0.1666  0.2346
  546POPI   C4B 8724   2.113   7.227   9.435  0.3597  0.1542  0.4354
  547POPI    C1 8725  12.257   5.086  11.923 -0.0211 -0.1392 -0.1655
  547POPI    C2 8726  12.195   5.286  12.264 -0.1352  0.1178 -0.3331
  547POPI    C3 8727  12.319   4.905  12.274 -0.2912  0.0722 -0.0048
  547POPI   PO4 8728  12.258   5.261  11.719 -0.0372 -0.1330 -0.1889
  547POPI   GL1 8729  12.401   5.300  11.262 -0.3742  0.0389  0.0155
  547POPI   GL2 8730  12.294   4.967  11.258  0.1436  0.0919 -0.0759
  547POPI   C1A 8731  12.233   5.383  10.855 -0.0197  0.0778 -0.2274
  547POPI   D2A 8732  12.138   5.313  10.459 -0.0811  0.0163  0.1326
  547POPI   C3A 8733  12.174   5.362  10.043 -0.0343 -0.3925 -0.0559
  547POPI   C4A 8734  12.217   5.191   9.759  0.1157 -0.3020  0.1003
  547POPI   C1B 8735  12.059   4.862  10.853 -0.1965 -0.1047  0.1016
  547POPI   C2B 8736  12.011   4.796  10.461  0.3435 -0.2285 -0.0440
  547POPI   C3B 8737  12.062   4.785  10.075 -0.1722  0.1145 -0.0710
  547POPI   C4B 8738  12.089   4.758   9.656 -0.2204  0.0187 -0.1444
  548POPI    C1 8739   7.133   6.761  11.875 -0.2162 -0.1316  0.1187
  548POPI    C2 8740   7.173   7.045  12.155 -0.1211 -0.0298  0.0030
  548POPI    C3 8741   7.236   6.661  12.248 -0.2374 -0.0120  0.1572
  548POPI   PO4 8742   7.312   6.920  11.645  0.1290 -0.2105 -0.1685
  548POPI   GL1 8743   7.521   7.002  11.313 -0.0637 -0.0446  0.2585
  548POPI   GL2 8744   7.422   7.232  11.070  0.0813  0.0054 -0.0103
  548POPI   C1A 8745   7.614   6.775  10.880  0.0579 -0.0102 -0.0869
  548POPI   D2A 8746   7.526   6.731  10.464  0.0100 -0.1465 -0.2542
  548POPI   C3A 8747   7.466   6.843  10.076 -0.3397  0.0350 -0.2521
  548POPI   C4A 8748   7.546   6.825   9.587 -0.0592  0.0299  0.3119
  548POPI   C1B 8749   7.203   7.077  10.701 -0.0850  0.1744 -0.1632
  548POPI   C2B 8750   7.111   7.195  10.239  0.2137  0.3693  0.0035
  548POPI   C3B 8751   7.161   7.251   9.909 -0.0238 -0.1811 -0.1591
  548POPI   C4B 8752   7.092   7.149   9.437  0.2265  0.0550 -0.1523
  549POPI    C1 8753  16.143  16.927  11.629  0.0968 -0.0047  0.0350
  549POPI    C2 8754  15.927  17.153  11.878 -0.0118  0.2573 -0.2895
  549POPI    C3 8755  16.324  17.124  11.926 -0.0614  0.1054  0.0592
  549POPI   PO4 8756  16.132  17.072  11.412 -0.0655 -0.0126  0.0954
  549POPI   GL1 8757  16.048  17.081  10.971  0.0410  0.0527  0.0541
  549POPI   GL2 8758  16.190  17.404  10.829  0.0284 -0.1158  0.3312
  549POPI   C1A 8759  15.783  17.163  10.658 -0.3073 -0.0754  0.1548
  549POPI   D2A 8760  15.755  17.166  10.129  0.0384 -0.1595  0.0684
  549POPI   C3A 8761  15.761  17.224   9.687  0.2234 -0.0399  0.0495
  549POPI   C4A 8762  15.716  17.042   9.367  0.1189 -0.2927  0.4483
  549POPI   C1B 8763  16.288  17.268  10.414 -0.0216 -0.1597 -0.2613
  549POPI   C2B 8764  16.336  17.323   9.994 -0.0829 -0.2255 -0.0062
  549POPI   C3B 8765  16.318  17.342   9.596  0.2384  0.2558 -0.1197
  549POPI   C4B 8766  16.358  17.335   9.207  0.2229  0.0458 -0.2164
  550POPI    C1 8767  13.490   0.547  11.573  0.1016  0.0228 -0.1674
  550POPI    C2 8768  13.851   0.438  11.707  0.1209  0.2098 -0.0631
  550POPI    C3 8769  13.525   0.237  11.822  0.1495  0.2963  0.1736
  550POPI   PO4 8770  13.513   0.520  11.349  0.1854 -0.4092  0.1128
  550POPI   GL1 8771  13.710   0.662  10.941 -0.0787 -0.0548  0.1979
  550POPI   GL2 8772  13.916   0.855  10.872 -0.1340  0.1452 -0.0002
  550POPI   C1A 8773  13.655   0.312  10.667  0.2664  0.2553 -0.2017
  550POPI   D2A 8774  13.672   0.178  10.238 -0.0187  0.1115 -0.0816
  550POPI   C3A 8775  13.678   0.119   9.758  0.2196  0.0310  0.0374
  550POPI   C4A 8776  13.555   0.251   9.359 -0.0477 -0.0161 -0.0564
  550POPI   C1B 8777  13.769   0.738  10.459 -0.3711 -0.1196  0.0681
  550POPI   C2B 8778  13.848   0.687  10.030 -0.0722 -0.0229  0.0988
  550POPI   C3B 8779  13.758   0.724   9.570  0.2565 -0.2325 -0.2143
  550POPI   C4B 8780  13.744   0.789   9.162  0.1271  0.1373  0.4168
  551POPI    C1 8781   0.265   7.489  11.904  0.0953  0.1561 -0.2459
  551POPI    C2 8782   0.323   7.770  12.182 -0.1787  0.0610 -0.0881
  551POPI    C3 8783   0.203   7.404  12.290 -0.1683 -0.0132 -0.3221
  551POPI   PO4 8784   0.196   7.603  11.696 -0.3485  0.1988  0.1149
  551POPI   GL1 8785   0.264   7.470  11.383 -0.1502  0.0740 -0.0191
  551POPI   GL2 8786   0.495   7.726  11.297  0.0009 -0.0468  0.1598
  551POPI   C1A 8787   0.335   7.325  10.965  0.0629 -0.1669  0.1519
  551POPI   D2A 8788   0.200   7.374  10.659 -0.2380  0.0450  0.0477
  551POPI   C3A 8789   0.193   7.355  10.279  0.0882  0.1311 -0.0851
  551POPI   C4A 8790   0.229   7.267   9.835 -0.0454  0.0639 -0.1699
  551POPI   C1B 8791   0.376   7.873  10.893 -0.2726  0.2169 -0.2537
  551POPI   C2B 8792   0.364   7.797  10.480 -0.1453 -0.2109  0.2994
  551POPI   C3B 8793   0.353   7.782  10.025 -0.3110  0.2641 -0.2588
  551POPI   C4B 8794   0.269   7.779   9.579 -0.0408 -0.0218  0.1581
  552POPI    C1 8795  14.712   9.779  11.822  0.2016  0.1852  0.1125
  552POPI    C2 8796  14.989   9.523  11.954  0.2596  0.2624  0.1410
  552POPI    C3 8797  14.651   9.574  12.160  0.0728 -0.0846 -0.0704
  552POPI   PO4 8798  14.701   9.657  11.549  0.1849 -0.2299  0.0716
  552POPI   GL1 8799  14.638   9.522  11.134  0.0683 -0.2563  0.1194
  552POPI   GL2 8800  15.036   9.575  11.119 -0.1323  0.0786  0.0073
  552POPI   C1A 8801  14.530   9.399  10.756 -0.0400  0.1412  0.0743
  552POPI   D2A 8802  14.356   9.451  10.328  0.0344 -0.0897  0.0424
  552POPI   C3A 8803  14.470   9.385   9.884 -0.0062 -0.1396  0.4122
  552POPI   C4A 8804  14.469   9.458   9.493 -0.1480  0.0448  0.1546
  552POPI   C1B 8805  14.945   9.568  10.603  0.0545  0.1127 -0.2965
  552POPI   C2B 8806  14.885   9.559  10.197 -0.0072 -0.1761 -0.1225
  552POPI   C3B 8807  14.912   9.531   9.726  0.0668 -0.2225 -0.1219
  552POPI   C4B 8808  14.908   9.552   9.376 -0.1365 -0.0439  0.0512
  553POPI    C1 8809  13.321   8.309  11.706 -0.1291  0.1895 -0.1405
  553POPI    C2 8810  13.444   8.543  12.007  0.2567 -0.0647 -0.0934
  553POPI    C3 8811  13.193   8.239  12.079  0.1113  0.0572 -0.0807
  553POPI   PO4 8812  13.495   8.391  11.496 -0.0580  0.1259  0.0967
  553POPI   GL1 8813  13.583   8.228  11.008 -0.3187  0.0052  0.0850
  553POPI   GL2 8814  13.480   7.986  10.909 -0.1005 -0.5032 -0.0307
  553POPI   C1A 8815  13.639   8.403  10.653 -0.0949 -0.1711 -0.0127
  553POPI   D2A 8816  13.604   8.461  10.170 -0.2374  0.0113 -0.0277
  553POPI   C3A 8817  13.680   8.397   9.735 -0.3392  0.0501  0.1869
  553POPI   C4A 8818  13.641   8.374   9.301 -0.0896  0.0128  0.0873
  553POPI   C1B 8819  13.450   7.936  10.401 -0.1933  0.1412  0.1218
  553POPI   C2B 8820  13.415   7.886   9.996  0.0137 -0.0722  0.1824
  553POPI   C3B 8821  13.552   7.866   9.643 -0.0167  0.0097  0.4135
  553POPI   C4B 8822  13.502   7.826   9.161 -0.1676 -0.0487  0.1507
  554POPI    C1 8823   6.799  12.041  11.444  0.0304 -0.0585  0.0649
  554POPI    C2 8824   6.887  11.708  11.647  0.2239 -0.0845 -0.0592
  554POPI    C3 8825   7.132  12.023  11.664  0.0261  0.0644  0.0821
  554POPI   PO4 8826   6.717  11.943  11.160  0.0758 -0.0662 -0.1663
  554POPI   GL1 8827   6.780  11.781  10.762 -0.2510  0.0442  0.1570
  554POPI   GL2 8828   7.112  11.820  10.749  0.0499 -0.0583 -0.0196
  554POPI   C1A 8829   6.883  11.651  10.261  0.1977  0.0570 -0.1513
  554POPI   D2A 8830   6.791  11.540   9.787 -0.2640 -0.1026  0.0385
  554POPI   C3A 8831   6.636  11.720   9.356 -0.0332 -0.0274  0.1219
  554POPI   C4A 8832   6.655  11.765   9.006  0.0555 -0.1118  0.3527
  554POPI   C1B 8833   7.036  12.149  10.404  0.2709  0.0187  0.1164
  554POPI   C2B 8834   6.849  12.414  10.053  0.1079 -0.0660  0.2061
  554POPI   C3B 8835   6.936  12.640   9.628  0.0560 -0.0662 -0.1281
  554POPI   C4B 8836   6.885  12.741   9.143 -0.0918 -0.0173  0.2614
  555POPI    C1 8837  16.895   3.285  11.671  0.1241  0.0465 -0.0739
  555POPI    C2 8838  17.115   2.985  11.818 -0.1018 -0.2479 -0.3227
  555POPI    C3 8839  16.817   3.139  12.035  0.2085  0.0115 -0.0695
  555POPI   PO4 8840  16.838   3.237  11.480  0.0594  0.0660 -0.2272
  555POPI   GL1 8841  16.974   3.263  11.013  0.1625  0.0080  0.0866
  555POPI   GL2 8842  16.828   2.934  10.968  0.1743  0.1938  0.2383
  555POPI   C1A 8843  17.192   3.236  10.660  0.1981  0.0237 -0.0875
  555POPI   D2A 8844  17.157   3.221  10.241  0.0751 -0.2196  0.1795
  555POPI   C3A 8845  17.179   3.016   9.879  0.1646 -0.0025  0.1665
  555POPI   C4A 8846  17.060   2.953   9.482  0.0602 -0.0370  0.0164
  555POPI   C1B 8847  16.786   2.954  10.548  0.1569 -0.2156  0.0909
  555POPI   C2B 8848  16.735   2.885  10.078  0.0810  0.0515 -0.1926
  555POPI   C3B 8849  16.611   2.841   9.651  0.0598 -0.3453 -0.3664
  555POPI   C4B 8850  16.559   2.900   9.241 -0.0491 -0.2029 -0.3555
  556POPI    C1 8851  16.495   6.245  11.991  0.3499 -0.0755 -0.2182
  556POPI    C2 8852  16.403   5.934  12.224 -0.0129  0.0753 -0.1536
  556POPI    C3 8853  16.583   6.254  12.381  0.1158  0.0094 -0.1656
  556POPI   PO4 8854  16.596   6.017  11.752  0.2439  0.1129 -0.1592
  556POPI   GL1 8855  16.622   5.975  11.301 -0.0781 -0.2175 -0.2691
  556POPI   GL2 8856  16.776   6.137  11.088 -0.0218  0.0824  0.0257
  556POPI   C1A 8857  16.599   5.704  10.837 -0.0690  0.0180 -0.3068
  556POPI   D2A 8858  16.585   5.870  10.359  0.0679  0.1170  0.3923
  556POPI   C3A 8859  16.528   5.849   9.978  0.1661 -0.2323 -0.3360
  556POPI   C4A 8860  16.556   5.642   9.550  0.5469  0.0382 -0.3668
  556POPI   C1B 8861  16.785   6.297  10.646  0.2881  0.2777 -0.1016
  556POPI   C2B 8862  16.796   6.308  10.190  0.2296 -0.1001 -0.1861
  556POPI   C3B 8863  16.708   6.271   9.738 -0.1102 -0.0569 -0.1943
  556POPI   C4B 8864  16.697   6.086   9.383 -0.0103  0.3483 -0.0530
  557POPI    C1 8865  15.949   3.215  11.359 -0.0814  0.0849  0.0088
  557POPI    C2 8866  16.020   2.827  11.291 -0.1686  0.0758 -0.0310
  557POPI    C3 8867  15.907   2.949  11.655 -0.0623  0.0750  0.0027
  557POPI   PO4 8868  15.765   3.296  11.120 -0.2402 -0.2187  0.1542
  557POPI   GL1 8869  15.550   3.154  10.809  0.1573  0.3244 -0.1409
  557POPI   GL2 8870  15.735   2.897  10.758 -0.4894  0.0366  0.2580
  557POPI   C1A 8871  15.516   3.501  10.540  0.1371 -0.4420  0.0194
  557POPI   D2A 8872  15.422   3.485  10.075  0.2036  0.0595 -0.0877
  557POPI   C3A 8873  15.556   3.533   9.668  0.1063  0.0273  0.1095
  557POPI   C4A 8874  15.448   3.701   9.209  0.0596  0.1806  0.0880
  557POPI   C1B 8875  15.797   3.072  10.392  0.0163 -0.0235  0.1670
  557POPI   C2B 8876  15.781   3.088   9.939  0.1514 -0.4017  0.2930
  557POPI   C3B 8877  15.849   3.197   9.419 -0.0961 -0.0046  0.0755
  557POPI   C4B 8878  15.786   3.301   9.010 -0.1632 -0.0583  0.3354
  558POPI    C1 8879   8.206   6.755  12.213 -0.0367 -0.0559  0.1721
  558POPI    C2 8880   8.316   7.026  12.486  0.3282 -0.0647  0.0391
  558POPI    C3 8881   8.096   6.710  12.595  0.0604  0.1824  0.2300
  558POPI   PO4 8882   8.265   6.885  11.921  0.0021 -0.0781  0.0039
  558POPI   GL1 8883   8.293   7.019  11.400  0.1746 -0.0926 -0.2433
  558POPI   GL2 8884   8.464   7.086  11.240 -0.1253 -0.0347 -0.2050
  558POPI   C1A 8885   8.124   6.840  10.951  0.0379  0.0206 -0.0004
  558POPI   D2A 8886   7.968   6.978  10.584 -0.1627  0.0088  0.1716
  558POPI   C3A 8887   8.075   6.963  10.146 -0.0999  0.2998  0.1761
  558POPI   C4A 8888   8.048   7.066   9.768  0.1711  0.2164  0.5217
  558POPI   C1B 8889   8.611   7.115  10.868 -0.2572 -0.1492  0.0175
  558POPI   C2B 8890   8.522   7.071  10.411  0.3505  0.2040 -0.0445
  558POPI   C3B 8891   8.488   7.110   9.996 -0.1069 -0.1223 -0.1419
  558POPI   C4B 8892   8.574   7.138   9.575 -0.3230  0.1906 -0.2762
  559POPI    C1 8893   0.339  14.850  11.888  0.1811 -0.0909 -0.2274
  559POPI    C2 8894   0.674  14.969  12.072  0.0972  0.0254 -0.1490
  559POPI    C3 8895   0.339  14.912  12.283  0.0269  0.0610 -0.2502
  559POPI   PO4 8896   0.435  14.774  11.626  0.1989 -0.1806 -0.0583
  559POPI   GL1 8897   0.729  14.671  11.278 -0.1009  0.0656 -0.1962
  559POPI   GL2 8898   0.752  15.016  11.229 -0.1819 -0.1952 -0.0624
  559POPI   C1A 8899   0.577  14.470  10.895 -0.0204 -0.0254  0.0040
  559POPI   D2A 8900   0.500  14.376  10.507  0.1722  0.1728 -0.1106
  559POPI   C3A 8901   0.399  14.346   9.996  0.2194  0.1051 -0.0227
  559POPI   C4A 8902   0.371  14.302   9.623  0.1928 -0.0113  0.2689
  559POPI   C1B 8903   0.718  14.985  10.765 -0.1691  0.0260 -0.0355
  559POPI   C2B 8904   0.569  14.871  10.327  0.2264  0.0384 -0.2849
  559POPI   C3B 8905   0.609  14.813   9.916 -0.0747 -0.1386  0.1948
  559POPI   C4B 8906   0.551  14.914   9.487  0.0641 -0.2319 -0.2586
  560POPI    C1 8907   3.453   9.914  11.901  0.3345  0.2969  0.2206
  560POPI    C2 8908   3.430   9.627  12.178  0.1931  0.0067 -0.0857
  560POPI    C3 8909   3.775   9.693  11.986  0.2366  0.0704  0.0139
  560POPI   PO4 8910   3.305   9.945  11.788 -0.0994 -0.1663 -0.0646
  560POPI   GL1 8911   3.371  10.004  11.363  0.0156 -0.1065  0.0009
  560POPI   GL2 8912   3.180   9.781  11.282 -0.1161  0.0490 -0.1826
  560POPI   C1A 8913   3.300  10.047  10.878  0.0910  0.1552 -0.1382
  560POPI   D2A 8914   3.389   9.958  10.447  0.1879 -0.0049 -0.3771
  560POPI   C3A 8915   3.293   9.937  10.005 -0.0788 -0.0199 -0.0895
  560POPI   C4A 8916   3.254   9.895   9.650  0.0175 -0.2594 -0.0339
  560POPI   C1B 8917   3.228   9.539  10.859 -0.1061 -0.4268 -0.0683
  560POPI   C2B 8918   3.156   9.526  10.448 -0.1989  0.1507 -0.1391
  560POPI   C3B 8919   3.085   9.402   9.990 -0.0794 -0.4082 -0.0997
  560POPI   C4B 8920   3.125   9.445   9.583 -0.0130 -0.1715  0.3207
  561POPI    C1 8921   8.115  11.430  11.470  0.0904  0.0048  0.2364
  561POPI    C2 8922   7.926  11.578  11.790 -0.3083  0.0904 -0.0312
  561POPI    C3 8923   7.978  11.806  11.465 -0.2490 -0.1153 -0.1682
  561POPI   PO4 8924   8.064  11.288  11.356 -0.2970  0.0070 -0.0149
  561POPI   GL1 8925   8.222  11.137  11.007  0.1225 -0.2377 -0.1858
  561POPI   GL2 8926   7.907  11.018  10.952 -0.1117 -0.0754  0.1222
  561POPI   C1A 8927   8.006  11.468  10.620  0.0828 -0.2104  0.4601
  561POPI   D2A 8928   8.184  11.470  10.262  0.0771  0.1551  0.0780
  561POPI   C3A 8929   8.490  11.099  10.085  0.1303 -0.0090  0.0794
  561POPI   C4A 8930   8.639  10.809   9.882  0.1941  0.0006  0.0838
  561POPI   C1B 8931   7.871  11.013  10.482  0.0371  0.0210 -0.2993
  561POPI   C2B 8932   7.966  11.076  10.031 -0.1076  0.1129  0.2138
  561POPI   C3B 8933   7.970  11.103   9.653 -0.0539 -0.0343  0.2920
  561POPI   C4B 8934   8.380  11.174   9.565 -0.1626 -0.1667 -0.0136
  562POPI    C1 8935   5.698  14.338  11.721 -0.1349  0.1671  0.0591
  562POPI    C2 8936   5.392  14.091  11.791  0.0329 -0.0115  0.1726
  562POPI    C3 8937   5.707  14.095  12.038  0.1387  0.1454  0.0378
  562POPI   PO4 8938   5.770  14.292  11.482  0.3258  0.0312 -0.1004
  562POPI   GL1 8939   5.828  14.143  11.093 -0.1992  0.0671 -0.2273
  562POPI   GL2 8940   5.734  14.467  11.006  0.0180  0.1795 -0.1162
  562POPI   C1A 8941   5.524  14.146  10.703  0.2686 -0.1679  0.0516
  562POPI   D2A 8942   5.454  14.164  10.315 -0.0354 -0.1584 -0.2346
  562POPI   C3A 8943   5.585  14.212   9.910  0.1797  0.1964  0.4069
  562POPI   C4A 8944   5.400  14.267   9.601 -0.0830  0.2110  0.0575
  562POPI   C1B 8945   5.669  14.649  10.593  0.0512 -0.1717 -0.3445
  562POPI   C2B 8946   5.642  14.672  10.168  0.1433  0.0607  0.0794
  562POPI   C3B 8947   5.579  14.734   9.685 -0.0586 -0.2609 -0.0415
  562POPI   C4B 8948   5.455  14.779   9.215 -0.2170 -0.0641  0.1601
  563POPI    C1 8949   4.561   5.629  11.897  0.0326  0.1383 -0.1627
  563POPI    C2 8950   4.276   5.807  12.113  0.1097 -0.3184  0.3384
  563POPI    C3 8951   4.648   5.953  12.114 -0.0915  0.2579 -0.2887
  563POPI   PO4 8952   4.459   5.562  11.626 -0.2175  0.2295  0.0651
  563POPI   GL1 8953   4.550   5.355  11.303 -0.1262  0.0395 -0.2332
  563POPI   GL2 8954   4.751   5.089  11.283  0.3394  0.1256 -0.1502
  563POPI   C1A 8955   4.415   5.501  10.924  0.0974 -0.1860  0.0251
  563POPI   D2A 8956   4.460   5.435  10.580 -0.0304 -0.2160 -0.0708
  563POPI   C3A 8957   4.372   5.538  10.165  0.1184 -0.0165  0.1826
  563POPI   C4A 8958   4.452   5.439   9.727 -0.0168  0.1613  0.5900
  563POPI   C1B 8959   4.818   5.111  10.862  0.4421 -0.0148  0.3375
  563POPI   C2B 8960   4.757   5.057  10.359 -0.3907  0.0484  0.1295
  563POPI   C3B 8961   4.700   5.137   9.981  0.2629  0.0418  0.3676
  563POPI   C4B 8962   4.822   5.119   9.633  0.1690 -0.0361  0.2775
  564POPI    C1 8963  12.769   6.541  11.808  0.1670  0.1078 -0.1255
  564POPI    C2 8964  12.991   6.847  11.939  0.1211  0.1392 -0.1212
  564POPI    C3 8965  12.916   6.537  12.180 -0.2577  0.3581  0.0514
  564POPI   PO4 8966  12.725   6.638  11.540 -0.1340  0.1675 -0.2403
  564POPI   GL1 8967  12.652   6.411  11.081 -0.0721 -0.1926 -0.2508
  564POPI   GL2 8968  12.304   6.506  11.117  0.0025 -0.4272 -0.0743
  564POPI   C1A 8969  12.547   6.349  10.706  0.1312 -0.0769  0.0941
  564POPI   D2A 8970  12.466   6.361  10.262 -0.1087  0.0079 -0.0848
  564POPI   C3A 8971  12.564   6.339   9.752  0.0818 -0.1063 -0.0435
  564POPI   C4A 8972  12.467   6.205   9.239  0.1548 -0.2492  0.2044
  564POPI   C1B 8973  12.182   6.684  10.768  0.1085 -0.0009 -0.0753
  564POPI   C2B 8974  12.233   6.769  10.347  0.0179 -0.0725 -0.2724
  564POPI   C3B 8975  12.176   6.646   9.904  0.1468 -0.0364 -0.0325
  564POPI   C4B 8976  12.135   6.583   9.428  0.0229 -0.1217  0.1537
  565POPI    C1 8977   0.900  14.586  11.822  0.2118  0.1637 -0.0286
  565POPI    C2 8978   1.261  14.429  11.893  0.0576 -0.0748  0.2457
  565POPI    C3 8979   0.987  14.443  12.185 -0.1454  0.1346  0.0493
  565POPI   PO4 8980   1.003  14.860  11.694  0.0535 -0.0999  0.1269
  565POPI   GL1 8981   1.284  14.803  11.362  0.3063 -0.1247  0.1051
  565POPI   GL2 8982   1.557  14.849  11.199 -0.1537  0.0154 -0.2368
  565POPI   C1A 8983   1.058  14.674  10.914 -0.2393 -0.2218  0.0473
  565POPI   D2A 8984   0.974  14.595  10.516  0.0883 -0.0210  0.3506
  565POPI   C3A 8985   0.859  14.472  10.103 -0.1718 -0.0889 -0.1332
  565POPI   C4A 8986   0.931  14.470   9.716  0.0771 -0.1215  0.3646
  565POPI   C1B 8987   1.506  14.745  10.765 -0.0119  0.1834 -0.0963
  565POPI   C2B 8988   1.487  14.686  10.421 -0.2193 -0.0177 -0.0620
  565POPI   C3B 8989   1.348  14.620  10.012  0.1474  0.1160  0.3186
  565POPI   C4B 8990   1.479  14.606   9.604 -0.0852 -0.1069  0.2019
  566POPI    C1 8991   9.346  10.340  11.943 -0.1048  0.1808  0.0214
  566POPI    C2 8992   9.040  10.422  12.187 -0.1495  0.0732  0.0020
  566POPI    C3 8993   9.211  10.061  12.195 -0.1122  0.0886 -0.0839
  566POPI   PO4 8994   9.259  10.513  11.743  0.2109  0.1774  0.1878
  566POPI   GL1 8995   9.084  10.557  11.220  0.0293  0.0337 -0.0560
  566POPI   GL2 8996   9.320  10.295  11.101 -0.0386 -0.0074  0.2432
  566POPI   C1A 8997   9.090  10.653  10.757  0.1228 -0.0737  0.2296
  566POPI   D2A 8998   9.098  10.409  10.364  0.2953  0.2557 -0.0259
  566POPI   C3A 8999   9.025  10.474   9.935 -0.0181  0.4591 -0.0431
  566POPI   C4A 9000   9.048  10.439   9.544  0.1930  0.0807  0.2208
  566POPI   C1B 9001   8.978  10.143  10.755 -0.1504 -0.0959 -0.1508
  566POPI   C2B 9002   8.905   9.919  10.332  0.0927 -0.3439  0.1844
  566POPI   C3B 9003   8.894   9.961   9.940 -0.0630 -0.0546 -0.0316
  566POPI   C4B 9004   8.902   9.929   9.558 -0.1473 -0.0068  0.4191
  567POPI    C1 9005  16.760   7.920  11.893 -0.2871 -0.3840 -0.0071
  567POPI    C2 9006  16.480   8.204  11.871  0.1514  0.0966  0.3598
  567POPI    C3 9007  16.464   7.929  12.161 -0.1491 -0.1232  0.1408
  567POPI   PO4 9008  16.849   7.841  11.642  0.0949  0.0749  0.0799
  567POPI   GL1 9009  16.737   7.869  11.260  0.2711  0.1463  0.0787
  567POPI   GL2 9010  16.871   8.145  11.175 -0.0751  0.1116 -0.0905
  567POPI   C1A 9011  16.716   7.650  10.853 -0.2603 -0.3142 -0.1817
  567POPI   D2A 9012  16.677   7.681  10.467 -0.1358  0.0843  0.2473
  567POPI   C3A 9013  16.676   7.591   9.967 -0.1306 -0.0052  0.1478
  567POPI   C4A 9014  16.649   7.681   9.639  0.1060 -0.2119  0.2479
  567POPI   C1B 9015  16.876   8.116  10.769 -0.1441 -0.2898 -0.0641
  567POPI   C2B 9016  16.825   8.130  10.283  0.1723 -0.0265 -0.0514
  567POPI   C3B 9017  16.850   8.113   9.917 -0.0879 -0.0100  0.2362
  567POPI   C4B 9018  16.948   8.041   9.479  0.0367  0.1083 -0.3329
  568POPI    C1 9019   6.507   5.503  11.798 -0.1036 -0.0290 -0.0565
  568POPI    C2 9020   6.214   5.581  12.059  0.0816  0.3681  0.0405
  568POPI    C3 9021   6.569   5.452  12.190  0.0377  0.1457 -0.0548
  568POPI   PO4 9022   6.426   5.441  11.547  0.3060 -0.3572 -0.0836
  568POPI   GL1 9023   6.658   5.190  11.225  0.0330  0.1233  0.0008
  568POPI   GL2 9024   6.594   5.040  11.092 -0.1302  0.2516 -0.0081
  568POPI   C1A 9025   6.749   5.513  10.867 -0.1298 -0.1616  0.2504
  568POPI   D2A 9026   6.844   5.573  10.480 -0.2833  0.2059  0.3588
  568POPI   C3A 9027   6.754   5.609  10.103 -0.1615 -0.2645  0.0636
  568POPI   C4A 9028   6.771   5.701   9.717  0.1047 -0.1999  0.0594
  568POPI   C1B 9029   6.625   4.990  10.694  0.0653 -0.1613  0.0407
  568POPI   C2B 9030   6.581   5.086  10.296 -0.4483 -0.1311 -0.3118
  568POPI   C3B 9031   6.603   5.174   9.866  0.0044 -0.0206  0.2032
  568POPI   C4B 9032   6.609   5.068   9.419 -0.0908  0.2843  0.1907
  569POPI    C1 9033   7.024  13.246  11.380  0.0207  0.1208  0.0925
  569POPI    C2 9034   6.922  12.944  11.621  0.0403  0.0563  0.0204
  569POPI    C3 9035   7.308  13.018  11.546  0.0400  0.1719  0.1298
  569POPI   PO4 9036   6.894  13.228  11.168 -0.0533  0.1928 -0.1815
  569POPI   GL1 9037   6.623  13.423  10.944  0.1486  0.3104 -0.3909
  569POPI   GL2 9038   6.409  13.281  10.946 -0.0332  0.2478 -0.0074
  569POPI   C1A 9039   6.763  13.515  10.569 -0.2233  0.0443  0.1252
  569POPI   D2A 9040   6.839  13.625  10.146 -0.0586  0.1321 -0.0736
  569POPI   C3A 9041   6.745  13.597   9.813  0.1254 -0.0075  0.3520
  569POPI   C4A 9042   6.608  13.554   9.456  0.4743 -0.0921  0.1104
  569POPI   C1B 9043   6.328  13.363  10.494 -0.0836 -0.0033  0.1068
  569POPI   C2B 9044   6.216  13.383  10.086  0.2702  0.3448  0.0941
  569POPI   C3B 9045   6.196  13.477   9.718 -0.0398 -0.0426  0.0884
  569POPI   C4B 9046   6.156  13.436   9.279  0.0180 -0.0075  0.1325
  570POPI    C1 9047   5.622   7.675  11.314  0.1582  0.1358  0.1052
  570POPI    C2 9048   5.735   7.870  11.644  0.2175 -0.0939  0.2230
  570POPI    C3 9049   5.475   7.567  11.670  0.1681 -0.0677  0.0493
  570POPI   PO4 9050   5.544   7.875  11.148 -0.1220  0.0182  0.0409
  570POPI   GL1 9051   5.791   8.006  10.728 -0.1574 -0.0406 -0.2408
  570POPI   GL2 9052   5.525   8.166  10.687  0.0684  0.0245  0.0851
  570POPI   C1A 9053   5.952   7.774  10.414 -0.0589 -0.2135 -0.1997
  570POPI   D2A 9054   5.971   7.798  10.037 -0.0453  0.1557 -0.2969
  570POPI   C3A 9055   5.883   7.870   9.642 -0.3109  0.0628 -0.1012
  570POPI   C4A 9056   5.835   7.846   9.257 -0.0677  0.0921  0.0874
  570POPI   C1B 9057   5.562   8.148  10.217  0.3183  0.0599 -0.0355
  570POPI   C2B 9058   5.569   8.228   9.776 -0.1666  0.0989  0.2105
  570POPI   C3B 9059   5.555   8.213   9.387  0.2639 -0.1383  0.0754
  570POPI   C4B 9060   5.490   8.410   8.901 -0.3257 -0.0904  0.0763
  571POPI    C1 9061  11.505   3.675  11.701  0.2268 -0.2113 -0.0673
  571POPI    C2 9062  11.280   3.936  11.904  0.1005 -0.0438 -0.4143
  571POPI    C3 9063  11.667   3.893  11.995  0.0123 -0.0841 -0.0412
  571POPI   PO4 9064  11.440   3.670  11.519  0.0937  0.1642  0.1860
  571POPI   GL1 9065  11.512   3.783  11.161 -0.1680  0.0389  0.1885
  571POPI   GL2 9066  11.663   3.503  11.109 -0.1925  0.0686  0.0126
  571POPI   C1A 9067  11.343   3.767  10.790 -0.3451 -0.2112  0.2092
  571POPI   D2A 9068  11.258   3.744  10.333  0.0787 -0.1913 -0.0103
  571POPI   C3A 9069  11.376   3.719   9.933  0.0082  0.0214 -0.0399
  571POPI   C4A 9070  11.469   3.721   9.447 -0.0414  0.0909 -0.2109
  571POPI   C1B 9071  11.674   3.430  10.703 -0.0886 -0.0870  0.1079
  571POPI   C2B 9072  11.638   3.386  10.187  0.4294 -0.1814 -0.1364
  571POPI   C3B 9073  11.711   3.384   9.775  0.0486 -0.0972  0.2512
  571POPI   C4B 9074  11.743   3.305   9.327 -0.1052 -0.0162 -0.0591
  572POPI    C1 9075   1.135   6.682  11.779  0.0267  0.1147  0.0518
  572POPI    C2 9076   0.781   6.601  11.612  0.0485  0.3701 -0.1245
  572POPI    C3 9077   0.799   6.819  11.947  0.0113 -0.0591  0.1658
  572POPI   PO4 9078   1.243   6.734  11.573  0.0213  0.1557 -0.0195
  572POPI   GL1 9079   1.160   6.432  11.183  0.7090  0.3374 -0.5103
  572POPI   GL2 9080   1.463   6.669  11.059  0.0990  0.0061 -0.2351
  572POPI   C1A 9081   0.960   6.559  10.799  0.1558 -0.0314 -0.1813
  572POPI   D2A 9082   0.954   6.644  10.405  0.2974 -0.1333 -0.0282
  572POPI   C3A 9083   0.953   6.505   9.951  0.0860  0.0348  0.0200
  572POPI   C4A 9084   0.963   6.591   9.543 -0.2589 -0.0705  0.0782
  572POPI   C1B 9085   1.502   6.760  10.644 -0.0356  0.0317  0.0892
  572POPI   C2B 9086   1.387   6.661  10.167  0.2183 -0.0988 -0.2326
  572POPI   C3B 9087   1.462   6.604   9.704 -0.1437 -0.0253 -0.0267
  572POPI   C4B 9088   1.452   6.649   9.282  0.2724 -0.3564 -0.0237
  573POPI    C1 9089   6.674   4.297  11.698 -0.0634  0.2255  0.1451
  573POPI    C2 9090   6.567   4.004  11.949  0.0808  0.0609  0.0173
  573POPI    C3 9091   6.855   4.261  12.053 -0.1303  0.2360  0.1805
  573POPI   PO4 9092   6.713   4.195  11.458 -0.1032  0.0889  0.0141
  573POPI   GL1 9093   6.600   3.980  11.097 -0.1330 -0.2191 -0.0808
  573POPI   GL2 9094   6.799   4.083  10.991  0.2513  0.2253  0.1688
  573POPI   C1A 9095   6.367   4.069  10.740 -0.0280  0.1482  0.2585
  573POPI   D2A 9096   6.359   4.021  10.209 -0.0355 -0.1128 -0.1678
  573POPI   C3A 9097   6.378   4.158   9.816  0.1743 -0.0617 -0.0273
  573POPI   C4A 9098   6.275   4.151   9.381 -0.0837 -0.3696 -0.2451
  573POPI   C1B 9099   6.820   4.117  10.488 -0.2086  0.1030  0.3513
  573POPI   C2B 9100   6.845   4.091  10.031 -0.2824 -0.5536 -0.2820
  573POPI   C3B 9101   6.810   4.292   9.669  0.0070 -0.0860  0.0979
  573POPI   C4B 9102   6.756   4.262   9.224  0.2339  0.1090 -0.1281
  574DPPI    C1 9103   7.610  14.552  11.714  0.0472 -0.2039 -0.1643
  574DPPI    C2 9104   7.929  14.316  11.761  0.1767  0.0230  0.1266
  574DPPI    C3 9105   7.955  14.706  11.845 -0.1203  0.0845 -0.0532
  574DPPI   PO4 9106   7.544  14.462  11.386 -0.0004 -0.0547 -0.0866
  574DPPI   GL1 9107   7.675  14.532  10.989 -0.1614 -0.2694  0.0646
  574DPPI   GL2 9108   7.503  14.226  10.933  0.0024 -0.1772  0.2009
  574DPPI   C1A 9109   7.634  14.634  10.562  0.2602  0.1127  0.1091
  574DPPI   C2A 9110   7.676  14.683  10.196 -0.0284  0.1870 -0.0977
  574DPPI   C3A 9111   7.535  14.724   9.739  0.1369  0.1921  0.2244
  574DPPI   C4A 9112   7.463  14.682   9.360  0.0164  0.0275  0.0010
  574DPPI   C1B 9113   7.522  14.152  10.550 -0.0616 -0.1407 -0.1665
  574DPPI   C2B 9114   7.550  14.227  10.134 -0.0946 -0.1230  0.2092
  574DPPI   C3B 9115   7.398  14.203   9.676 -0.1260 -0.0577  0.0876
  574DPPI   C4B 9116   7.290  14.182   9.243 -0.0960  0.0184  0.0031
  575DPPI    C1 9117  15.744   5.020  11.530  0.1707  0.2137  0.0802
  575DPPI    C2 9118  15.972   4.719  11.661  0.1723  0.1783 -0.0034
  575DPPI    C3 9119  15.642   4.821  11.861  0.0374 -0.0408 -0.1107
  575DPPI   PO4 9120  15.886   5.031  11.273 -0.2703 -0.0927 -0.0440
  575DPPI   GL1 9121  15.839   4.918  10.903  0.1106  0.0736  0.1146
  575DPPI   GL2 9122  15.781   4.689  10.811  0.1929 -0.0774 -0.1905
  575DPPI   C1A 9123  15.895   5.117  10.471  0.0207 -0.0335  0.1004
  575DPPI   C2A 9124  15.815   5.090   9.958  0.4241 -0.0623 -0.4746
  575DPPI   C3A 9125  15.857   5.108   9.549  0.0434 -0.3354 -0.2129
  575DPPI   C4A 9126  15.706   5.270   9.170 -0.3703  0.1613  0.0314
  575DPPI   C1B 9127  15.753   4.638  10.396 -0.3224  0.1278 -0.1111
  575DPPI   C2B 9128  15.752   4.582   9.927  0.0554 -0.1730 -0.2010
  575DPPI   C3B 9129  15.697   4.510   9.492 -0.1880 -0.0519  0.0891
  575DPPI   C4B 9130  15.831   4.662   9.137  0.0442 -0.0467 -0.2025
  576DPPI    C1 9131   8.743  16.198  11.254  0.2314  0.1451 -0.1873
  576DPPI    C2 9132   8.574  16.285  11.606  0.1100 -0.3412 -0.1186
  576DPPI    C3 9133   8.822  16.547  11.433 -0.1017  0.0509  0.1564
  576DPPI   PO4 9134   8.498  16.096  11.149 -0.3834 -0.0747  0.1798
  576DPPI   GL1 9135   8.539  16.281  10.774 -0.0921 -0.0173 -0.2705
  576DPPI   GL2 9136   8.258  16.496  10.918 -0.0809  0.2063 -0.2854
  576DPPI   C1A 9137   8.513  16.295  10.362  0.0939 -0.0725  0.4392
  576DPPI   C2A 9138   8.462  16.321   9.891  0.0186  0.1765 -0.1431
  576DPPI   C3A 9139   8.460  16.271   9.450  0.0647 -0.2320 -0.1673
  576DPPI   C4A 9140   8.560  16.285   9.027 -0.0175 -0.0005  0.3109
  576DPPI   C1B 9141   8.137  16.590  10.438 -0.1356 -0.0340 -0.1659
  576DPPI   C2B 9142   8.109  16.635  10.072  0.1710  0.0981  0.0448
  576DPPI   C3B 9143   8.121  16.625   9.543 -0.1015  0.1480 -0.1311
  576DPPI   C4B 9144   8.088  16.682   9.109 -0.3012  0.0190 -0.2012
  577DPPI    C1 9145  12.917   3.266  11.753 -0.2960 -0.0777 -0.0497
  577DPPI    C2 9146  12.575   3.189  11.946 -0.3126 -0.0407 -0.0643
  577DPPI    C3 9147  12.728   3.559  11.948 -0.0637 -0.1406  0.2783
  577DPPI   PO4 9148  12.860   3.213  11.453  0.1287  0.1360  0.0672
  577DPPI   GL1 9149  13.106   3.099  11.126  0.0928  0.2069 -0.0026
  577DPPI   GL2 9150  13.096   2.789  11.044 -0.2831  0.2739 -0.0128
  577DPPI   C1A 9151  13.087   3.278  10.744 -0.0524  0.0922  0.0694
  577DPPI   C2A 9152  13.146   3.308  10.303 -0.1115 -0.1302 -0.3938
  577DPPI   C3A 9153  13.090   3.291   9.944  0.0225  0.1408  0.0967
  577DPPI   C4A 9154  13.072   3.313   9.456  0.0678 -0.3428 -0.0145
  577DPPI   C1B 9155  12.924   2.819  10.650 -0.1300 -0.1072 -0.3773
  577DPPI   C2B 9156  12.941   2.824  10.173 -0.2876  0.0300 -0.3562
  577DPPI   C3B 9157  12.833   2.718   9.747  0.2713  0.1864  0.1246
  577DPPI   C4B 9158  12.904   2.806   9.306 -0.3064 -0.0362 -0.1399
  578DPPI    C1 9159   5.258   2.126  11.771  0.1287  0.1088 -0.0903
  578DPPI    C2 9160   5.044   2.178  12.105  0.2483  0.0493 -0.0038
  578DPPI    C3 9161   4.957   1.877  11.858  0.1303  0.1208 -0.0501
  578DPPI   PO4 9162   5.204   2.305  11.606 -0.1311 -0.0106  0.1318
  578DPPI   GL1 9163   5.314   2.493  11.180 -0.1500 -0.2483 -0.1405
  578DPPI   GL2 9164   5.179   2.793  11.185 -0.1365 -0.1670  0.0233
  578DPPI   C1A 9165   5.281   2.549  10.664 -0.1692 -0.1800 -0.0704
  578DPPI   C2A 9166   5.382   2.461  10.220  0.2352 -0.0080  0.0105
  578DPPI   C3A 9167   5.346   2.401   9.748  0.2785 -0.1725 -0.3382
  578DPPI   C4A 9168   5.314   2.330   9.414 -0.2442 -0.1661  0.0512
  578DPPI   C1B 9169   4.926   2.911  10.792  0.0103 -0.1119  0.3083
  578DPPI   C2B 9170   5.012   2.848  10.341  0.1799 -0.0723 -0.0205
  578DPPI   C3B 9171   4.970   2.859   9.896  0.2420 -0.0521  0.1090
  578DPPI   C4B 9172   4.923   2.800   9.492  0.1322  0.0444  0.2539
  579DPPI    C1 9173   5.136  17.037  11.782 -0.0592 -0.0957 -0.0092
  579DPPI    C2 9174   5.006  16.661  11.821 -0.2881 -0.0033  0.1342
  579DPPI    C3 9175   4.759  16.967  11.896 -0.1079  0.1761  0.0031
  579DPPI   PO4 9176   5.356  17.033  11.614 -0.1390  0.0347  0.2152
  579DPPI   GL1 9177   5.380  17.330  11.302  0.0297 -0.1897 -0.0445
  579DPPI   GL2 9178   5.257  17.648  11.323  0.4222 -0.1676  0.1515
  579DPPI   C1A 9179   5.082  17.364  10.920  0.0286 -0.0733  0.3017
  579DPPI   C2A 9180   5.032  17.400  10.464 -0.2561  0.0260 -0.1118
  579DPPI   C3A 9181   5.053  17.363  10.010 -0.1139 -0.1296 -0.0201
  579DPPI   C4A 9182   5.035  17.331   9.572  0.1581 -0.0012  0.1055
  579DPPI   C1B 9183   5.234  17.871  10.951 -0.3192  0.1748  0.0009
  579DPPI   C2B 9184   5.202  17.911  10.482 -0.0466 -0.1072 -0.0146
  579DPPI   C3B 9185   5.241  17.912  10.082 -0.0117  0.1188  0.0603
  579DPPI   C4B 9186   5.155  17.834   9.635  0.0584  0.1109 -0.0977
  580DPPI    C1 9187   9.756   3.073  11.838 -0.0242 -0.1902  0.2109
  580DPPI    C2 9188  10.113   2.897  11.881 -0.0062 -0.1793  0.1076
  580DPPI    C3 9189   9.944   3.086  12.191  0.1403 -0.0667  0.1196
  580DPPI   PO4 9190   9.685   2.986  11.622 -0.0437  0.2176  0.0047
  580DPPI   GL1 9191   9.629   3.162  11.308  0.0336 -0.2745  0.3463
  580DPPI   GL2 9192   9.317   3.112  11.151 -0.0643  0.0736  0.1277
  580DPPI   C1A 9193   9.721   3.337  10.820  0.0020  0.1872 -0.1025
  580DPPI   C2A 9194   9.751   3.323  10.458  0.0898 -0.2247 -0.1453
  580DPPI   C3A 9195   9.776   3.321  10.050 -0.1933  0.1719  0.3261
  580DPPI   C4A 9196   9.896   3.421   9.684  0.0129  0.1695  0.0216
  580DPPI   C1B 9197   9.313   3.122  10.712 -0.1024  0.2241  0.1296
  580DPPI   C2B 9198   9.261   3.220  10.310 -0.0919  0.0625  0.0547
  580DPPI   C3B 9199   9.284   3.266   9.859 -0.1016  0.0844  0.2353
  580DPPI   C4B 9200   9.257   3.288   9.383  0.0930 -0.2099  0.0870
  581DPPI    C1 9201   4.492   2.395  11.931  0.2353 -0.4895  0.0624
  581DPPI    C2 9202   4.636   2.591  12.249 -0.1195 -0.0868 -0.0151
  581DPPI    C3 9203   4.334   2.332  12.294  0.0519 -0.2839  0.0203
  581DPPI   PO4 9204   4.640   2.344  11.772  0.1910  0.1953 -0.7047
  581DPPI   GL1 9205   4.788   2.493  11.302 -0.3162 -0.1164 -0.3362
  581DPPI   GL2 9206   4.832   2.349  11.005  0.0000  0.2787  0.2259
  581DPPI   C1A 9207   4.518   2.693  10.976 -0.2367 -0.3531  0.0097
  581DPPI   C2A 9208   4.552   2.768  10.482 -0.1266  0.0892  0.3972
  581DPPI   C3A 9209   4.513   2.745  10.073 -0.0156 -0.0355 -0.1944
  581DPPI   C4A 9210   4.459   2.719   9.590  0.2373 -0.0969 -0.3826
  581DPPI   C1B 9211   4.862   2.381  10.581 -0.1021  0.1635  0.0132
  581DPPI   C2B 9212   4.918   2.373  10.128  0.0198 -0.1047 -0.0927
  581DPPI   C3B 9213   4.868   2.271   9.687  0.0588  0.0467  0.1219
  581DPPI   C4B 9214   4.906   2.144   9.237  0.2696  0.0857 -0.0197
  582DPPI    C1 9215   0.552  16.893  11.524  0.0869  0.0552 -0.1346
  582DPPI    C2 9216   0.670  17.076  11.859  0.1543 -0.0103 -0.1221
  582DPPI    C3 9217   0.466  16.733  11.880 -0.1086  0.1420 -0.1417
  582DPPI   PO4 9218   0.814  16.938  11.357 -0.2026  0.0675  0.2456
  582DPPI   GL1 9219   0.921  16.806  11.013  0.2289  0.1622  0.0427
  582DPPI   GL2 9220   0.690  16.904  10.824  0.2939 -0.0578 -0.2198
  582DPPI   C1A 9221   1.204  16.964  10.571  0.0971 -0.2299  0.3569
  582DPPI   C2A 9222   1.236  16.960  10.171 -0.2245  0.1354  0.1132
  582DPPI   C3A 9223   1.135  16.917   9.706 -0.1452  0.3003  0.1587
  582DPPI   C4A 9224   1.169  16.889   9.261  0.2038  0.2952 -0.2720
  582DPPI   C1B 9225   0.718  16.862  10.451  0.1169  0.1226 -0.2126
  582DPPI   C2B 9226   0.719  16.802  10.063  0.0485  0.0713  0.1846
  582DPPI   C3B 9227   0.642  16.860   9.667  0.1760 -0.1913  0.3818
  582DPPI   C4B 9228   0.580  16.824   9.256 -0.0847 -0.1399  0.3680
  583DPPI    C1 9229  16.942  11.869  11.334 -0.0217  0.1761  0.0712
  583DPPI    C2 9230  16.715  11.741  11.638 -0.0127  0.1013  0.0468
  583DPPI    C3 9231  16.831  12.124  11.621 -0.0450  0.1143  0.1172
  583DPPI   PO4 9232  17.087  11.744  11.314 -0.1716 -0.0757 -0.1381
  583DPPI   GL1 9233  17.226  11.652  10.969  0.0732 -0.1097 -0.0752
  583DPPI   GL2 9234  17.037  11.901  10.836 -0.1012 -0.1265  0.2992
  583DPPI   C1A 9235  17.259  11.564  10.530  0.2846 -0.1900  0.0195
  583DPPI   C2A 9236  17.321  11.519  10.089 -0.2541 -0.2968 -0.0771
  583DPPI   C3A 9237  17.359  11.495   9.650  0.0445  0.0437  0.1447
  583DPPI   C4A 9238  17.259  11.464   9.297  0.0176 -0.2830 -0.0329
  583DPPI   C1B 9239  17.044  11.993  10.450 -0.3482  0.0292 -0.0403
  583DPPI   C2B 9240  17.001  11.927  10.001  0.1684 -0.4051 -0.0911
  583DPPI   C3B 9241  16.998  11.915   9.563  0.0765  0.2861  0.0995
  583DPPI   C4B 9242  17.046  11.955   9.158  0.1119  0.1743 -0.1710
  584DPPI    C1 9243   2.859  16.012  11.752  0.0460  0.0202  0.1712
  584DPPI    C2 9244   3.097  16.281  11.928  0.2581 -0.2641  0.3271
  584DPPI    C3 9245   2.831  16.076  12.146 -0.0105 -0.0748  0.1829
  584DPPI   PO4 9246   2.733  16.159  11.597 -0.1911  0.2348 -0.3641
  584DPPI   GL1 9247   2.878  16.375  11.277  0.0467 -0.0945 -0.2826
  584DPPI   GL2 9248   2.860  15.970  11.151 -0.0325 -0.0317  0.0968
  584DPPI   C1A 9249   2.914  16.421  10.844  0.0980  0.0725 -0.1453
  584DPPI   C2A 9250   2.865  16.510  10.393 -0.0898  0.0146 -0.0402
  584DPPI   C3A 9251   2.904  16.452   9.894  0.2097  0.0889 -0.1191
  584DPPI   C4A 9252   2.757  16.471   9.444 -0.0404 -0.0876  0.2324
  584DPPI   C1B 9253   2.730  15.878  10.798 -0.1153 -0.0637  0.1731
  584DPPI   C2B 9254   2.741  15.838  10.412 -0.1092  0.0081 -0.2012
  584DPPI   C3B 9255   2.738  15.897   9.865 -0.1231 -0.1773 -0.1793
  584DPPI   C4B 9256   2.598  15.919   9.427 -0.0154  0.2333 -0.0174
  585DPPI    C1 9257  13.845   4.013  11.531  0.2464  0.2734  0.1824
  585DPPI    C2 9258  13.825   3.893  11.912  0.2615 -0.2211  0.0341
  585DPPI    C3 9259  14.147   3.805  11.690  0.1873 -0.0685 -0.1365
  585DPPI   PO4 9260  13.538   3.893  11.425 -0.1333 -0.1292  0.1099
  585DPPI   GL1 9261  13.296   3.846  11.028  0.3847  0.0906 -0.2791
  585DPPI   GL2 9262  13.475   3.631  10.935  0.0334  0.1312 -0.2495
  585DPPI   C1A 9263  13.281   3.839  10.527  0.2587 -0.0490  0.3526
  585DPPI   C2A 9264  13.222   3.805  10.065 -0.1090  0.0412  0.1371
  585DPPI   C3A 9265  13.234   3.779   9.648  0.3421 -0.1828  0.1508
  585DPPI   C4A 9266  13.214   3.805   9.192  0.1190  0.2405  0.0862
  585DPPI   C1B 9267  13.648   3.489  10.528  0.2574  0.3491 -0.0545
  585DPPI   C2B 9268  13.631   3.393  10.060  0.3275  0.4103 -0.2315
  585DPPI   C3B 9269  13.554   3.448   9.540  0.3590 -0.1361  0.0737
  585DPPI   C4B 9270  13.615   3.492   9.130  0.1065 -0.2130  0.0772
  586DPPI    C1 9271  10.643   1.404  11.673 -0.4268  0.0238  0.0584
  586DPPI    C2 9272  10.825   1.581  11.981 -0.0406  0.0379 -0.1712
  586DPPI    C3 9273  10.639   1.231  12.033  0.1012 -0.0060  0.0572
  586DPPI   PO4 9274  10.818   1.384  11.517 -0.3316  0.2030  0.1906
  586DPPI   GL1 9275  10.899   1.482  11.147 -0.0504  0.0754 -0.0252
  586DPPI   GL2 9276  11.169   1.442  10.941  0.2526  0.1196 -0.0680
  586DPPI   C1A 9277  10.809   1.690  10.722  0.0317  0.0910 -0.0849
  586DPPI   C2A 9278  10.806   1.804  10.185  0.1523 -0.0599 -0.0671
  586DPPI   C3A 9279  10.779   1.801   9.713 -0.4322 -0.2802  0.0601
  586DPPI   C4A 9280  10.745   1.807   9.267 -0.0945 -0.0719 -0.0772
  586DPPI   C1B 9281  11.189   1.407  10.577 -0.0742  0.2424  0.1224
  586DPPI   C2B 9282  11.186   1.391  10.198  0.1194  0.0043 -0.2056
  586DPPI   C3B 9283  11.149   1.422   9.717 -0.2669  0.0692  0.0112
  586DPPI   C4B 9284  11.118   1.210   9.281  0.1039  0.3138 -0.0554
  587DPPI    C1 9285   4.255  15.694  11.735 -0.3117 -0.0247 -0.0247
  587DPPI    C2 9286   4.056  15.886  12.025 -0.1329  0.1095  0.0108
  587DPPI    C3 9287   4.434  15.986  11.941 -0.0004 -0.2974  0.0994
  587DPPI   PO4 9288   4.177  15.727  11.458 -0.1361 -0.0711  0.1239
  587DPPI   GL1 9289   3.808  15.771  11.190  0.0306  0.0928 -0.0863
  587DPPI   GL2 9290   3.618  15.588  11.003 -0.4957  0.1212  0.2956
  587DPPI   C1A 9291   4.097  15.684  10.769 -0.0565 -0.2804  0.0974
  587DPPI   C2A 9292   4.092  15.726  10.285 -0.1324 -0.0699 -0.5116
  587DPPI   C3A 9293   4.040  15.745   9.806 -0.0975 -0.1116 -0.1375
  587DPPI   C4A 9294   3.884  15.796   9.291  0.1089 -0.2751 -0.1776
  587DPPI   C1B 9295   3.652  15.551  10.524  0.1224  0.2715  0.0681
  587DPPI   C2B 9296   3.631  15.682  10.129  0.1909  0.2026  0.0518
  587DPPI   C3B 9297   3.492  15.666   9.583  0.1913 -0.0611  0.0816
  587DPPI   C4B 9298   3.388  15.710   9.188 -0.0940 -0.0508 -0.1384
  588DPPI    C1 9299   9.652  10.287  11.458  0.1419  0.0876  0.1420
  588DPPI    C2 9300   9.992  10.261  11.668  0.0024  0.0815  0.3714
  588DPPI    C3 9301   9.667  10.061  11.788  0.0093 -0.1882 -0.0366
  588DPPI   PO4 9302   9.773  10.170  11.252 -0.0166  0.0324  0.0197
  588DPPI   GL1 9303   9.867  10.162  10.917 -0.0727 -0.1262  0.1930
  588DPPI   GL2 9304   9.977   9.904  10.817 -0.2723 -0.0366 -0.0839
  588DPPI   C1A 9305   9.955  10.261  10.449 -0.1346 -0.0142  0.1252
  588DPPI   C2A 9306   9.875  10.143  10.154  0.0147  0.2811 -0.1270
  588DPPI   C3A 9307   9.897  10.128   9.718  0.2285  0.2183 -0.2120
  588DPPI   C4A 9308   9.842  10.111   9.303  0.2201  0.2229  0.1303
  588DPPI   C1B 9309   9.802   9.779  10.561 -0.0108 -0.2898 -0.0598
  588DPPI   C2B 9310   9.716   9.683  10.053 -0.0218  0.1374  0.1686
  588DPPI   C3B 9311   9.786   9.618   9.651 -0.3004  0.1805 -0.0583
  588DPPI   C4B 9312   9.736   9.615   9.163 -0.1935  0.1188 -0.2020
  589DPPI    C1 9313  13.853  16.938  11.285 -0.0175  0.2570  0.0507
  589DPPI    C2 9314  14.136  16.738  11.485 -0.1183 -0.1350 -0.1860
  589DPPI    C3 9315  14.220  17.092  11.317  0.0510  0.0524  0.2779
  589DPPI   PO4 9316  13.830  16.702  11.051 -0.2530 -0.1637  0.0950
  589DPPI   GL1 9317  13.755  16.647  10.727 -0.0253 -0.0455  0.3130
  589DPPI   GL2 9318  13.398  16.579  10.740  0.2483  0.0469 -0.0165
  589DPPI   C1A 9319  13.818  16.679  10.349  0.0759  0.1593  0.1517
  589DPPI   C2A 9320  13.744  16.617   9.923 -0.0925 -0.2398 -0.0736
  589DPPI   C3A 9321  13.832  16.508   9.448  0.1168  0.1053 -0.1301
  589DPPI   C4A 9322  13.833  16.559   9.054  0.0881 -0.3013  0.0468
  589DPPI   C1B 9323  13.403  16.530  10.272  0.0021 -0.1129  0.0311
  589DPPI   C2B 9324  13.251  16.495   9.996  0.2386 -0.1444  0.1870
  589DPPI   C3B 9325  13.358  16.496   9.579 -0.1143  0.0423  0.1236
  589DPPI   C4B 9326  13.311  16.600   9.108  0.4102  0.0727  0.1429
  590DPPI    C1 9327   9.969   5.008  11.797 -0.2993  0.0472 -0.0558
  590DPPI    C2 9328  10.051   5.372  11.653 -0.2473  0.0712  0.0330
  590DPPI    C3 9329  10.068   5.305  12.047 -0.1914 -0.0443  0.0114
  590DPPI   PO4 9330   9.741   4.907  11.649  0.0212  0.0766  0.2082
  590DPPI   GL1 9331   9.845   5.065  11.267 -0.2612 -0.0171 -0.0067
  590DPPI   GL2 9332  10.163   5.017  11.353  0.3030  0.2340  0.2447
  590DPPI   C1A 9333   9.888   5.275  10.787  0.0765 -0.0955  0.1245
  590DPPI   C2A 9334   9.873   5.253  10.414 -0.1722 -0.1132 -0.1880
  590DPPI   C3A 9335   9.901   5.251  10.036  0.1024 -0.4736  0.1105
  590DPPI   C4A 9336   9.922   5.220   9.602 -0.0770 -0.0762 -0.0790
  590DPPI   C1B 9337  10.233   4.938  10.868  0.1859  0.1109 -0.0927
  590DPPI   C2B 9338  10.213   4.866  10.424  0.2021 -0.0503 -0.0619
  590DPPI   C3B 9339  10.236   4.793  10.025 -0.1658  0.1854  0.0359
  590DPPI   C4B 9340  10.288   4.829   9.619  0.1204 -0.1273 -0.1148
  591DPPI    C1 9341   6.603  14.414  11.692  0.0132  0.0719  0.0402
  591DPPI    C2 9342   6.676  14.030  11.778  0.1789  0.0648 -0.1247
  591DPPI    C3 9343   6.808  14.319  12.021 -0.1858  0.0095  0.1480
  591DPPI   PO4 9344   6.663  14.403  11.450  0.0143  0.0629 -0.3383
  591DPPI   GL1 9345   6.830  14.493  11.086 -0.3644 -0.1580  0.1930
  591DPPI   GL2 9346   7.235  14.646  11.091  0.0152 -0.0785  0.2603
  591DPPI   C1A 9347   6.650  14.488  10.710 -0.2581 -0.1832  0.4443
  591DPPI   C2A 9348   6.673  14.414  10.277 -0.1484 -0.0751  0.2367
  591DPPI   C3A 9349   6.565  14.450   9.899  0.0513 -0.2673  0.2168
  591DPPI   C4A 9350   6.408  14.441   9.578 -0.0480  0.0780  0.0007
  591DPPI   C1B 9351   7.146  14.595  10.652  0.0295 -0.1013  0.0987
  591DPPI   C2B 9352   7.188  14.501  10.216  0.1679 -0.0526  0.0111
  591DPPI   C3B 9353   7.044  14.626   9.745  0.1745 -0.1433  0.0319
  591DPPI   C4B 9354   6.897  14.548   9.371  0.0451 -0.0749 -0.2721
  592DPPI    C1 9355   2.667   6.554  11.655  0.5328  0.0979  0.1438
  592DPPI    C2 9356   2.827   6.739  11.972  0.1178  0.2948  0.2457
  592DPPI    C3 9357   2.503   6.510  12.017 -0.0420  0.4543 -0.0599
  592DPPI   PO4 9358   2.855   6.509  11.451 -0.2356 -0.4239 -0.0694
  592DPPI   GL1 9359   2.975   6.509  10.994 -0.0055  0.1267  0.0205
  592DPPI   GL2 9360   3.217   6.690  11.089 -0.0523 -0.0038  0.0410
  592DPPI   C1A 9361   2.784   6.447  10.571 -0.0841 -0.0346  0.3700
  592DPPI   C2A 9362   2.809   6.525  10.178 -0.2379  0.0160 -0.4088
  592DPPI   C3A 9363   2.742   6.513   9.747  0.1177  0.3459  0.1039
  592DPPI   C4A 9364   2.885   6.324   9.406 -0.0591 -0.0926 -0.2057
  592DPPI   C1B 9365   3.348   6.644  10.609 -0.1050 -0.0961  0.0166
  592DPPI   C2B 9366   3.420   6.672  10.163 -0.0077  0.1503  0.0769
  592DPPI   C3B 9367   3.360   6.639   9.714 -0.0987  0.1009  0.4472
  592DPPI   C4B 9368   3.365   6.467   9.333  0.0724 -0.0357 -0.1008
  593DPPI    C1 9369   5.847   4.325  11.836  0.0356 -0.1339 -0.0017
  593DPPI    C2 9370   6.233   4.363  11.934  0.0111  0.0865  0.0134
  593DPPI    C3 9371   5.962   4.285  12.217  0.0530 -0.1413 -0.0076
  593DPPI   PO4 9372   5.857   4.392  11.610 -0.2573  0.0387 -0.1220
  593DPPI   GL1 9373   5.845   4.617  11.169 -0.1148 -0.0893 -0.0037
  593DPPI   GL2 9374   5.565   4.601  11.097  0.4607  0.1172 -0.1821
  593DPPI   C1A 9375   6.042   4.387  10.854 -0.0862 -0.1578  0.0093
  593DPPI   C2A 9376   6.019   4.456  10.472 -0.0576  0.1250 -0.0822
  593DPPI   C3A 9377   6.052   4.412  10.069  0.2222  0.0668 -0.0093
  593DPPI   C4A 9378   5.925   4.429   9.663 -0.0801 -0.0004 -0.0879
  593DPPI   C1B 9379   5.581   4.453  10.680  0.0579  0.2651 -0.0483
  593DPPI   C2B 9380   5.555   4.321  10.315  0.0626  0.0633  0.1526
  593DPPI   C3B 9381   5.452   4.284   9.914 -0.0864 -0.1760 -0.3206
  593DPPI   C4B 9382   5.474   4.295   9.457 -0.1220  0.0944  0.3508
  594PYPI    C1 9383   8.004  12.754  11.249 -0.0256  0.0625  0.1514
  594PYPI    C2 9384   8.036  13.142  11.156  0.1485  0.0699  0.2380
  594PYPI    C3 9385   7.676  12.968  11.166  0.1016  0.1308 -0.1926
  594PYPI   PO4 9386   8.150  12.628  11.044  0.2540  0.0808  0.2294
  594PYPI   GL1 9387   7.970  12.387  10.636  0.0291  0.0341  0.1524
  594PYPI   GL2 9388   8.238  12.491  10.434 -0.3033  0.1146 -0.1814
  594PYPI   C1A 9389   7.738  12.517  10.199 -0.2513  0.2639  0.1858
  594PYPI   C2A 9390   7.359  12.300  10.028  0.0528 -0.3523  0.2217
  594PYPI   D3A 9391   7.133  11.951   9.922 -0.0626  0.3859  0.2187
  594PYPI   C4A 9392   7.195  11.822   9.530 -0.1897  0.1566  0.5466
  594PYPI   C1B 9393   8.354  12.599   9.953  0.2339  0.0740  0.0935
  594PYPI   C2B 9394   8.305  12.482   9.534  0.0932  0.2452 -0.1329
  594PYPI   C3B 9395   8.071  12.600   9.187 -0.2285  0.0036  0.0785
  594PYPI   C4B 9396   7.594  12.430   9.107  0.3985 -0.2137  0.0217
  595PYPI    C1 9397   5.963   1.213  11.760  0.2562  0.0016  0.1167
  595PYPI    C2 9398   5.634   1.116  11.967  0.1671 -0.1073 -0.0727
  595PYPI    C3 9399   5.996   1.058  12.128  0.0949  0.0400  0.1482
  595PYPI   PO4 9400   5.909   1.105  11.526  0.1207 -0.1008 -0.3029
  595PYPI   GL1 9401   5.991   1.129  11.158 -0.1402 -0.0119 -0.0656
  595PYPI   GL2 9402   6.105   1.434  10.979 -0.0995 -0.1128 -0.2111
  595PYPI   C1A 9403   5.917   1.134  10.674 -0.1107  0.1876 -0.2906
  595PYPI   C2A 9404   5.929   1.207  10.292 -0.2151  0.0567  0.0277
  595PYPI   D3A 9405   5.852   1.055   9.946  0.0366  0.0803 -0.2032
  595PYPI   C4A 9406   5.958   1.102   9.612  0.0102  0.0468 -0.1720
  595PYPI   C1B 9407   6.122   1.590  10.527 -0.1223 -0.0202 -0.2436
  595PYPI   C2B 9408   6.018   1.633  10.048  0.2835  0.0652 -0.0144
  595PYPI   C3B 9409   5.978   1.621   9.579 -0.2486  0.1668  0.1018
  595PYPI   C4B 9410   5.821   1.428   9.249 -0.0058 -0.0062  0.0193
  596PYPI    C1 9411   3.891   5.007  11.891  0.1068  0.0084  0.1497
  596PYPI    C2 9412   4.039   5.377  11.927  0.0169  0.0390  0.2100
  596PYPI    C3 9413   3.721   5.267  12.142 -0.0713 -0.0143  0.0543
  596PYPI   PO4 9414   3.815   4.940  11.658  0.0196 -0.2804  0.1272
  596PYPI   GL1 9415   3.690   4.682  11.381 -0.0614 -0.1177  0.0706
  596PYPI   GL2 9416   3.947   4.496  11.418 -0.1029  0.0703 -0.1321
  596PYPI   C1A 9417   3.737   4.936  11.040 -0.1196 -0.0336 -0.2530
  596PYPI   C2A 9418   3.742   4.889  10.615 -0.1155 -0.0931  0.1568
  596PYPI   D3A 9419   3.630   4.905  10.178  0.0581 -0.2778 -0.1445
  596PYPI   C4A 9420   3.771   4.756   9.775  0.2425  0.0175 -0.0277
  596PYPI   C1B 9421   4.202   4.511  11.042 -0.0837 -0.1214 -0.0008
  596PYPI   C2B 9422   4.096   4.458  10.611 -0.0161  0.0811 -0.0354
  596PYPI   C3B 9423   4.048   4.626  10.210  0.2439  0.0310  0.0368
  596PYPI   C4B 9424   4.132   4.454   9.833 -0.0636  0.0128 -0.1205
  597PYPI    C1 9425   3.599   6.464  11.729  0.1005  0.1381  0.1530
  597PYPI    C2 9426   3.300   6.702  11.608 -0.1046 -0.1201  0.1432
  597PYPI    C3 9427   3.368   6.649  11.999 -0.0166  0.0053  0.1453
  597PYPI   PO4 9428   3.546   6.220  11.555  0.2061 -0.0336 -0.1799
  597PYPI   GL1 9429   3.669   6.094  11.176  0.2122 -0.0164  0.0975
  597PYPI   GL2 9430   3.708   5.757  11.213  0.1219  0.1093 -0.0560
  597PYPI   C1A 9431   3.705   6.285  10.854 -0.0180 -0.2754  0.1942
  597PYPI   C2A 9432   3.681   6.231  10.432 -0.0699 -0.2232  0.0076
  597PYPI   D3A 9433   3.748   6.259   9.987  0.0401  0.2822  0.0097
  597PYPI   C4A 9434   3.698   6.234   9.589  0.1574  0.2919 -0.1333
  597PYPI   C1B 9435   3.614   5.738  10.745 -0.1905  0.1426  0.1192
  597PYPI   C2B 9436   3.586   5.756  10.326 -0.3179 -0.0616 -0.1123
  597PYPI   C3B 9437   3.491   5.679   9.935  0.2076 -0.0077  0.0547
  597PYPI   C4B 9438   3.586   5.626   9.503 -0.0506 -0.2461  0.0871
  598PYPI    C1 9439   2.261   8.691  11.798  0.0476 -0.0924  0.2060
  598PYPI    C2 9440   1.921   8.889  11.873  0.0554  0.0009  0.0016
  598PYPI    C3 9441   2.239   8.939  12.111  0.0607  0.2434 -0.0534
  598PYPI   PO4 9442   2.243   8.705  11.523  0.3236  0.1011 -0.1434
  598PYPI   GL1 9443   2.356   8.747  11.143  0.0124  0.2201  0.0844
  598PYPI   GL2 9444   2.079   8.563  11.097  0.0298  0.1677  0.1714
  598PYPI   C1A 9445   2.491   8.780  10.747  0.0002  0.0484 -0.0404
  598PYPI   C2A 9446   2.498   8.831  10.287  0.1293 -0.0186  0.0139
  598PYPI   D3A 9447   2.342   8.753   9.926 -0.0236 -0.0719 -0.3826
  598PYPI   C4A 9448   2.398   8.703   9.536 -0.2397 -0.2582  0.0791
  598PYPI   C1B 9449   2.012   8.669  10.756 -0.3422 -0.0962  0.0754
  598PYPI   C2B 9450   1.934   8.687  10.328 -0.0103  0.2099 -0.0566
  598PYPI   C3B 9451   1.839   8.739   9.919 -0.1148  0.1186 -0.2232
  598PYPI   C4B 9452   1.963   8.493   9.567 -0.2341  0.3483  0.3459
  599PYPI    C1 9453  15.625   2.278  11.242  0.1205  0.2059  0.0193
  599PYPI    C2 9454  15.704   2.509  11.559  0.0352  0.0405  0.1627
  599PYPI    C3 9455  15.695   2.111  11.598 -0.1151  0.0248 -0.0169
  599PYPI   PO4 9456  15.744   2.444  11.065 -0.1353 -0.2033  0.0111
  599PYPI   GL1 9457  15.428   2.540  10.750 -0.0622 -0.0766 -0.0719
  599PYPI   GL2 9458  15.286   2.467  10.593 -0.0474  0.1704 -0.0980
  599PYPI   C1A 9459  15.716   2.590  10.361 -0.1275  0.0767 -0.0121
  599PYPI   C2A 9460  15.636   2.615   9.945  0.1829 -0.0719  0.1574
  599PYPI   D3A 9461  15.690   2.582   9.559 -0.0877  0.2229 -0.0347
  599PYPI   C4A 9462  15.537   2.669   9.177  0.0729 -0.2086  0.1391
  599PYPI   C1B 9463  15.183   2.495  10.197 -0.0433  0.0321 -0.0906
  599PYPI   C2B 9464  15.157   2.466   9.786  0.1985  0.1186  0.0264
  599PYPI   C3B 9465  15.130   2.474   9.355  0.2917  0.0115  0.2706
  599PYPI   C4B 9466  15.121   2.457   8.964  0.3052  0.0610  0.1570
  600PYPI    C1 9467  15.394  13.674  11.390 -0.1534  0.0758  0.3793
  600PYPI    C2 9468  15.641  13.506  11.655 -0.1172 -0.1732  0.1917
  600PYPI    C3 9469  15.254  13.404  11.649 -0.1097 -0.1985  0.1233
  600PYPI   PO4 9470  15.619  13.655  11.178  0.2236  0.3157 -0.0955
  600PYPI   GL1 9471  15.576  13.406  10.842  0.0299  0.1304 -0.0888
  600PYPI   GL2 9472  15.218  13.393  11.016 -0.2722  0.1807  0.0964
  600PYPI   C1A 9473  15.601  13.539  10.363 -0.1720 -0.0203 -0.0364
  600PYPI   C2A 9474  15.509  13.426   9.957 -0.0851 -0.0048  0.0927
  600PYPI   D3A 9475  15.577  13.381   9.439 -0.0516 -0.1289 -0.0708
  600PYPI   C4A 9476  15.472  13.393   9.045  0.2866 -0.1388  0.1444
  600PYPI   C1B 9477  15.033  13.283  10.610  0.2215  0.1881 -0.1530
  600PYPI   C2B 9478  14.977  13.220  10.057 -0.0630 -0.0169  0.3103
  600PYPI   C3B 9479  15.061  13.314   9.694 -0.2334 -0.1160  0.3771
  600PYPI   C4B 9480  15.063  13.396   9.303 -0.0811 -0.3747  0.2915
  601PYPI    C1 9481  10.649   3.284  11.623 -0.3459  0.0884 -0.0070
  601PYPI    C2 9482  10.381   3.273  11.919 -0.1554  0.2908  0.1765
  601PYPI    C3 9483  10.768   3.333  12.002 -0.0538  0.0225 -0.0875
  601PYPI   PO4 9484  10.595   3.158  11.438 -0.4591  0.0566  0.1250
  601PYPI   GL1 9485  10.761   2.966  11.064 -0.2453 -0.1401  0.0032
  601PYPI   GL2 9486  11.014   2.836  10.914 -0.2234  0.0586 -0.0865
  601PYPI   C1A 9487  10.709   3.191  10.642 -0.0741 -0.0348 -0.0757
  601PYPI   C2A 9488  10.709   3.107  10.210 -0.2505  0.2022  0.0463
  601PYPI   D3A 9489  10.710   3.133   9.817 -0.1817  0.2117 -0.2833
  601PYPI   C4A 9490  10.563   3.128   9.374  0.1426 -0.0569 -0.0163
  601PYPI   C1B 9491  11.070   2.834  10.579 -0.4515 -0.1970 -0.1720
  601PYPI   C2B 9492  11.120   2.727  10.234 -0.3311 -0.1520 -0.0213
  601PYPI   C3B 9493  11.113   2.736   9.851 -0.0189 -0.0771 -0.0267
  601PYPI   C4B 9494  10.980   2.804   9.399  0.0969  0.0117 -0.0938
  602PYPI    C1 9495   4.949  16.136  12.010 -0.0189 -0.0211  0.0778
  602PYPI    C2 9496   5.193  16.023  12.306 -0.1696 -0.0933  0.1756
  602PYPI    C3 9497   4.844  15.835  12.251 -0.2462  0.0700  0.0953
  602PYPI   PO4 9498   5.036  16.173  11.686 -0.0365  0.2000  0.1463
  602PYPI   GL1 9499   5.191  16.023  11.279 -0.0913 -0.1885 -0.3842
  602PYPI   GL2 9500   5.190  15.865  11.043  0.0250 -0.0897 -0.0341
  602PYPI   C1A 9501   5.228  16.342  10.976 -0.0056  0.0285  0.3714
  602PYPI   C2A 9502   5.325  16.429  10.540  0.3601  0.1506 -0.0860
  602PYPI   D3A 9503   5.201  16.444  10.155  0.1956  0.0043 -0.0071
  602PYPI   C4A 9504   5.300  16.499   9.774 -0.1621 -0.1607 -0.1211
  602PYPI   C1B 9505   5.148  15.940  10.658 -0.0067 -0.0611 -0.1066
  602PYPI   C2B 9506   5.148  15.875  10.263 -0.3979 -0.1525 -0.2857
  602PYPI   C3B 9507   5.124  15.898   9.775  0.2040  0.1717  0.2451
  602PYPI   C4B 9508   4.912  15.922   9.350 -0.3504  0.2901  0.1051
  603PYPI    C1 9509   7.266   9.697  11.815 -0.1918  0.0689  0.1324
  603PYPI    C2 9510   6.956   9.698  12.068 -0.3730 -0.0984 -0.0848
  603PYPI    C3 9511   7.253   9.433  12.115 -0.3177 -0.0126  0.0560
  603PYPI   PO4 9512   7.143   9.692  11.499  0.0720 -0.1314  0.0093
  603PYPI   GL1 9513   7.245   9.789  11.073 -0.2517 -0.2125 -0.4200
  603PYPI   GL2 9514   7.085  10.016  11.074  0.2178 -0.0977  0.0985
  603PYPI   C1A 9515   7.125   9.835  10.645 -0.3373  0.1001  0.2494
  603PYPI   C2A 9516   7.109   9.976  10.202  0.0047  0.0193  0.0721
  603PYPI   D3A 9517   7.056  10.041   9.787 -0.0427  0.0921 -0.2131
  603PYPI   C4A 9518   6.996   9.872   9.399  0.0763 -0.0980  0.1039
  603PYPI   C1B 9519   7.283  10.304  10.852  0.2377  0.2304 -0.0984
  603PYPI   C2B 9520   7.255  10.448  10.467  0.0800 -0.1654  0.1936
  603PYPI   C3B 9521   7.247  10.470  10.060 -0.1496  0.4089 -0.1242
  603PYPI   C4B 9522   7.215  10.471   9.626  0.0135 -0.2464 -0.3371
  604PYPI    C1 9523   0.060   1.755  11.880 -0.0982  0.3512 -0.0678
  604PYPI    C2 9524   0.391   1.885  12.065 -0.0251  0.1500 -0.0545
  604PYPI    C3 9525   0.043   2.077  12.118 -0.0150  0.0689  0.3299
  604PYPI   PO4 9526   0.132   1.754  11.637 -0.0243 -0.1029  0.1527
  604PYPI   GL1 9527   0.152   1.669  11.181 -0.0715 -0.0737  0.1370
  604PYPI   GL2 9528   0.460   1.633  11.229 -0.0460 -0.2712  0.2967
  604PYPI   C1A 9529   0.002   1.564  10.721 -0.0752 -0.2570  0.1058
  604PYPI   C2A 9530  -0.052   1.670  10.349 -0.0883 -0.0896 -0.1413
  604PYPI   D3A 9531  -0.124   1.553   9.951 -0.0491 -0.1913  0.0362
  604PYPI   C4A 9532  -0.124   1.614   9.501 -0.0520 -0.3213  0.0259
  604PYPI   C1B 9533   0.428   1.788  10.803 -0.3209  0.1676 -0.0354
  604PYPI   C2B 9534   0.441   1.787  10.389  0.1766 -0.1925 -0.2664
  604PYPI   C3B 9535   0.442   1.765   9.978 -0.0141 -0.1809  0.1233
  604PYPI   C4B 9536   0.460   1.659   9.463  0.1298 -0.0922  0.4568
  605PYPI    C1 9537   6.522   8.118  11.552  0.0762  0.1179 -0.0763
  605PYPI    C2 9538   6.228   7.901  11.715 -0.0410  0.2208 -0.1487
  605PYPI    C3 9539   6.560   7.977  11.924 -0.0751  0.1232 -0.0581
  605PYPI   PO4 9540   6.622   7.999  11.348  0.0335 -0.0905 -0.1724
  605PYPI   GL1 9541   6.624   7.802  11.038  0.0314 -0.0201  0.2502
  605PYPI   GL2 9542   6.937   8.044  10.977  0.2234  0.0464 -0.2031
  605PYPI   C1A 9543   6.358   7.929  10.684  0.0071  0.2117 -0.0412
  605PYPI   C2A 9544   6.411   7.863  10.284 -0.0751 -0.0618  0.2135
  605PYPI   D3A 9545   6.378   7.914   9.839 -0.1799 -0.2305  0.1331
  605PYPI   C4A 9546   6.382   7.990   9.442 -0.0254 -0.4102 -0.2023
  605PYPI   C1B 9547   6.874   8.066  10.489  0.0205 -0.2030  0.0521
  605PYPI   C2B 9548   6.872   8.077  10.019 -0.2971 -0.1021 -0.2454
  605PYPI   C3B 9549   6.939   8.065   9.634  0.1938  0.0303  0.2848
  605PYPI   C4B 9550   6.885   8.004   9.231  0.1890  0.1359 -0.1476
  606PYPI    C1 9551  13.568   2.485  11.547 -0.0252 -0.0170  0.1009
  606PYPI    C2 9552  13.876   2.577  11.785  0.0407 -0.0421  0.0259
  606PYPI    C3 9553  13.501   2.628  11.914  0.0760 -0.0664  0.1390
  606PYPI   PO4 9554  13.508   2.586  11.307  0.1337 -0.0345 -0.1065
  606PYPI   GL1 9555  13.565   2.572  10.898 -0.3517  0.0773  0.4281
  606PYPI   GL2 9556  13.872   2.536  10.837  0.0390 -0.0590  0.3112
  606PYPI   C1A 9557  13.284   2.471  10.497 -0.1495  0.4652 -0.1513
  606PYPI   C2A 9558  13.222   2.480  10.062 -0.1039  0.0639  0.1434
  606PYPI   D3A 9559  13.211   2.386   9.617  0.0315 -0.0072 -0.3755
  606PYPI   C4A 9560  13.351   2.419   9.248 -0.4908 -0.0567  0.3173
  606PYPI   C1B 9561  13.768   2.513  10.461  0.3039 -0.0523  0.2811
  606PYPI   C2B 9562  13.726   2.478  10.121 -0.0728 -0.0739  0.5376
  606PYPI   C3B 9563  13.699   2.497   9.758 -0.2155 -0.2393  0.1386
  606PYPI   C4B 9564  13.832   2.745   9.479  0.3600  0.1057  0.1500
  607ERGO   ROH 9565   9.759  10.694  10.944 -0.1948  0.1856  0.1443
  607ERGO    R1 9566   9.614  10.603  10.718 -0.0785 -0.0106  0.1463
  607ERGO    R2 9567   9.519  10.776  10.523 -0.2480 -0.1460  0.1099
  607ERGO    R3 9568   9.657  10.610  10.358 -0.0550 -0.0263  0.1479
  607ERGO    R4 9569   9.491  10.769  10.179 -0.1086 -0.1282  0.0979
  607ERGO    R5 9570   9.502  10.553  10.186  0.0523 -0.1251  0.0796
  607ERGO    C1 9571   9.605  10.610   9.823  0.1536 -0.0055  0.1264
  607ERGO    C2 9572   9.538  10.473   9.460 -0.2185  0.1816  0.0479
  608ERGO   ROH 9573  12.275  14.086  10.801 -0.1883 -0.1549 -0.0902
  608ERGO    R1 9574  12.374  14.167  10.548 -0.2107 -0.0530 -0.0676
  608ERGO    R2 9575  12.562  14.020  10.408 -0.0400  0.1259 -0.0360
  608ERGO    R3 9576  12.376  14.032  10.210 -0.0146 -0.0431 -0.0708
  608ERGO    R4 9577  12.633  14.024  10.069  0.0162  0.1758 -0.0234
  608ERGO    R5 9578  12.475  14.172  10.043 -0.1073  0.0370 -0.0570
  608ERGO    C1 9579  12.499  14.037   9.687  0.0728  0.0463 -0.0485
  608ERGO    C2 9580  12.425  13.981   9.313 -0.0218  0.0112  0.0191
  609ERGO   ROH 9581   6.030  16.951  10.963  0.0727  0.1134 -0.1447
  609ERGO    R1 9582   5.885  17.015  10.728  0.1510  0.1508 -0.1838
  609ERGO    R2 9583   5.980  17.193  10.538  0.3141  0.0181 -0.2323
  609ERGO    R3 9584   5.937  16.985  10.369  0.1739 -0.0062 -0.1675
  609ERGO    R4 9585   5.988  17.213  10.194  0.2390 -0.0784 -0.2396
  609ERGO    R5 9586   5.816  17.080  10.186  0.1750  0.0017 -0.1626
  609ERGO    C1 9587   5.952  17.029   9.834  0.0637 -0.1571 -0.1831
  609ERGO    C2 9588   5.889  17.049   9.523  0.0524  0.0955  0.1240
  610ERGO   ROH 9589  12.618   2.982  11.055 -0.0126  0.1318 -0.0700
  610ERGO    R1 9590  12.498   3.097  10.826 -0.0435  0.0954 -0.0730
  610ERGO    R2 9591  12.640   3.244  10.641 -0.0682  0.0754 -0.1143
  610ERGO    R3 9592  12.535   3.066  10.465 -0.0828  0.0431 -0.0714
  610ERGO    R4 9593  12.684   3.254  10.298  0.0644 -0.1125 -0.1039
  610ERGO    R5 9594  12.475   3.198  10.274  0.0515 -0.0246 -0.1570
  610ERGO    C1 9595  12.610   3.093   9.934  0.1279 -0.2523 -0.0574
  610ERGO    C2 9596  12.645   3.116   9.581  0.0471 -0.0572 -0.2142
  611ERGO   ROH 9597   2.433   3.469  10.924  0.0040  0.2869  0.2728
  611ERGO    R1 9598   2.366   3.577  10.671  0.1218  0.2785  0.2381
  611ERGO    R2 9599   2.557   3.649  10.485  0.2002 -0.1246  0.1586
  611ERGO    R3 9600   2.414   3.484  10.323 -0.1132  0.0304  0.2674
  611ERGO    R4 9601   2.510   3.697  10.146  0.6285 -0.4429  0.0461
  611ERGO    R5 9602   2.304   3.632  10.170  0.4113  0.1435 -0.0298
  611ERGO    C1 9603   2.349   3.570   9.796  0.5838 -0.4826  0.0826
  611ERGO    C2 9604   2.213   3.697   9.512 -0.0841  0.0194 -0.0019
  612ERGO   ROH 9605   4.269  10.087  11.131  0.0023  0.0299  0.0399
  612ERGO    R1 9606   4.275  10.192  10.868  0.0462  0.0147  0.0350
  612ERGO    R2 9607   4.491  10.156  10.699  0.0096 -0.1286  0.0181
  612ERGO    R3 9608   4.301  10.059  10.531 -0.0669 -0.0163  0.0384
  612ERGO    R4 9609   4.491  10.196  10.355 -0.0113 -0.1180  0.0193
  612ERGO    R5 9610   4.276  10.228  10.364  0.0077  0.0033  0.0470
  612ERGO    C1 9611   4.312  10.127   9.998 -0.0953 -0.0062  0.0390
  612ERGO    C2 9612   4.180  10.176   9.612  0.2650 -0.2867 -0.4357
  613ERGO   ROH 9613   0.099   2.147  10.847 -0.3604 -0.1244 -0.0696
  613ERGO    R1 9614   0.037   2.069  10.582 -0.3597 -0.0069 -0.1051
  613ERGO    R2 9615  -0.059   2.247  10.393 -0.1444  0.1276 -0.0931
  613ERGO    R3 9616   0.152   2.156  10.248 -0.1859 -0.0342 -0.0532
  613ERGO    R4 9617  -0.048   2.231  10.048 -0.1543 -0.0442 -0.0863
  613ERGO    R5 9618   0.052   2.039  10.065 -0.2379 -0.0795  0.0047
  613ERGO    C1 9619   0.156   2.137   9.711 -0.1989 -0.2963 -0.0448
  613ERGO    C2 9620   0.144   2.027   9.394  0.0438 -0.0567  0.1722
  614ERGO   ROH 9621   1.132   4.011  11.127 -0.0322 -0.0924 -0.0353
  614ERGO    R1 9622   1.206   3.959  10.859  0.0215 -0.0907 -0.0207
  614ERGO    R2 9623   1.133   3.727  10.726  0.0060 -0.0667 -0.0522
  614ERGO    R3 9624   1.033   3.902  10.544  0.0859 -0.0355 -0.0666
  614ERGO    R4 9625   1.099   3.663  10.389  0.0099 -0.0688 -0.0522
  614ERGO    R5 9626   1.166   3.866  10.348  0.0897 -0.0936 -0.0547
  614ERGO    C1 9627   0.986   3.789  10.020  0.0871 -0.0408 -0.0658
  614ERGO    C2 9628   0.931   3.753   9.595 -0.1416  0.1670  0.1627
  615ERGO   ROH 9629  15.664   6.846  11.072  0.1375 -0.0681 -0.0170
  615ERGO    R1 9630  15.530   6.804  10.826  0.1412 -0.0654 -0.0190
  615ERGO    R2 9631  15.479   7.009  10.647  0.0303 -0.0421  0.0423
  615ERGO    R3 9632  15.607   6.846  10.472  0.0964  0.0686 -0.0146
  615ERGO    R4 9633  15.439   7.017  10.304 -0.1408 -0.0767  0.0606
  615ERGO    R5 9634  15.444   6.799  10.304  0.0534 -0.0775  0.0626
  615ERGO    C1 9635  15.536   6.867   9.940 -0.1784  0.0071  0.0179
  615ERGO    C2 9636  15.588   6.937   9.629 -0.0417 -0.0601  0.1523
  616ERGO   ROH 9637   9.328   0.623  10.964  0.2577  0.1005  0.0722
  616ERGO    R1 9638   9.375   0.707  10.698 -0.0259  0.0191 -0.0060
  616ERGO    R2 9639   9.583   0.610  10.545  0.1614  0.3911  0.0079
  616ERGO    R3 9640   9.384   0.552  10.369  0.2300 -0.2080  0.1034
  616ERGO    R4 9641   9.623   0.590  10.202  0.0551  0.5852 -0.0178
  616ERGO    R5 9642   9.431   0.691  10.179 -0.2999 -0.0046  0.1009
  616ERGO    C1 9643   9.460   0.525   9.837  0.0576  0.1358  0.0567
  616ERGO    C2 9644   9.517   0.510   9.455  0.0678  0.2170 -0.0254
  617ERGO   ROH 9645   6.493   2.506  11.158 -0.2780 -0.0468 -0.1015
  617ERGO    R1 9646   6.355   2.481  10.912 -0.2442  0.1318 -0.1402
  617ERGO    R2 9647   6.301   2.698  10.749  0.0829  0.2058 -0.1587
  617ERGO    R3 9648   6.426   2.546  10.561 -0.0594  0.0389 -0.1213
  617ERGO    R4 9649   6.248   2.721  10.408  0.2521  0.3160 -0.1783
  617ERGO    R5 9650   6.258   2.504  10.397 -0.0585  0.2986 -0.1931
  617ERGO    C1 9651   6.336   2.592  10.034  0.2171  0.2236 -0.1545
  617ERGO    C2 9652   6.234   2.543   9.687 -0.0762 -0.1827  0.0468
  618ERGO   ROH 9653   5.623   1.453  11.181 -0.1041 -0.0385 -0.0538
  618ERGO    R1 9654   5.536   1.594  10.952 -0.1392 -0.0453 -0.0451
  618ERGO    R2 9655   5.702   1.648  10.738 -0.1176  0.1178  0.0110
  618ERGO    R3 9656   5.504   1.527  10.596  0.0031  0.0147 -0.0698
  618ERGO    R4 9657   5.685   1.638  10.393  0.0179  0.1344  0.0037
  618ERGO    R5 9658   5.470   1.671  10.408 -0.0086  0.0105 -0.0720
  618ERGO    C1 9659   5.489   1.518  10.059  0.2101  0.0473 -0.0763
  618ERGO    C2 9660   5.534   1.449   9.761 -0.2102  0.2070  0.0699
  619ERGO   ROH 9661   1.173  12.240  10.886  0.2934  0.0010 -0.0996
  619ERGO    R1 9662   1.153  12.334  10.620  0.1458  0.0124 -0.0857
  619ERGO    R2 9663   1.354  12.297  10.433  0.0438  0.0217 -0.1988
  619ERGO    R3 9664   1.153  12.188  10.287 -0.0370  0.0268 -0.0928
  619ERGO    R4 9665   1.342  12.290  10.088 -0.1022 -0.0453 -0.1934
  619ERGO    R5 9666   1.129  12.334  10.099 -0.0903 -0.0065 -0.1125
  619ERGO    C1 9667   1.147  12.183   9.749 -0.2631 -0.0794 -0.0903
  619ERGO    C2 9668   1.222  12.111   9.506 -0.3048 -0.0642  0.1286
  620ERGO   ROH 9669  11.491  10.999  11.083 -0.1749 -0.0277  0.1000
  620ERGO    R1 9670  11.487  11.122  10.828 -0.1721 -0.1338  0.0508
  620ERGO    R2 9671  11.716  11.168  10.681 -0.1484  0.0688  0.1705
  620ERGO    R3 9672  11.583  11.029  10.489  0.1226 -0.1539  0.1325
  620ERGO    R4 9673  11.763  11.206  10.340 -0.2819  0.3640  0.1812
  620ERGO    R5 9674  11.547  11.189  10.314 -0.2742 -0.1197  0.2192
  620ERGO    C1 9675  11.664  11.098   9.962 -0.1053  0.3269  0.1517
  620ERGO    C2 9676  11.619  11.043   9.573  0.3111  0.0978  0.0945
  621ERGO   ROH 9677   6.369  12.102  10.796  0.0013  0.3496  0.0622
  621ERGO    R1 9678   6.412  11.968  10.550 -0.3341  0.2306  0.0636
  621ERGO    R2 9679   6.287  12.044  10.316 -0.2073  0.4981  0.0790
  621ERGO    R3 9680   6.541  12.054  10.221 -0.1859 -0.0776  0.0379
  621ERGO    R4 9681   6.373  12.064   9.982 -0.2207  0.4639  0.0733
  621ERGO    R5 9682   6.536  11.924  10.020 -0.5466  0.0347 -0.0310
  621ERGO    C1 9683   6.662  12.085   9.698 -0.2084 -0.0964  0.0314
  621ERGO    C2 9684   6.802  12.202   9.250  0.0653  0.2656  0.1053
  622ERGO   ROH 9685  12.775   5.042  11.064  0.0757  0.4841 -0.1699
  622ERGO    R1 9686  12.721   4.919  10.814  0.0932  0.2648 -0.0697
  622ERGO    R2 9687  12.518   5.004  10.647  0.0183  0.0392 -0.1087
  622ERGO    R3 9688  12.719   5.021  10.465 -0.0145  0.0005 -0.1462
  622ERGO    R4 9689  12.489   4.923  10.312  0.0421 -0.2811 -0.0355
  622ERGO    R5 9690  12.686   4.831  10.322  0.0948 -0.1452  0.0268
  622ERGO    C1 9691  12.660   4.892   9.946  0.0251 -0.5041 -0.0280
  622ERGO    C2 9692  12.636   4.956   9.571  0.0559  0.1105 -0.1393
  623ERGO   ROH 9693  10.251   3.124  11.091 -0.0645  0.1280  0.0102
  623ERGO    R1 9694  10.284   2.974  10.854  0.0693  0.1713  0.0011
  623ERGO    R2 9695  10.086   2.952  10.662  0.0788 -0.0116  0.0117
  623ERGO    R3 9696  10.282   3.041  10.496 -0.0147  0.1878  0.0040
  623ERGO    R4 9697  10.062   2.966  10.318  0.0459 -0.0260  0.0133
  623ERGO    R5 9698  10.268   2.896  10.306  0.1169  0.1769  0.0005
  623ERGO    C1 9699  10.232   3.056   9.961 -0.0611  0.1528  0.0069
  623ERGO    C2 9700  10.189   2.973   9.668  0.0059  0.0662 -0.1433
  624ERGO   ROH 9701   6.703  12.889  10.809  0.0952 -0.2981 -0.1330
  624ERGO    R1 9702   6.733  13.020  10.559  0.1039 -0.2145 -0.0890
  624ERGO    R2 9703   6.799  12.885  10.328  0.0350 -0.1499 -0.1494
  624ERGO    R3 9704   6.575  13.005  10.232  0.0583 -0.0467 -0.0750
  624ERGO    R4 9705   6.738  12.948   9.994 -0.0189 -0.0601 -0.1225
  624ERGO    R5 9706   6.654  13.142  10.051  0.0670 -0.0410 -0.0654
  624ERGO    C1 9707   6.491  13.097   9.709 -0.0285  0.0889 -0.0369
  624ERGO    C2 9708   6.546  13.071   9.330 -0.0755  0.0196  0.1505
  625ERGO   ROH 9709  15.438  11.410  11.038  0.0509 -0.1469  0.1448
  625ERGO    R1 9710  15.491  11.553  10.799 -0.0788  0.0045  0.2048
  625ERGO    R2 9711  15.628  11.442  10.587  0.0849  0.2409  0.1838
  625ERGO    R3 9712  15.408  11.519  10.447  0.0139  0.0366  0.1792
  625ERGO    R4 9713  15.614  11.473  10.243  0.0038  0.0309  0.1661
  625ERGO    R5 9714  15.495  11.654  10.269 -0.0931 -0.0175  0.0823
  625ERGO    C1 9715  15.400  11.564   9.911 -0.1100 -0.2832  0.1516
  625ERGO    C2 9716  15.499  11.571   9.447  0.0587  0.0915  0.0278
  626ERGO   ROH 9717  13.335   0.221  11.039 -0.2184  0.0656  0.0719
  626ERGO    R1 9718  13.219   0.085  10.819 -0.0344  0.0558 -0.0222
  626ERGO    R2 9719  13.070   0.216  10.625 -0.1261  0.0050  0.0079
  626ERGO    R3 9720  13.247   0.097  10.456  0.0360  0.2677 -0.0100
  626ERGO    R4 9721  13.034   0.198  10.282 -0.2531 -0.2512  0.0327
  626ERGO    R5 9722  13.110  -0.006  10.289  0.1617 -0.0996  0.1086
  626ERGO    C1 9723  13.180   0.077   9.923 -0.1748 -0.1537  0.0303
  626ERGO    C2 9724  13.071   0.058   9.630 -0.2671  0.0039  0.0621
  627ERGO   ROH 9725   5.478  16.932  11.061 -0.0933  0.0192 -0.0841
  627ERGO    R1 9726   5.371  16.920  10.799 -0.0763 -0.0928 -0.0878
  627ERGO    R2 9727   5.401  17.126  10.617 -0.2414 -0.0774 -0.1084
  627ERGO    R3 9728   5.501  16.928  10.460 -0.0673 -0.0116 -0.0807
  627ERGO    R4 9729   5.374  17.115  10.273 -0.0787 -0.0774 -0.1214
  627ERGO    R5 9730   5.337  16.900  10.287  0.0305 -0.0917 -0.1549
  627ERGO    C1 9731   5.452  16.923   9.924  0.1795 -0.0157 -0.1028
  627ERGO    C2 9732   5.364  16.967   9.582  0.0834  0.1922  0.0015
  628ERGO   ROH 9733   2.863   8.939  11.128  0.0989 -0.1101  0.0426
  628ERGO    R1 9734   2.991   9.020  10.889  0.1145 -0.1542  0.0343
  628ERGO    R2 9735   3.057   8.841  10.688 -0.0058 -0.1736  0.0008
  628ERGO    R3 9736   2.914   9.013  10.533  0.0627 -0.0776  0.0463
  628ERGO    R4 9737   3.023   8.818  10.345 -0.0903 -0.1032  0.0049
  628ERGO    R5 9738   3.042   9.034  10.333  0.0273 -0.1214  0.0268
  628ERGO    C1 9739   2.869   8.965  10.000 -0.0752  0.0281  0.0501
  628ERGO    C2 9740   2.862   8.865   9.631 -0.3854  0.4454  0.1998
  629ERGO   ROH 9741  14.310   2.895  10.891  0.0242  0.2199  0.0613
  629ERGO    R1 9742  14.399   2.766  10.655 -0.2061  0.0262  0.0755
  629ERGO    R2 9743  14.227   2.630  10.486 -0.4507  0.2654  0.1176
  629ERGO    R3 9744  14.334   2.795  10.298 -0.1999  0.0637  0.0788
  629ERGO    R4 9745  14.179   2.600  10.145 -0.3927  0.1970  0.1157
  629ERGO    R5 9746  14.389   2.650  10.115 -0.3252 -0.0695  0.1496
  629ERGO    C1 9747  14.252   2.737   9.770 -0.1235 -0.0322  0.0781
  629ERGO    C2 9748  14.293   2.830   9.511  0.0534  0.1680  0.2888
  630ERGO   ROH 9749   5.834   9.222  10.915  0.0431  0.0677  0.0340
  630ERGO    R1 9750   5.933   9.250  10.651  0.0381  0.1087  0.0379
  630ERGO    R2 9751   5.906   9.052  10.460  0.0677  0.1287  0.0239
  630ERGO    R3 9752   5.794   9.253  10.315  0.0415  0.1234  0.0341
  630ERGO    R4 9753   5.901   9.068  10.115 -0.0630  0.0543  0.0206
  630ERGO    R5 9754   5.942   9.281  10.129 -0.0190  0.0590 -0.0329
  630ERGO    C1 9755   5.793   9.265   9.778 -0.1636  0.0059  0.0282
  630ERGO    C2 9756   5.886   9.297   9.373 -0.0527 -0.0899 -0.0046
  631ERGO   ROH 9757  12.822  17.345  11.135  0.0897  0.3098  0.1008
  631ERGO    R1 9758  12.692  17.254  10.901  0.1419  0.1753  0.1235
  631ERGO    R2 9759  12.601  17.425  10.704 -0.0312  0.0803  0.1166
  631ERGO    R3 9760  12.752  17.269  10.542  0.0895  0.1965  0.1161
  631ERGO    R4 9761  12.611  17.450  10.360 -0.0026  0.1240  0.1206
  631ERGO    R5 9762  12.615  17.232  10.349  0.1388  0.1293  0.0955
  631ERGO    C1 9763  12.759  17.317  10.007  0.1274  0.2588  0.1226
  631ERGO    C2 9764  12.610  17.277   9.721  0.2705 -0.0146  0.0624
  632ERGO   ROH 9765   7.409  10.606   6.773  0.1332  0.0550  0.1170
  632ERGO    R1 9766   7.465  10.544   7.043  0.1139  0.2140  0.1577
  632ERGO    R2 9767   7.437  10.728   7.247 -0.3528  0.2038  0.1082
  632ERGO    R3 9768   7.280  10.535   7.356 -0.0398 -0.0871  0.0638
  632ERGO    R4 9769   7.404  10.669   7.586 -0.4729  0.2737  0.1097
  632ERGO    R5 9770   7.405  10.455   7.544  0.0017  0.2467  0.1897
  632ERGO    C1 9771   7.236  10.453   7.886 -0.2490  0.0415  0.0688
  632ERGO    C2 9772   7.266  10.439   8.301  0.3316  0.2277  0.3537
  633ERGO   ROH 9773  10.274   0.289  10.875 -0.0627  0.2297 -0.0057
  633ERGO    R1 9774  10.385   0.343  10.620 -0.1297  0.2856 -0.0232
  633ERGO    R2 9775  10.455   0.142  10.443  0.1943  0.3082  0.0757
  633ERGO    R3 9776  10.293   0.280  10.273 -0.0144 -0.0198 -0.0017
  633ERGO    R4 9777  10.472   0.128  10.098  0.2293  0.1573  0.0825
  633ERGO    R5 9778  10.436   0.343  10.092 -0.0986  0.1078 -0.0271
  633ERGO    C1 9779  10.330   0.249   9.738  0.0537 -0.2383  0.0138
  633ERGO    C2 9780  10.377   0.236   9.380 -0.0495 -0.3390  0.3530
  634ERGO   ROH 9781   1.887  16.690  11.110  0.0547 -0.0096  0.0336
  634ERGO    R1 9782   2.019  16.796  10.883  0.1065 -0.1216  0.0107
  634ERGO    R2 9783   2.160  16.638  10.705 -0.0685 -0.2453 -0.0212
  634ERGO    R3 9784   1.998  16.755  10.521 -0.0010 -0.0941  0.0138
  634ERGO    R4 9785   2.185  16.593  10.363 -0.0712 -0.1233 -0.0379
  634ERGO    R5 9786   2.143  16.806  10.338  0.0339 -0.0928  0.0422
  634ERGO    C1 9787   2.046  16.677   9.992 -0.0093  0.0894 -0.0145
  634ERGO    C2 9788   1.934  16.641   9.601 -0.1561 -0.0959 -0.0124
  635ERGO   ROH 9789  12.592   8.084  10.861 -0.0718  0.0036  0.0253
  635ERGO    R1 9790  12.548   8.196  10.605  0.0459  0.0068  0.0066
  635ERGO    R2 9791  12.746   8.212  10.413  0.0812 -0.1674  0.0316
  635ERGO    R3 9792  12.563   8.082  10.260  0.0016 -0.0452  0.0207
  635ERGO    R4 9793  12.748   8.205  10.068  0.0503 -0.0937  0.0293
  635ERGO    R5 9794  12.531   8.227  10.071  0.0577  0.0140  0.0531
  635ERGO    C1 9795  12.577   8.079   9.723 -0.0424  0.0639  0.0176
  635ERGO    C2 9796  12.632   8.144   9.405  0.0940  0.2591  0.0630
  636ERGO   ROH 9797   2.465   2.409  11.062 -0.1575  0.0261  0.0883
  636ERGO    R1 9798   2.571   2.393  10.801 -0.0724  0.0430  0.1220
  636ERGO    R2 9799   2.516   2.183  10.630 -0.0388  0.0688  0.0822
  636ERGO    R3 9800   2.438   2.381  10.462  0.0397  0.0945  0.0751
  636ERGO    R4 9801   2.455   2.143  10.292 -0.2937  0.0228  0.1309
  636ERGO    R5 9802   2.553   2.334  10.257 -0.1331 -0.0764  0.0126
  636ERGO    C1 9803   2.347   2.306   9.937 -0.3684  0.0201  0.1526
  636ERGO    C2 9804   2.386   2.196   9.620  0.2849 -0.0572 -0.1193
  637ERGO   ROH 9805  11.851  16.556  10.846  0.2549  0.0541 -0.2360
  637ERGO    R1 9806  11.801  16.667  10.590 -0.0349 -0.0569 -0.2301
  637ERGO    R2 9807  12.003  16.732  10.413 -0.2160  0.2104 -0.3413
  637ERGO    R3 9808  11.863  16.572  10.244 -0.0705 -0.0206 -0.2474
  637ERGO    R4 9809  12.029  16.736  10.068 -0.3131  0.1302 -0.3499
  637ERGO    R5 9810  11.814  16.711  10.056 -0.2926 -0.1378 -0.2820
  637ERGO    C1 9811  11.913  16.587   9.710 -0.2329 -0.1331 -0.2669
  637ERGO    C2 9812  11.982  16.605   9.368  0.0669 -0.1330 -0.0310
  638ERGO   ROH 9813  17.183  11.001  10.845 -0.0234  0.0544 -0.0469
  638ERGO    R1 9814  17.291  11.021  10.584  0.0047  0.2673 -0.0200
  638ERGO    R2 9815  17.262  10.823  10.394  0.5254  0.1552  0.0040
  638ERGO    R3 9816  17.162  11.026  10.244  0.0808 -0.0954 -0.0579
  638ERGO    R4 9817  17.258  10.829  10.049  0.6100  0.0820  0.0012
  638ERGO    R5 9818  17.311  11.040  10.057  0.1110  0.2240 -0.0170
  638ERGO    C1 9819  17.162  11.023   9.706  0.2418 -0.1958 -0.0585
  638ERGO    C2 9820  17.189  10.972   9.314  0.3487 -0.1523 -0.0778
  639ERGO   ROH 9821  13.520   6.987  11.113  0.2645 -0.1452 -0.0418
  639ERGO    R1 9822  13.645   7.065  10.872  0.1642 -0.1706 -0.1013
  639ERGO    R2 9823  13.720   6.884  10.677 -0.0854 -0.1713 -0.1924
  639ERGO    R3 9824  13.570   7.043  10.516 -0.0757 -0.0282 -0.0633
  639ERGO    R4 9825  13.762   6.915  10.335 -0.2272 -0.0816 -0.2032
  639ERGO    R5 9826  13.726   7.129  10.356 -0.0974 -0.0613 -0.1089
  639ERGO    C1 9827  13.645   7.083   9.986 -0.3005  0.1049 -0.0885
  639ERGO    C2 9828  13.731   6.976   9.635 -0.0123  0.1192 -0.0910
  640ERGO   ROH 9829   9.447   1.258  10.929  0.0355 -0.2651 -0.1447
  640ERGO    R1 9830   9.377   1.218  10.658 -0.1473 -0.0762 -0.1269
  640ERGO    R2 9831   9.180   1.363  10.531  0.2069  0.4695 -0.0691
  640ERGO    R3 9832   9.377   1.416  10.352  0.3130 -0.0608 -0.1271
  640ERGO    R4 9833   9.139   1.363  10.188  0.1007  0.5397 -0.0585
  640ERGO    R5 9834   9.334   1.266  10.170 -0.1393  0.0180 -0.1038
  640ERGO    C1 9835   9.301   1.413   9.820  0.1384  0.0828 -0.1069
  640ERGO    C2 9836   9.301   1.381   9.373  0.0668 -0.0686 -0.1900
  641ERGO   ROH 9837  17.072  17.180  11.043  0.0520 -0.1183 -0.0371
  641ERGO    R1 9838  17.218  17.145  10.803  0.0566 -0.1661 -0.0269
  641ERGO    R2 9839  17.134  16.976  10.601  0.0623 -0.2071  0.0068
  641ERGO    R3 9840  17.160  17.198  10.448  0.0642 -0.2391 -0.0398
  641ERGO    R4 9841  17.141  16.976  10.256 -0.0727 -0.2682  0.0035
  641ERGO    R5 9842  17.298  17.128  10.264 -0.0260 -0.3092 -0.0825
  641ERGO    C1 9843  17.169  17.186   9.910 -0.1494 -0.3340 -0.0422
  641ERGO    C2 9844  17.151  17.013   9.639  0.1136 -0.1601 -0.3657
  642ERGO   ROH 9845  15.442  16.551  11.147 -0.0488  0.2363 -0.0133
  642ERGO    R1 9846  15.271  16.530  10.922 -0.0600  0.0574  0.0099
  642ERGO    R2 9847  15.280  16.709  10.711 -0.1921 -0.0029 -0.0532
  642ERGO    R3 9848  15.311  16.483  10.563 -0.0649 -0.0349  0.0224
  642ERGO    R4 9849  15.214  16.684  10.373  0.0268 -0.1070 -0.0890
  642ERGO    R5 9850  15.128  16.487  10.409  0.0357 -0.1062 -0.0950
  642ERGO    C1 9851  15.206  16.458  10.037  0.2737 -0.1976 -0.0389
  642ERGO    C2 9852  15.092  16.532   9.679  0.1500  0.2033 -0.0757
  643ERGO   ROH 9853  14.217   5.429  10.788  0.2594  0.0687 -0.1789
  643ERGO    R1 9854  14.098   5.452  10.532  0.2040  0.0951 -0.1506
  643ERGO    R2 9855  14.152   5.662  10.361  0.2073  0.0838 -0.1608
  643ERGO    R3 9856  14.213   5.462  10.187  0.1240  0.0731 -0.1786
  643ERGO    R4 9857  14.127   5.685  10.017  0.0419  0.0658 -0.1512
  643ERGO    R5 9858  14.049   5.481  10.014  0.0394  0.0642 -0.1015
  643ERGO    C1 9859  14.170   5.510   9.653 -0.1325  0.0452 -0.1622
  643ERGO    C2 9860  14.143   5.393   9.272  0.0093 -0.0210 -0.0940
  644ERGO   ROH 9861   5.402   7.675  10.672  0.0963 -0.0594 -0.1515
  644ERGO    R1 9862   5.488   7.691  10.403  0.0746 -0.0137 -0.1551
  644ERGO    R2 9863   5.437   7.493  10.218  0.0141  0.0445 -0.1955
  644ERGO    R3 9864   5.331   7.698  10.075  0.0473  0.1006 -0.1413
  644ERGO    R4 9865   5.445   7.518   9.873 -0.0585  0.0808 -0.1953
  644ERGO    R5 9866   5.486   7.732   9.895  0.0198  0.0692 -0.1756
  644ERGO    C1 9867   5.350   7.726   9.538 -0.0696  0.1547 -0.1442
  644ERGO    C2 9868   5.240   7.519   9.278  0.0888  0.0638 -0.0037
  645ERGO   ROH 9869   1.188   4.913  10.895  0.0266 -0.2998 -0.0395
  645ERGO    R1 9870   1.229   4.960  10.619  0.0939 -0.2375 -0.0186
  645ERGO    R2 9871   1.422   4.828  10.472  0.0513 -0.2868 -0.0244
  645ERGO    R3 9872   1.211   4.766  10.312  0.0483 -0.1366 -0.0813
  645ERGO    R4 9873   1.435   4.804  10.127  0.1019 -0.1676 -0.0317
  645ERGO    R5 9874   1.241   4.903  10.118  0.1434 -0.0766 -0.0282
  645ERGO    C1 9875   1.245   4.732   9.776  0.1285  0.0427 -0.0892
  645ERGO    C2 9876   1.204   4.729   9.510 -0.0289  0.0839  0.1378
  646ERGO   ROH 9877  12.200  13.604  10.780  0.1219  0.0552  0.0484
  646ERGO    R1 9878  12.253  13.703  10.521  0.0841 -0.0666 -0.0059
  646ERGO    R2 9879  12.435  13.584  10.351  0.0200 -0.1764  0.0048
  646ERGO    R3 9880  12.224  13.580  10.179 -0.0184 -0.2055  0.0517
  646ERGO    R4 9881  12.457  13.511  10.013  0.0376  0.3221 -0.1092
  646ERGO    R5 9882  12.312  13.670   9.975 -0.1785  0.1972  0.1506
  646ERGO    C1 9883  12.271  13.465   9.656  0.0118  0.5850 -0.1316
  646ERGO    C2 9884  12.299  13.509   9.304 -0.1059  0.2470 -0.0844
  647ERGO   ROH 9885   7.538  11.461  10.725  0.0070  0.0611  0.0285
  647ERGO    R1 9886   7.489  11.395  10.454  0.0341  0.0411  0.0287
  647ERGO    R2 9887   7.387  11.577  10.273  0.0825  0.0359 -0.0017
  647ERGO    R3 9888   7.607  11.507  10.129  0.0914 -0.0070  0.0322
  647ERGO    R4 9889   7.394  11.534   9.930  0.1334  0.0786 -0.0064
  647ERGO    R5 9890   7.522  11.361   9.959  0.0810  0.0372 -0.0028
  647ERGO    C1 9891   7.603  11.443   9.595  0.1714  0.0632  0.0228
  647ERGO    C2 9892   7.900  11.519   9.389 -0.3990 -0.1558  0.3024
  648ERGO   ROH 9893   3.014   0.847  10.904  0.3160  0.0279  0.0280
  648ERGO    R1 9894   3.093   0.991  10.673 -0.0196  0.1584 -0.0108
  648ERGO    R2 9895   3.183   0.867  10.444  0.3812  0.2985  0.0646
  648ERGO    R3 9896   2.987   1.014  10.326 -0.0077 -0.2768 -0.0488
  648ERGO    R4 9897   3.148   0.910  10.103  0.5205  0.2691  0.0454
  648ERGO    R5 9898   3.096   1.119  10.140 -0.1736  0.1208  0.0652
  648ERGO    C1 9899   2.943   1.073   9.793  0.2365 -0.2882 -0.0720
  648ERGO    C2 9900   2.940   0.968   9.542  0.2091  0.1060  0.1512
  649ERGO   ROH 9901   0.260   3.328  10.983  0.3408  0.1774  0.0733
  649ERGO    R1 9902   0.391   3.246  10.746  0.2803  0.1147  0.0620
  649ERGO    R2 9903   0.277   3.067  10.568  0.2441  0.0532  0.1496
  649ERGO    R3 9904   0.326   3.265  10.388  0.1802  0.0002  0.0726
  649ERGO    R4 9905   0.279   3.026  10.225  0.3685 -0.1096  0.1677
  649ERGO    R5 9906   0.452   3.158  10.215  0.2962 -0.0100  0.1590
  649ERGO    C1 9907   0.325   3.188   9.856  0.3810 -0.2541  0.1060
  649ERGO    C2 9908   0.263   3.078   9.589 -0.0752 -0.0077 -0.1515
  650ERGO   ROH 9909  16.314   2.821  10.856 -0.1606  0.0463 -0.0650
  650ERGO    R1 9910  16.194   2.831  10.599 -0.0443  0.1907 -0.1151
  650ERGO    R2 9911  16.317   2.951  10.383  0.1725  0.0834 -0.0548
  650ERGO    R3 9912  16.275   2.709  10.266 -0.0286  0.1341 -0.0907
  650ERGO    R4 9913  16.249   2.903  10.047  0.2693  0.1800 -0.0889
  650ERGO    R5 9914  16.103   2.751  10.104  0.0841  0.3256 -0.1638
  650ERGO    C1 9915  16.170   2.648   9.742  0.1370  0.2839 -0.1425
  650ERGO    C2 9916  16.146   2.739   9.475 -0.0153  0.0812 -0.1151
  651ERGO   ROH 9917  11.764  15.661  10.747  0.0384  0.2761  0.0459
  651ERGO    R1 9918  11.656  15.569  10.501 -0.0391  0.1891  0.1112
  651ERGO    R2 9919  11.540  15.739  10.317 -0.0501  0.1315  0.0642
  651ERGO    R3 9920  11.720  15.627  10.148 -0.1130  0.0217  0.0697
  651ERGO    R4 9921  11.503  15.721   9.974 -0.1506 -0.0353  0.0828
  651ERGO    R5 9922  11.585  15.520   9.981 -0.1760 -0.0441  0.1610
  651ERGO    C1 9923  11.651  15.605   9.615 -0.2681 -0.2355  0.0988
  651ERGO    C2 9924  11.668  15.637   9.307  0.2612  0.2622  0.0349
  652ERGO   ROH 9925   4.208   8.282  11.172  0.0545  0.1474 -0.1443
  652ERGO    R1 9926   4.141   8.329  10.901  0.1149  0.2056 -0.1500
  652ERGO    R2 9927   4.318   8.440  10.720  0.2668 -0.0503 -0.1662
  652ERGO    R3 9928   4.260   8.217  10.576 -0.0319  0.0049 -0.1360
  652ERGO    R4 9929   4.302   8.427  10.376  0.1199 -0.0520 -0.1595
  652ERGO    R5 9930   4.128   8.297  10.393 -0.0145  0.1390 -0.0882
  652ERGO    C1 9931   4.238   8.210  10.039 -0.2460 -0.0014 -0.1275
  652ERGO    C2 9932   4.145   8.292   9.735  0.0625  0.0414 -0.0930
  653ERGO   ROH 9933  15.566   5.349  10.816 -0.1106  0.1835  0.2272
  653ERGO    R1 9934  15.469   5.402  10.556 -0.0906  0.2077  0.2244
  653ERGO    R2 9935  15.535   5.631  10.415  0.1922  0.0664  0.1172
  653ERGO    R3 9936  15.612   5.453  10.225 -0.0810 -0.1201  0.1749
  653ERGO    R4 9937  15.514   5.683  10.074  0.2566 -0.0223  0.0997
  653ERGO    R5 9938  15.451   5.476  10.051 -0.0550  0.0614  0.1743
  653ERGO    C1 9939  15.575   5.546   9.697  0.0378 -0.2491  0.1436
  653ERGO    C2 9940  15.441   5.608   9.391  0.1242  0.1183  0.0281
  654ERGO   ROH 9941   2.012  10.349  11.252 -0.0551 -0.1799  0.1432
  654ERGO    R1 9942   2.038  10.173  11.032 -0.0913 -0.0779  0.0561
  654ERGO    R2 9943   1.841  10.144  10.841 -0.0650  0.1165 -0.0053
  654ERGO    R3 9944   2.044  10.202  10.669  0.0023  0.1114  0.0721
  654ERGO    R4 9945   1.827  10.103  10.498  0.0189  0.2520 -0.0255
  654ERGO    R5 9946   2.033  10.030  10.503 -0.0098  0.1798  0.0037
  654ERGO    C1 9947   2.010  10.134  10.137  0.1310  0.3261  0.0355
  654ERGO    C2 9948   1.952   9.992   9.755 -0.0772 -0.1449 -0.4358
  655ERGO   ROH 9949   7.335   4.592  11.198 -0.1375 -0.3283 -0.1633
  655ERGO    R1 9950   7.498   4.695  10.990 -0.0345 -0.2507 -0.0454
  655ERGO    R2 9951   7.532   4.562  10.749 -0.1128 -0.0436 -0.1684
  655ERGO    R3 9952   7.450   4.799  10.645  0.0872  0.1264  0.0454
  655ERGO    R4 9953   7.562   4.652  10.417 -0.3328  0.0824 -0.1561
  655ERGO    R5 9954   7.616   4.853  10.481  0.0011 -0.0134 -0.0984
  655ERGO    C1 9955   7.502   4.927  10.125 -0.2732  0.3152  0.0519
  655ERGO    C2 9956   7.576   5.058   9.799 -0.2750 -0.1085 -0.0369
  656ERGO   ROH 9957   3.304  11.432  10.810 -0.0631 -0.0773  0.0539
  656ERGO    R1 9958   3.374  11.482  10.540  0.0409 -0.1119  0.0739
  656ERGO    R2 9959   3.427  11.280  10.360 -0.1611 -0.1459  0.0486
  656ERGO    R3 9960   3.237  11.405  10.212  0.0046  0.1003  0.0380
  656ERGO    R4 9961   3.395  11.255  10.017 -0.2819 -0.2500  0.0669
  656ERGO    R5 9962   3.349  11.468  10.011  0.0626 -0.1732 -0.0176
  656ERGO    C1 9963   3.198  11.358   9.678 -0.1967 -0.0794  0.0676
  656ERGO    C2 9964   3.312  11.316   9.393 -0.0988  0.2612  0.2684
  657ERGO   ROH 9965  15.394  14.482  10.905  0.2100 -0.1625  0.0424
  657ERGO    R1 9966  15.497  14.398  10.655  0.0914 -0.0122 -0.0575
  657ERGO    R2 9967  15.379  14.198  10.505  0.0693  0.0264 -0.0775
  657ERGO    R3 9968  15.380  14.388  10.311 -0.1023  0.1129  0.0008
  657ERGO    R4 9969  15.340  14.136  10.167  0.2337  0.1051 -0.1132
  657ERGO    R5 9970  15.494  14.285  10.127  0.0768  0.3118 -0.0120
  657ERGO    C1 9971  15.319  14.279   9.788  0.1685  0.2321 -0.0604
  657ERGO    C2 9972  15.348  14.302   9.446 -0.1429 -0.1346 -0.0495
  658ERGO   ROH 9973   3.201   6.091  10.761 -0.0871  0.0830 -0.1041
  658ERGO    R1 9974   3.098   6.106  10.498 -0.0463 -0.0475 -0.1278
  658ERGO    R2 9975   3.208   6.269  10.304 -0.1437  0.0132 -0.1301
  658ERGO    R3 9976   3.220   6.038  10.162  0.0800 -0.0011 -0.0926
  658ERGO    R4 9977   3.199   6.249   9.959 -0.0711 -0.0465 -0.1289
  658ERGO    R5 9978   3.071   6.073   9.978  0.0761 -0.1576 -0.1224
  658ERGO    C1 9979   3.206   6.019   9.625  0.1812 -0.0947 -0.0930
  658ERGO    C2 9980   3.311   5.993   9.317  0.3038  0.2360  0.1319
  659ERGO   ROH 9981  16.340   4.701  10.883  0.3571  0.1463 -0.0243
  659ERGO    R1 9982  16.226   4.740  10.627  0.2119  0.0326  0.0210
  659ERGO    R2 9983  16.329   4.920  10.444 -0.0441  0.1421 -0.0229
  659ERGO    R3 9984  16.333   4.702  10.282  0.1127  0.1446 -0.0225
  659ERGO    R4 9985  16.270   4.926  10.104 -0.2083  0.0788  0.0041
  659ERGO    R5 9986  16.157   4.741  10.125 -0.0026 -0.0432  0.0585
  659ERGO    C1 9987  16.239   4.724   9.753 -0.1566  0.0443  0.0204
  659ERGO    C2 9988  16.301   4.633   9.454  0.2720  0.0024  0.3238
  660ERGO   ROH 9989   2.257   4.355  10.989 -0.0040  0.1780  0.1631
  660ERGO    R1 9990   2.166   4.388  10.723 -0.0769  0.0458  0.1712
  660ERGO    R2 9991   2.196   4.625  10.584 -0.1408 -0.0149  0.0558
  660ERGO    R3 9992   2.314   4.464  10.400 -0.1705 -0.0842  0.0962
  660ERGO    R4 9993   2.129   4.631  10.245 -0.0467  0.0047  0.0372
  660ERGO    R5 9994   2.140   4.413  10.244 -0.1562 -0.0028  0.0509
  660ERGO    C1 9995   2.202   4.484   9.874 -0.0198 -0.0489  0.0643
  660ERGO    C2 9996   2.134   4.535   9.534 -0.0778 -0.2806 -0.3390
  661ERGO   ROH 9997  16.825   0.245  11.001 -0.2738  0.2117 -0.0459
  661ERGO    R1 9998  16.912   0.179  10.739 -0.0612  0.2363  0.0176
  661ERGO    R2 9999  16.773   0.005  10.576  0.1390  0.1588 -0.0640
  661ERGO    R310000  16.781   0.213  10.401  0.1563  0.1470 -0.0791
  661ERGO    R410001  16.751  -0.025  10.232 -0.0525  0.1417 -0.0521
  661ERGO    R510002  16.905   0.129  10.214  0.0218  0.0666 -0.1387
  661ERGO    C110003  16.746   0.153   9.868 -0.1474  0.1206 -0.0594
  661ERGO    C210004  16.792   0.066   9.544  0.1977 -0.3108  0.2648
  662ERGO   ROH10005   2.790   7.705  11.129 -0.1017 -0.1790 -0.2091
  662ERGO    R110006   2.682   7.740  10.870 -0.0780 -0.3887 -0.2491
  662ERGO    R210007   2.734   7.963  10.715 -0.5689 -0.2034 -0.1657
  662ERGO    R310008   2.811   7.778  10.532 -0.0096  0.0250 -0.1807
  662ERGO    R410009   2.708   8.002  10.373 -0.5763 -0.2151 -0.1667
  662ERGO    R510010   2.646   7.794  10.359 -0.0113 -0.3934 -0.2241
  662ERGO    C110011   2.765   7.851  10.001 -0.0556 -0.0076 -0.1815
  662ERGO    C210012   2.676   7.858   9.619 -0.1117  0.1827  0.0651
  663ERGO   ROH10013   3.182  14.214  11.016  0.1622  0.0403  0.1002
  663ERGO    R110014   3.273  14.145  10.757  0.0577 -0.1904  0.1217
  663ERGO    R210015   3.164  13.938  10.610 -0.2873 -0.0555  0.1803
  663ERGO    R310016   3.132  14.132  10.422  0.0409 -0.0527  0.1224
  663ERGO    R410017   3.157  13.883  10.269 -0.4106 -0.1562  0.1981
  663ERGO    R510018   3.276  14.064  10.243 -0.0869 -0.3671  0.1313
  663ERGO    C110019   3.124  14.033   9.894 -0.1743 -0.2122  0.1542
  663ERGO    C210020   3.070  14.157   9.602  0.2061 -0.1603  0.0164
  664ERGO   ROH10021  16.122  13.467  10.836 -0.1066 -0.1301 -0.0558
  664ERGO    R110022  16.053  13.530  10.569 -0.0934 -0.1450 -0.0632
  664ERGO    R210023  16.241  13.560  10.369 -0.0781 -0.1044 -0.0462
  664ERGO    R310024  16.089  13.374  10.242 -0.0261 -0.1384 -0.0583
  664ERGO    R410025  16.185  13.548  10.028 -0.0677 -0.1079 -0.0474
  664ERGO    R510026  15.978  13.495  10.069 -0.0528 -0.1630 -0.0559
  664ERGO    C110027  16.009  13.366   9.711 -0.0127 -0.1418 -0.0595
  664ERGO    C210028  16.144  13.447   9.396  0.0756 -0.0401  0.0722
  665ERGO   ROH10029   0.560  16.460  11.203 -0.1205  0.0524  0.0076
  665ERGO    R110030   0.669  16.403  10.948 -0.0465  0.1889  0.0087
  665ERGO    R210031   0.563  16.209  10.781  0.0846  0.1882 -0.0670
  665ERGO    R310032   0.554  16.415  10.603  0.0095  0.2360 -0.0099
  665ERGO    R410033   0.555  16.173  10.438  0.0139  0.2711 -0.0751
  665ERGO    R510034   0.691  16.342  10.421 -0.0155  0.3029 -0.0606
  665ERGO    C110035   0.541  16.344  10.071 -0.0978  0.3645 -0.0262
  665ERGO    C210036   0.488  16.338   9.791  0.0045 -0.1120  0.1330
  666ERGO   ROH10037  14.578  10.399  11.015  0.3870  0.2045 -0.0019
  666ERGO    R110038  14.697  10.475  10.769  0.3487 -0.0408 -0.0991
  666ERGO    R210039  14.783  10.291  10.582 -0.1031 -0.2279 -0.1338
  666ERGO    R310040  14.622  10.433  10.415  0.0215  0.0281 -0.0423
  666ERGO    R410041  14.795  10.277  10.237 -0.2614 -0.1910 -0.1416
  666ERGO    R510042  14.764  10.493  10.232  0.0364 -0.1396 -0.0905
  666ERGO    C110043  14.650  10.403   9.880 -0.2366  0.0708 -0.0602
  666ERGO    C210044  14.692  10.447   9.597  0.2392 -0.0087 -0.0478
  667ERGO   ROH10045   4.601   6.839  10.988 -0.1102  0.1183  0.0534
  667ERGO    R110046   4.451   6.737  10.770 -0.3058  0.2049  0.1463
  667ERGO    R210047   4.290   6.897  10.613  0.0556  0.3923 -0.0351
  667ERGO    R310048   4.438   6.791  10.411 -0.1441 -0.1454  0.0812
  667ERGO    R410049   4.220   6.935  10.277  0.3036  0.4414 -0.0838
  667ERGO    R510050   4.276   6.726  10.247 -0.2807  0.2394  0.0454
  667ERGO    C110051   4.318   6.858   9.891  0.2607 -0.0348 -0.0032
  667ERGO    C210052   4.305   6.815   9.516  0.2381 -0.1631 -0.1372
  668ERGO   ROH10053   6.376  14.276  10.997  0.2948 -0.0289 -0.0216
  668ERGO    R110054   6.283  14.194  10.743  0.2823 -0.1135  0.0094
  668ERGO    R210055   6.052  14.295  10.629  0.1705 -0.2921  0.0683
  668ERGO    R310056   6.218  14.352  10.422  0.0706 -0.1783  0.0197
  668ERGO    R410057   5.954  14.321  10.299  0.0116 -0.0937  0.1301
  668ERGO    R510058   6.136  14.217  10.241 -0.0221 -0.0677 -0.0201
  668ERGO    C110059   6.052  14.390   9.912 -0.1747  0.1286  0.1205
  668ERGO    C210060   5.947  14.317   9.593  0.1222  0.0351  0.2193
  669ERGO   ROH10061   7.965   6.274  11.346 -0.0256  0.1754  0.0391
  669ERGO    R110062   8.045   6.306  11.077 -0.0700  0.1186  0.0200
  669ERGO    R210063   7.943   6.153  10.871 -0.0923  0.0689  0.0757
  669ERGO    R310064   7.886   6.395  10.762 -0.1212  0.0392  0.0211
  669ERGO    R410065   7.922   6.217  10.532  0.0381  0.0103  0.0550
  669ERGO    R510066   8.024   6.407  10.566 -0.0331  0.0523  0.0778
  669ERGO    C110067   7.856   6.483  10.232  0.0868 -0.0516 -0.0084
  669ERGO    C210068   7.897   6.525   9.835 -0.0980 -0.0205 -0.1507
  670ERGO   ROH10069  10.736  16.700  10.881  0.1168 -0.0453 -0.0260
  670ERGO    R110070  10.860  16.581  10.656  0.1080 -0.0401 -0.0346
  670ERGO    R210071  10.726  16.413  10.483  0.1300 -0.1309  0.0293
  670ERGO    R310072  10.815  16.587  10.295  0.0119 -0.1281 -0.0234
  670ERGO    R410073  10.796  16.330  10.155 -0.0047 -0.1344  0.0015
  670ERGO    R510074  10.971  16.460  10.165 -0.0261 -0.1042 -0.0879
  670ERGO    C110075  10.921  16.446   9.788 -0.1941 -0.1339 -0.0642
  670ERGO    C210076  10.996  16.350   9.467  0.1564  0.0708  0.1360
  671ERGO   ROH10077  16.867   3.998  10.837  0.0968 -0.0492 -0.0151
  671ERGO    R110078  17.001   3.967  10.590  0.1381 -0.2110  0.0253
  671ERGO    R210079  16.963   3.748  10.426 -0.1026 -0.1554 -0.0047
  671ERGO    R310080  16.907   3.938  10.240  0.2069 -0.0607 -0.0050
  671ERGO    R410081  16.965   3.697  10.084 -0.2274 -0.1649 -0.0041
  671ERGO    R510082  17.058   3.893  10.061  0.1091 -0.3263 -0.0195
  671ERGO    C110083  16.915   3.846   9.711 -0.0097 -0.0815 -0.0039
  671ERGO    C210084  16.959   3.983   9.283 -0.3546 -0.0758 -0.2804
  672ERGO   ROH10085   3.342  16.011  10.990 -0.1288  0.0487 -0.1169
  672ERGO    R110086   3.252  15.932  10.733 -0.0444 -0.0373 -0.1210
  672ERGO    R210087   3.146  16.110  10.551 -0.2140 -0.1368 -0.1228
  672ERGO    R310088   3.338  16.008  10.388 -0.1067  0.0509 -0.1173
  672ERGO    R410089   3.135  16.119  10.206 -0.2138 -0.1448 -0.1228
  672ERGO    R510090   3.215  15.916  10.204 -0.0131 -0.0692 -0.1214
  672ERGO    C110091   3.309  16.028   9.851 -0.1129  0.0268 -0.1175
  672ERGO    C210092   3.165  16.061   9.587 -0.2733 -0.0670  0.4070
  673ERGO   ROH10093   6.228  13.752  10.976  0.0637 -0.0343 -0.0250
  673ERGO    R110094   6.074  13.689  10.748 -0.0026 -0.0104  0.0110
  673ERGO    R210095   5.934  13.881  10.606 -0.0383  0.0124  0.0581
  673ERGO    R310096   6.074  13.781  10.395 -0.0899  0.0209  0.0219
  673ERGO    R410097   5.845  13.919  10.274 -0.0800  0.0486  0.0745
  673ERGO    R510098   5.905  13.712  10.240 -0.1122  0.0559  0.0424
  673ERGO    C110099   5.924  13.847   9.883 -0.1528  0.0777  0.0502
  673ERGO    C210100   5.809  13.863   9.450 -0.2094  0.0260 -0.0431
  674loPI    C110101  11.343  10.881   5.912 -0.1060  0.1029 -0.1601
  674loPI    C210102  11.078  10.702   5.673 -0.2443  0.2162 -0.0931
  674loPI    C310103  11.193  11.078   5.598 -0.0338  0.1370 -0.1735
  674loPI   PO410104  11.274  10.776   6.142  0.0440 -0.1252 -0.1224
  674loPI   GL110105  11.098  10.570   6.409 -0.1236 -0.1010 -0.2593
  674loPI   GL210106  10.729  10.493   6.422 -0.0147  0.0265  0.1726
  674loPI   C1A10107  11.024  10.541   6.818 -0.5229 -0.0269 -0.2114
  674loPI   C2A10108  10.976  10.531   7.168 -0.0798  0.1483 -0.2251
  674loPI   C3A10109  10.891  10.598   7.561 -0.0624 -0.3534 -0.0684
  674loPI   C4A10110  11.092  10.770   7.852 -0.1178 -0.1162  0.1011
  674loPI   C5A10111  11.050  10.643   8.267  0.0714  0.0423 -0.1316
  674loPI   C6A10112  10.952  10.816   8.682 -0.0188 -0.1323  0.0948
  674loPI   C1B10113  10.532  10.388   6.848  0.1656  0.0846 -0.1757
  674loPI   C2B10114  10.523  10.394   7.310  0.2296  0.1056 -0.0328
  674loPI   C3B10115  10.450  10.332   7.775 -0.0540 -0.1774 -0.1874
  674loPI   C4B10116  10.526  10.355   8.162 -0.1288  0.3313  0.1059
  675loPI    C110117  11.799   3.982   5.905 -0.0356 -0.2354  0.0630
  675loPI    C210118  11.737   4.126   5.537  0.2690  0.1226  0.1460
  675loPI    C310119  12.028   3.859   5.601  0.1073 -0.0666  0.1006
  675loPI   PO410120  11.854   4.104   6.050 -0.1148 -0.1592 -0.0975
  675loPI   GL110121  11.891   4.145   6.505 -0.1967  0.3252  0.0160
  675loPI   GL210122  11.842   3.860   6.476 -0.0624  0.1643  0.0164
  675loPI   C1A10123  11.840   4.225   6.905 -0.3124  0.0457  0.1176
  675loPI   C2A10124  11.883   4.368   7.333  0.1226  0.1587 -0.5067
  675loPI   C3A10125  11.876   4.335   7.740 -0.2363  0.2359  0.1294
  675loPI   C4A10126  11.877   4.382   8.223  0.3562 -0.2868  0.0931
  675loPI   C5A10127  11.866   4.196   8.635  0.1874 -0.1475 -0.0813
  675loPI   C6A10128  11.975   3.769   8.604 -0.0331  0.0571  0.1311
  675loPI   C1B10129  11.875   3.706   6.872 -0.1201  0.0482  0.2370
  675loPI   C2B10130  11.879   3.858   7.294  0.1865  0.1199 -0.0643
  675loPI   C3B10131  11.896   3.823   7.727  0.1583 -0.0952 -0.1313
  675loPI   C4B10132  11.915   3.898   8.140 -0.1054 -0.1579 -0.2873
  676loPI    C110133   0.473   0.224   5.985 -0.1058  0.1861 -0.2275
  676loPI    C210134   0.210   0.524   5.956  0.0157  0.3132 -0.0384
  676loPI    C310135   0.444   0.431   5.644 -0.2117  0.2359 -0.1883
  676loPI   PO410136   0.541   0.259   6.298 -0.1493 -0.1742 -0.1932
  676loPI   GL110137   0.388   0.359   6.655 -0.0451 -0.1996 -0.1723
  676loPI   GL210138   0.598   0.587   6.774  0.0871  0.4645 -0.0560
  676loPI   C1A10139   0.227   0.399   7.073  0.2273 -0.1389 -0.0554
  676loPI   C2A10140   0.203   0.336   7.526 -0.0998 -0.1583 -0.0054
  676loPI   C3A10141   0.315   0.453   8.019 -0.3092 -0.1089 -0.1542
  676loPI   C4A10142   0.241   0.462   8.462 -0.0004 -0.1907 -0.2792
  676loPI   C5A10143  -0.142   0.347   8.666 -0.1810 -0.1039  0.0835
  676loPI   C6A10144  -0.507   0.148   8.911  0.0893 -0.1792  0.2330
  676loPI   C1B10145   0.698   0.534   7.215  0.2373 -0.2206  0.1109
  676loPI   C2B10146   0.717   0.607   7.597  0.1320  0.2418 -0.3735
  676loPI   C3B10147   0.752   0.682   8.003 -0.1264 -0.0386 -0.1284
  676loPI   C4B10148   0.696   0.587   8.415  0.0138 -0.0157  0.1238
  677loPI    C110149   0.368   0.974   5.828 -0.0355 -0.0378 -0.1686
  677loPI    C210150   0.754   0.931   5.733 -0.0591 -0.3414 -0.1366
  677loPI    C310151   0.535   1.214   5.555  0.1790 -0.1613 -0.1486
  677loPI   PO410152   0.244   1.045   6.041  0.0883 -0.0883  0.0456
  677loPI   GL110153   0.076   0.754   6.376 -0.0857 -0.0219 -0.2493
  677loPI   GL210154   0.264   1.034   6.531  0.1706 -0.1510 -0.0230
  677loPI   C1A10155  -0.094   0.690   6.747 -0.0006  0.1147  0.2644
  677loPI   C2A10156  -0.147   0.689   7.212  0.0679  0.0706 -0.0984
  677loPI   C3A10157  -0.148   0.663   7.672 -0.3115 -0.2136 -0.0556
  677loPI   C4A10158  -0.207   0.676   8.066  0.1481  0.3392 -0.1117
  677loPI   C5A10159  -0.298   0.843   8.422  0.0656 -0.0119 -0.0482
  677loPI   C6A10160  -0.056   0.861   8.675 -0.1791 -0.1411  0.0937
  677loPI   C1B10161   0.311   0.942   7.057 -0.1349  0.0542  0.3051
  677loPI   C2B10162   0.311   0.982   7.589 -0.0774 -0.0690  0.1017
  677loPI   C3B10163   0.269   0.944   8.042  0.0577  0.1610 -0.1227
  677loPI   C4B10164   0.377   0.977   8.487 -0.0965 -0.0265  0.2171
  678loPI    C110165  16.840   9.971   6.057 -0.1500  0.0064  0.0212
  678loPI    C210166  16.622   9.639   6.012 -0.2603  0.0919 -0.0792
  678loPI    C310167  16.677   9.886   5.702 -0.1727  0.1637 -0.0068
  678loPI   PO410168  17.002   9.956   6.250 -0.1676  0.1972  0.4430
  678loPI   GL110169  17.147   9.785   6.524  0.0036 -0.0995  0.1574
  678loPI   GL210170  16.864   9.588   6.545 -0.1857 -0.0673 -0.0349
  678loPI   C1A10171  17.298   9.612   6.952 -0.0812 -0.0466  0.0472
  678loPI   C2A10172  17.355   9.685   7.414 -0.0202  0.0626 -0.2364
  678loPI   C3A10173  17.295   9.742   7.855 -0.1007  0.2527 -0.0670
  678loPI   C4A10174  17.485   9.790   8.249 -0.2523  0.3466  0.0656
  678loPI   C5A10175  17.732  10.009   8.597  0.1105 -0.2087 -0.0276
  678loPI   C6A10176  17.820  10.254   8.915 -0.2496 -0.1991  0.0471
  678loPI   C1B10177  16.852   9.891   6.896 -0.2589  0.3541 -0.1117
  678loPI   C2B10178  16.942   9.934   7.372 -0.2261  0.2036 -0.1530
  678loPI   C3B10179  16.840  10.017   7.789 -0.1181 -0.1606 -0.1864
  678loPI   C4B10180  16.992   9.957   8.192 -0.1139 -0.0588  0.0291
  679loPI    C110181   6.723  15.174   5.616  0.0570 -0.3883 -0.0260
  679loPI    C210182   6.688  15.030   5.244  0.0811 -0.1756 -0.1116
  679loPI    C310183   6.561  15.400   5.328 -0.0273 -0.2636  0.1183
  679loPI   PO410184   6.606  15.004   5.831  0.0965  0.0450 -0.0315
  679loPI   GL110185   6.737  15.041   6.317  0.1617 -0.3045 -0.3022
  679loPI   GL210186   6.544  14.743   6.303 -0.0187 -0.0657  0.3230
  679loPI   C1A10187   6.516  15.256   6.648  0.0679  0.1012 -0.1864
  679loPI   C2A10188   6.542  15.313   7.171  0.1671  0.0749 -0.2185
  679loPI   C3A10189   6.579  15.349   7.600 -0.1079  0.0191  0.0492
  679loPI   C4A10190   6.686  15.396   8.023  0.4356 -0.0577 -0.1866
  679loPI   C5A10191   6.874  15.590   8.393 -0.0128 -0.0327 -0.3269
  679loPI   C6A10192   7.260  15.743   8.545 -0.0691 -0.1525 -0.0567
  679loPI   C1B10193   6.555  14.763   6.757 -0.0824 -0.0893  0.0632
  679loPI   C2B10194   6.594  14.767   7.191 -0.0213 -0.2675 -0.1458
  679loPI   C3B10195   6.640  14.823   7.600  0.0045 -0.3057  0.2748
  679loPI   C4B10196   6.584  14.902   7.933  0.0695 -0.0376  0.2452
  680loPI    C110197  11.621   5.767   5.884 -0.0628 -0.0691  0.1157
  680loPI    C210198  11.307   5.762   5.637  0.0320  0.1782 -0.0144
  680loPI    C310199  11.612   5.510   5.578 -0.0032  0.1488 -0.0718
  680loPI   PO410200  11.480   5.811   6.118 -0.0107 -0.3749  0.0524
  680loPI   GL110201  11.385   5.563   6.535 -0.1358  0.3205  0.2322
  680loPI   GL210202  11.614   5.304   6.494 -0.1391 -0.1623 -0.0898
  680loPI   C1A10203  11.360   5.606   7.021  0.1299  0.0832 -0.0228
  680loPI   C2A10204  11.418   5.688   7.525 -0.3532  0.1765 -0.0176
  680loPI   C3A10205  11.403   5.722   8.032 -0.3552 -0.1865 -0.4548
  680loPI   C4A10206  11.449   5.775   8.395 -0.0296 -0.2937  0.0400
  680loPI   C5A10207  11.659   6.194   8.706 -0.0174  0.1567 -0.0784
  680loPI   C6A10208  11.736   6.336   9.171 -0.1177  0.0041  0.1104
  680loPI   C1B10209  11.789   5.390   6.875  0.0917 -0.0084  0.0500
  680loPI   C2B10210  11.787   5.454   7.227  0.3665 -0.0701 -0.0451
  680loPI   C3B10211  11.888   5.339   7.652  0.0564  0.1003 -0.0725
  680loPI   C4B10212  11.878   5.496   8.076  0.0636  0.0473  0.2047
  681loPI    C110213   4.532  11.666   5.767 -0.1639  0.0826 -0.0368
  681loPI    C210214   4.239  11.834   5.554 -0.1423  0.2722  0.0810
  681loPI    C310215   4.535  11.641   5.368 -0.2410  0.2440 -0.0483
  681loPI   PO410216   4.411  11.581   6.003  0.3837  0.0331  0.0045
  681loPI   GL110217   4.500  11.720   6.426 -0.3664  0.0761 -0.0418
  681loPI   GL210218   4.638  11.359   6.414 -0.0107  0.1196 -0.1161
  681loPI   C1A10219   4.348  11.919   6.797  0.1108 -0.2781  0.0442
  681loPI   C2A10220   4.436  12.003   7.200  0.0985  0.0271  0.1871
  681loPI   C3A10221   4.435  11.975   7.587  0.0422  0.2498 -0.0394
  681loPI   C4A10222   4.463  11.944   7.964  0.2311  0.1250  0.1629
  681loPI   C5A10223   4.391  12.087   8.379  0.3326  0.1080 -0.1147
  681loPI   C6A10224   3.992  12.151   8.497 -0.0817  0.2346  0.0660
  681loPI   C1B10225   4.484  11.406   6.882  0.3339 -0.2840  0.2739
  681loPI   C2B10226   4.441  11.503   7.270  0.2785  0.2025 -0.0702
  681loPI   C3B10227   4.431  11.490   7.764 -0.3173 -0.3102  0.2661
  681loPI   C4B10228   4.516  11.464   8.192  0.0120  0.3337 -0.2722
  682loPI    C110229   3.466   6.704   5.924 -0.0106  0.0387  0.1504
  682loPI    C210230   3.489   6.870   5.561 -0.1132 -0.2591  0.0039
  682loPI    C310231   3.137   6.849   5.749 -0.0725 -0.1694  0.0915
  682loPI   PO410232   3.578   6.850   6.116 -0.1533  0.1394  0.3020
  682loPI   GL110233   3.547   7.023   6.527 -0.0782  0.1055  0.2646
  682loPI   GL210234   3.302   6.931   6.698 -0.0375  0.1735 -0.3474
  682loPI   C1A10235   3.670   7.261   6.942  0.1184  0.2001 -0.1584
  682loPI   C2A10236   3.640   7.292   7.415  0.0272  0.0240  0.0715
  682loPI   C3A10237   3.788   7.261   7.824  0.2415 -0.3220  0.2130
  682loPI   C4A10238   3.728   7.313   8.375 -0.2810 -0.0369 -0.0116
  682loPI   C5A10239   3.867   7.478   8.702 -0.1763 -0.4692 -0.0969
  682loPI   C6A10240   3.781   7.405   9.191 -0.0522 -0.1700  0.1254
  682loPI   C1B10241   3.270   6.990   7.158  0.1308  0.0433 -0.3240
  682loPI   C2B10242   3.273   7.037   7.596  0.0688  0.2934  0.0596
  682loPI   C3B10243   3.254   7.038   8.063 -0.2546 -0.0536  0.0543
  682loPI   C4B10244   3.287   7.130   8.531  0.0951 -0.3054 -0.0100
  683loPI    C110245  10.097  14.606   5.816 -0.1007  0.0491  0.2451
  683loPI    C210246   9.755  14.499   5.993 -0.1651 -0.2020 -0.0224
  683loPI    C310247   9.805  14.437   5.602  0.1695 -0.1217  0.0044
  683loPI   PO410248  10.211  14.795   5.967 -0.2615  0.1207 -0.2626
  683loPI   GL110249  10.076  14.861   6.390 -0.0356  0.2049  0.3762
  683loPI   GL210250   9.773  15.008   6.270  0.0577  0.1254 -0.1141
  683loPI   C1A10251  10.110  14.770   6.859  0.2220 -0.0974 -0.0498
  683loPI   C2A10252  10.176  14.839   7.274 -0.0147  0.0757 -0.0215
  683loPI   C3A10253  10.198  14.877   7.653 -0.0215 -0.2087  0.0119
  683loPI   C4A10254  10.269  14.909   8.099  0.5275 -0.0850  0.0613
  683loPI   C5A10255  10.148  15.061   8.523  0.0355 -0.2012 -0.2354
  683loPI   C6A10256  10.127  15.214   8.965 -0.1036  0.2938  0.0325
  683loPI   C1B10257   9.624  15.108   6.678 -0.0210 -0.3841 -0.0551
  683loPI   C2B10258   9.719  15.071   7.152 -0.1498 -0.2679 -0.2484
  683loPI   C3B10259   9.668  15.160   7.499 -0.1559 -0.0592  0.0797
  683loPI   C4B10260   9.799  15.148   7.947  0.1340 -0.0209  0.2099
  684loPI    C110261   4.187   1.420   6.012  0.0605 -0.0164 -0.1280
  684loPI    C210262   4.178   1.772   5.822  0.1511  0.0422 -0.0252
  684loPI    C310263   3.861   1.529   5.808  0.0791  0.1385 -0.0764
  684loPI   PO410264   4.257   1.320   6.239  0.1694 -0.2134 -0.3472
  684loPI   GL110265   4.275   1.303   6.692  0.1076 -0.4919  0.1396
  684loPI   GL210266   4.344   1.638   6.730 -0.0099 -0.0578 -0.1856
  684loPI   C1A10267   4.631   1.166   6.937 -0.0914 -0.2951  0.2755
  684loPI   C2A10268   4.682   1.167   7.389 -0.0450  0.0931 -0.2623
  684loPI   C3A10269   4.763   1.061   7.848 -0.2066  0.0858  0.0254
  684loPI   C4A10270   4.791   1.225   8.301  0.0619  0.1023  0.2882
  684loPI   C5A10271   4.710   1.361   8.638 -0.0963 -0.0023  0.0000
  684loPI   C6A10272   4.205   1.509   8.863 -0.1541 -0.0952  0.0315
  684loPI   C1B10273   4.296   1.518   7.149 -0.0699  0.2327  0.4418
  684loPI   C2B10274   4.341   1.618   7.529 -0.0634  0.0874  0.2216
  684loPI   C3B10275   4.450   1.916   7.925 -0.0520  0.3492  0.1203
  684loPI   C4B10276   4.772   1.742   8.242 -0.0358  0.0076  0.1175
  685loPI    C110277  12.395  12.256   5.810 -0.0687  0.0775 -0.0806
  685loPI    C210278  12.620  12.015   5.583 -0.3278 -0.0901 -0.1645
  685loPI    C310279  12.487  12.361   5.435 -0.2110 -0.0377 -0.1488
  685loPI   PO410280  12.489  12.345   6.021 -0.0521 -0.0789  0.0775
  685loPI   GL110281  12.490  12.454   6.394 -0.2214  0.0151  0.0317
  685loPI   GL210282  12.632  12.163   6.475 -0.2522 -0.0274  0.2787
  685loPI   C1A10283  12.352  12.520   6.761  0.1607 -0.0484  0.2849
  685loPI   C2A10284  12.372  12.464   7.173  0.0596  0.0122  0.1894
  685loPI   C3A10285  12.359  12.512   7.613 -0.2839  0.0798 -0.0440
  685loPI   C4A10286  12.378  12.534   7.992 -0.0294 -0.3254  0.1714
  685loPI   C5A10287  12.387  12.382   8.440  0.1855  0.2196  0.0560
  685loPI   C6A10288  12.619  12.090   8.712  0.0406  0.2919  0.2143
  685loPI   C1B10289  12.788  12.222   6.953 -0.3298  0.2468  0.0561
  685loPI   C2B10290  12.741  12.201   7.356 -0.0008  0.3677  0.0420
  685loPI   C3B10291  12.856  12.281   7.780  0.1717 -0.0011 -0.2472
  685loPI   C4B10292  12.860  12.222   8.178  0.1027 -0.1806  0.1428
  686loPI    C110293   7.336   3.533   6.172  0.0760 -0.4182  0.1588
  686loPI    C210294   6.980   3.360   6.235 -0.0838 -0.1827 -0.0766
  686loPI    C310295   7.139   3.364   5.868 -0.0976  0.1919 -0.0830
  686loPI   PO410296   7.370   3.685   6.239 -0.3840 -0.0212 -0.1157
  686loPI   GL110297   7.459   3.817   6.599 -0.1430 -0.0906  0.0519
  686loPI   GL210298   7.816   3.937   6.707  0.0911  0.1549  0.0190
  686loPI   C1A10299   7.439   3.682   7.040  0.0019 -0.1412 -0.2900
  686loPI   C2A10300   7.471   3.700   7.473 -0.1659 -0.0243  0.0416
  686loPI   C3A10301   7.394   3.811   7.948 -0.1762  0.1766  0.0708
  686loPI   C4A10302   7.459   3.884   8.368  0.0466  0.0316  0.4429
  686loPI   C5A10303   7.628   3.947   8.795 -0.3333  0.0872 -0.2012
  686loPI   C6A10304   7.916   4.241   8.945  0.1153  0.2265 -0.0238
  686loPI   C1B10305   7.877   4.021   7.053  0.1404  0.0332 -0.3138
  686loPI   C2B10306   7.878   4.009   7.461  0.2892  0.0251 -0.4439
  686loPI   C3B10307   7.849   4.040   7.975 -0.0797  0.2720 -0.1509
  686loPI   C4B10308   7.894   4.098   8.378 -0.0408 -0.1669 -0.0307
  687loPI    C110309   6.631  13.500   5.816  0.1746 -0.1459  0.1361
  687loPI    C210310   6.668  13.386   5.435 -0.2501 -0.1169  0.0814
  687loPI    C310311   6.522  13.748   5.522  0.1727  0.0149  0.2707
  687loPI   PO410312   6.826  13.384   5.911 -0.1221  0.0357 -0.4914
  687loPI   GL110313   6.870  13.373   6.374 -0.0388  0.1258 -0.1050
  687loPI   GL210314   6.718  13.678   6.439 -0.1118 -0.1498  0.0989
  687loPI   C1A10315   6.655  13.253   6.781 -0.2187 -0.1974  0.0818
  687loPI   C2A10316   6.603  13.254   7.198 -0.1916  0.0402  0.0382
  687loPI   C3A10317   6.621  13.272   7.590 -0.2218  0.3527 -0.0375
  687loPI   C4A10318   6.612  13.313   8.084  0.3518 -0.1741 -0.0146
  687loPI   C5A10319   6.665  13.266   8.484  0.0234  0.0531 -0.1708
  687loPI   C6A10320   6.522  13.107   8.819  0.1344  0.0161  0.0939
  687loPI   C1B10321   6.679  13.751   6.760 -0.1498  0.0580 -0.1481
  687loPI   C2B10322   6.555  13.810   7.137 -0.0726 -0.0934  0.0762
  687loPI   C3B10323   6.649  13.783   7.555  0.1846  0.1299  0.0127
  687loPI   C4B10324   6.637  13.818   8.012 -0.0605 -0.1452 -0.0003
  688loPI    C110325  14.501   0.365   5.859 -0.1216  0.0315 -0.0053
  688loPI    C210326  14.451  -0.022   5.946  0.0159 -0.0031 -0.0782
  688loPI    C310327  14.182   0.169   5.720  0.0076 -0.0863 -0.1392
  688loPI   PO410328  14.539   0.467   6.053 -0.1908 -0.0860 -0.2016
  688loPI   GL110329  14.730   0.224   6.398 -0.2191  0.0765 -0.2293
  688loPI   GL210330  14.988   0.440   6.362  0.0261  0.1718 -0.0125
  688loPI   C1A10331  14.522   0.089   6.817 -0.0553 -0.3977 -0.0185
  688loPI   C2A10332  14.594   0.172   7.296  0.2347 -0.0138 -0.0665
  688loPI   C3A10333  14.467   0.069   7.745  0.2073 -0.1536 -0.2763
  688loPI   C4A10334  14.617   0.148   8.101  0.0306 -0.2581  0.0066
  688loPI   C5A10335  14.678   0.265   8.444 -0.0077 -0.1190 -0.1476
  688loPI   C6A10336  14.718   0.678   8.573 -0.0854 -0.0918  0.1120
  688loPI   C1B10337  14.995   0.400   6.774  0.1280 -0.1174  0.1122
  688loPI   C2B10338  15.055   0.429   7.213 -0.0039 -0.0532 -0.0059
  688loPI   C3B10339  14.928   0.381   7.717 -0.0309  0.1143  0.1168
  688loPI   C4B10340  14.998   0.472   8.180 -0.1301 -0.0274  0.2310
  689loPI    C110341  16.218   9.238   6.089 -0.2066  0.1803  0.0785
  689loPI    C210342  16.101   9.474   5.788 -0.1085 -0.1284 -0.2086
  689loPI    C310343  15.978   9.094   5.803 -0.0954 -0.1220  0.1340
  689loPI   PO410344  16.240   9.304   6.273  0.0635 -0.0698 -0.1942
  689loPI   GL110345  16.348   9.586   6.566 -0.0298  0.1070 -0.0082
  689loPI   GL210346  16.453   9.930   6.519 -0.0727  0.2809  0.0920
  689loPI   C1A10347  16.385   9.595   6.954 -0.2451  0.1445 -0.1808
  689loPI   C2A10348  16.434   9.661   7.303  0.0445 -0.1820  0.1967
  689loPI   C3A10349  16.450   9.697   7.738  0.4151  0.0027  0.1874
  689loPI   C4A10350  16.406   9.772   8.185 -0.1284 -0.2042 -0.2753
  689loPI   C5A10351  16.550   9.812   8.640 -0.1783  0.0577  0.0704
  689loPI   C6A10352  16.363   9.782   9.005  0.1843 -0.2993  0.0337
  689loPI   C1B10353  16.406  10.112   6.893 -0.2598  0.3507 -0.0256
  689loPI   C2B10354  16.393  10.173   7.342  0.1164 -0.1118 -0.1115
  689loPI   C3B10355  16.347  10.239   7.813  0.2128  0.2755  0.1561
  689loPI   C4B10356  16.555  10.233   8.244  0.1533 -0.1142 -0.1461
  690loPI    C110357  10.478   5.813   6.113 -0.0793  0.1665  0.0871
  690loPI    C210358  10.184   5.649   6.329  0.0714 -0.1720  0.0428
  690loPI    C310359  10.217   5.564   5.939  0.0281  0.1344 -0.0304
  690loPI   PO410360  10.507   6.012   6.187  0.1077 -0.0785  0.0038
  690loPI   GL110361  10.267   6.198   6.490 -0.1341  0.2123  0.0688
  690loPI   GL210362  10.521   6.422   6.579 -0.0054 -0.0177  0.3163
  690loPI   C1A10363  10.452   6.079   6.908  0.1330  0.1136 -0.0757
  690loPI   C2A10364  10.523   6.188   7.363  0.1580  0.1679 -0.0788
  690loPI   C3A10365  10.506   6.231   7.847 -0.1289 -0.1164 -0.0857
  690loPI   C4A10366  10.496   6.192   8.278 -0.1951 -0.0470 -0.2118
  690loPI   C5A10367  10.662   6.037   8.670  0.1032  0.0212 -0.0824
  690loPI   C6A10368  10.624   5.688   9.060  0.0501 -0.0197 -0.0453
  690loPI   C1B10369  10.502   6.590   7.047  0.0482 -0.0933  0.0394
  690loPI   C2B10370  10.559   6.775   7.369  0.0806 -0.0726  0.0091
  690loPI   C3B10371  10.492   6.766   7.770  0.3325 -0.0828  0.3555
  690loPI   C4B10372  10.504   6.794   8.220 -0.0585 -0.1146 -0.0474
  691loPI    C110373   3.227   2.867   5.767 -0.3662 -0.1371  0.0948
  691loPI    C210374   3.201   3.188   5.531  0.0471  0.0056  0.2340
  691loPI    C310375   3.209   2.822   5.370 -0.1635  0.0745  0.0597
  691loPI   PO410376   3.127   2.916   6.032 -0.0039 -0.0409 -0.1541
  691loPI   GL110377   2.880   2.727   6.406 -0.0730  0.2537 -0.4658
  691loPI   GL210378   3.199   2.627   6.414  0.1321 -0.2061  0.1912
  691loPI   C1A10379   2.671   2.778   6.761 -0.0133 -0.0196  0.0609
  691loPI   C2A10380   2.596   2.815   7.157 -0.0497  0.0585 -0.0024
  691loPI   C3A10381   2.592   2.859   7.582  0.0292  0.0784  0.0274
  691loPI   C4A10382   2.548   2.807   8.018 -0.4671 -0.1689 -0.0655
  691loPI   C5A10383   2.521   2.961   8.401 -0.0674  0.2314 -0.3374
  691loPI   C6A10384   2.507   3.025   8.874 -0.0893 -0.0932  0.1308
  691loPI   C1B10385   3.102   2.578   6.863 -0.1319 -0.0820  0.2668
  691loPI   C2B10386   3.007   2.600   7.332 -0.1992 -0.0412  0.1138
  691loPI   C3B10387   2.984   2.544   7.790 -0.0668 -0.0043 -0.2701
  691loPI   C4B10388   3.047   2.563   8.217  0.0956 -0.0108  0.3101
  692loPI    C110389  13.732   1.065   5.799 -0.2085  0.0072 -0.0257
  692loPI    C210390  13.578   0.773   6.026 -0.2672  0.0112 -0.0600
  692loPI    C310391  13.585   0.735   5.628  0.1537 -0.1497 -0.0429
  692loPI   PO410392  13.732   1.272   6.078  0.1748 -0.1964  0.1285
  692loPI   GL110393  13.569   1.244   6.443 -0.0442 -0.3437 -0.0018
  692loPI   GL210394  13.438   0.997   6.472 -0.0670 -0.2936 -0.0281
  692loPI   C1A10395  13.561   1.161   6.890  0.1515  0.3007 -0.0101
  692loPI   C2A10396  13.718   1.177   7.290 -0.1790  0.1692  0.0330
  692loPI   C3A10397  13.672   1.133   7.749  0.0987  0.1511 -0.1091
  692loPI   C4A10398  13.645   1.223   8.103  0.1062 -0.0004 -0.0544
  692loPI   C5A10399  13.452   1.205   8.566 -0.0279  0.4372 -0.1017
  692loPI   C6A10400  13.296   1.146   8.942 -0.1847 -0.0808  0.2221
  692loPI   C1B10401  13.175   0.874   6.697 -0.0452  0.1840 -0.0530
  692loPI   C2B10402  13.142   0.930   7.125 -0.0311  0.0500 -0.2501
  692loPI   C3B10403  13.294   0.925   7.524 -0.0993 -0.0022  0.1914
  692loPI   C4B10404  13.267   0.942   7.970  0.1136  0.2134 -0.0073
  693loPI    C110405  11.231  14.518   5.606  0.1402 -0.5342 -0.0398
  693loPI    C210406  10.978  14.322   5.366 -0.1862  0.0530 -0.1956
  693loPI    C310407  11.280  14.532   5.210 -0.0747 -0.0021 -0.0564
  693loPI   PO410408  11.046  14.562   5.799 -0.3340 -0.1054 -0.2155
  693loPI   GL110409  10.945  14.323   6.256  0.0884 -0.1823 -0.2563
  693loPI   GL210410  10.966  14.165   6.220 -0.0409  0.0601 -0.1328
  693loPI   C1A10411  11.117  14.233   6.739  0.0427 -0.1047  0.0473
  693loPI   C2A10412  11.113  14.213   7.092 -0.1154 -0.2213 -0.0673
  693loPI   C3A10413  11.024  14.330   7.479  0.0418 -0.0821  0.0208
  693loPI   C4A10414  11.029  14.315   7.899  0.1731  0.0671 -0.0501
  693loPI   C5A10415  11.147  14.436   8.271 -0.1970 -0.1554  0.1003
  693loPI   C6A10416  11.173  14.842   8.532 -0.0728 -0.4485  0.0372
  693loPI   C1B10417  10.675  14.041   6.587  0.4054  0.0707  0.1153
  693loPI   C2B10418  10.678  14.002   7.090  0.5288 -0.1718  0.0773
  693loPI   C3B10419  10.568  14.084   7.449  0.1648 -0.3136  0.1557
  693loPI   C4B10420  10.546  14.113   7.937  0.1275 -0.0088  0.1890
  694loPI    C110421  12.771   2.500   5.697  0.2629 -0.0048 -0.0408
  694loPI    C210422  12.816   2.317   5.344 -0.1206 -0.1195 -0.0350
  694loPI    C310423  12.678   2.692   5.358  0.1463 -0.0193 -0.0173
  694loPI   PO410424  12.583   2.358   5.861  0.1612 -0.1792  0.4058
  694loPI   GL110425  12.490   2.294   6.199  0.0116 -0.1941  0.2893
  694loPI   GL210426  12.652   2.042   6.342 -0.1571 -0.0264  0.4586
  694loPI   C1A10427  12.390   2.511   6.548 -0.1149 -0.2686 -0.0763
  694loPI   C2A10428  12.354   2.472   6.995  0.1184  0.0362 -0.3579
  694loPI   C3A10429  12.300   2.444   7.441  0.0426  0.2869 -0.2589
  694loPI   C4A10430  12.360   2.457   7.848 -0.4175  0.1876 -0.0336
  694loPI   C5A10431  12.287   2.459   8.364  0.1031 -0.0499 -0.2046
  694loPI   C6A10432  11.962   2.473   8.667  0.0448 -0.1129  0.1964
  694loPI   C1B10433  12.718   2.142   6.790  0.0048 -0.0378  0.0325
  694loPI   C2B10434  12.771   2.205   7.275 -0.3595  0.0470 -0.1638
  694loPI   C3B10435  12.800   2.148   7.796  0.1545 -0.1743 -0.0095
  694loPI   C4B10436  12.748   2.243   8.244 -0.1200 -0.0745  0.0280
  695loPI    C110437  14.363  11.309   6.101  0.1009 -0.1117 -0.0053
  695loPI    C210438  14.034  11.389   5.887  0.0464 -0.1702  0.0563
  695loPI    C310439  14.228  11.043   5.834  0.1976 -0.0627 -0.1040
  695loPI   PO410440  14.266  11.394   6.360 -0.1513  0.0783 -0.0122
  695loPI   GL110441  14.083  11.329   6.713  0.1182 -0.0491  0.5405
  695loPI   GL210442  13.757  11.115   6.747  0.0494 -0.2664  0.0720
  695loPI   C1A10443  14.070  11.477   7.101  0.3931  0.0111 -0.0034
  695loPI   C2A10444  14.099  11.551   7.597 -0.0908 -0.1649 -0.1123
  695loPI   C3A10445  14.229  11.603   7.959  0.0700 -0.1035 -0.0777
  695loPI   C4A10446  14.326  11.597   8.338  0.1028 -0.1750  0.3504
  695loPI   C5A10447  14.595  11.244   8.564 -0.2384 -0.1242  0.0308
  695loPI   C6A10448  14.788  11.014   8.937 -0.0948  0.0634  0.0237
  695loPI   C1B10449  13.826  11.066   7.180  0.1092 -0.4036  0.0576
  695loPI   C2B10450  13.783  11.206   7.630  0.0862 -0.0509 -0.0901
  695loPI   C3B10451  13.779  11.270   8.146 -0.0228  0.0346  0.3206
  695loPI   C4B10452  13.863  11.242   8.612  0.0549 -0.4017  0.0054
  696loPI    C110453  17.119   6.293   5.773  0.0842 -0.0471 -0.0761
  696loPI    C210454  16.854   6.548   5.615  0.0129 -0.1121 -0.0622
  696loPI    C310455  17.245   6.632   5.600 -0.0075 -0.0191 -0.0886
  696loPI   PO410456  16.990   6.273   6.025  0.3301  0.1596  0.2022
  696loPI   GL110457  17.140   6.182   6.431  0.0647 -0.0602  0.1192
  696loPI   GL210458  16.880   6.185   6.547 -0.1284 -0.1957  0.1711
  696loPI   C1A10459  17.242   6.177   6.900 -0.0126 -0.1263 -0.1550
  696loPI   C2A10460  17.199   6.275   7.324  0.2251  0.1800 -0.0424
  696loPI   C3A10461  17.158   6.298   7.794 -0.1073  0.0157  0.0797
  696loPI   C4A10462  17.138   6.329   8.257 -0.2171 -0.0260 -0.1777
  696loPI   C5A10463  17.012   6.529   8.603  0.1082 -0.1261  0.1015
  696loPI   C6A10464  17.209   6.596   8.883 -0.1564 -0.1379  0.2115
  696loPI   C1B10465  16.741   6.093   6.988  0.0235  0.1180 -0.1497
  696loPI   C2B10466  16.750   6.020   7.453  0.3339 -0.1902 -0.0865
  696loPI   C3B10467  16.730   6.104   7.943 -0.2831  0.1445  0.1407
  696loPI   C4B10468  16.702   6.166   8.392  0.1620 -0.1364  0.1161
  697loPI    C110469   3.879   7.895   5.987 -0.0083  0.0821  0.1009
  697loPI    C210470   3.775   7.999   5.614  0.1093 -0.0662  0.0257
  697loPI    C310471   4.000   7.674   5.676  0.1173 -0.0241  0.2244
  697loPI   PO410472   3.652   7.900   6.141  0.0209 -0.0274 -0.3525
  697loPI   GL110473   3.581   8.111   6.503 -0.1810  0.3101  0.0489
  697loPI   GL210474   3.409   8.310   6.393 -0.1251  0.1757  0.0099
  697loPI   C1A10475   3.755   8.314   6.800  0.2541 -0.2043  0.0769
  697loPI   C2A10476   3.736   8.271   7.157  0.0483  0.2301 -0.2423
  697loPI   C3A10477   3.715   8.287   7.612  0.0923  0.0819 -0.0243
  697loPI   C4A10478   3.736   8.345   7.990 -0.0568  0.1311 -0.0007
  697loPI   C5A10479   3.728   8.480   8.415  0.0236  0.1046  0.2617
  697loPI   C6A10480   3.647   8.567   8.826  0.0349  0.1843 -0.2029
  697loPI   C1B10481   3.298   8.490   6.820  0.1523 -0.0238 -0.0337
  697loPI   C2B10482   3.253   8.584   7.197  0.0698 -0.1356 -0.0491
  697loPI   C3B10483   3.242   8.531   7.602  0.0391 -0.1876  0.1764
  697loPI   C4B10484   3.290   8.567   8.020 -0.1273  0.0338  0.1018
  698loPI    C110485   5.539  16.399   5.952 -0.1064 -0.1013  0.0796
  698loPI    C210486   5.386  16.752   5.844  0.1278 -0.0726 -0.1692
  698loPI    C310487   5.779  16.716   5.912  0.0352 -0.1699  0.3583
  698loPI   PO410488   5.335  16.376   6.187  0.0964  0.1900 -0.3109
  698loPI   GL110489   5.180  16.485   6.536  0.0233 -0.1649  0.0354
  698loPI   GL210490   4.990  16.776   6.721 -0.1923  0.1925  0.1486
  698loPI   C1A10491   5.423  16.493   6.867  0.2849 -0.0163 -0.3885
  698loPI   C2A10492   5.755  16.472   7.231  0.1232  0.0802  0.1070
  698loPI   C3A10493   5.748  16.275   7.631  0.1541 -0.1296 -0.0928
  698loPI   C4A10494   5.661  16.368   8.016 -0.1113  0.0820 -0.0098
  698loPI   C5A10495   5.644  16.321   8.466 -0.1156  0.0199 -0.0160
  698loPI   C6A10496   5.393  16.118   8.734 -0.1401 -0.1491  0.4700
  698loPI   C1B10497   4.785  16.854   7.219  0.3749 -0.1280 -0.0157
  698loPI   C2B10498   4.876  16.839   7.654 -0.1434  0.2326 -0.0177
  698loPI   C3B10499   4.844  16.899   8.099  0.0347  0.1492 -0.1014
  698loPI   C4B10500   4.945  17.024   8.471  0.0589  0.1417  0.1516
  699loPI    C110501  16.329   8.760   5.888 -0.0760  0.1289 -0.1259
  699loPI    C210502  16.495   9.073   5.701  0.0594  0.0234 -0.1839
  699loPI    C310503  16.555   8.702   5.563  0.0052 -0.0394 -0.0405
  699loPI   PO410504  16.444   8.778   6.134 -0.0469 -0.0755 -0.1250
  699loPI   GL110505  16.453   8.818   6.582 -0.0571  0.1649  0.2099
  699loPI   GL210506  16.568   8.539   6.768 -0.0573 -0.1771  0.2602
  699loPI   C1A10507  16.521   9.052   6.891  0.0031 -0.3042  0.2699
  699loPI   C2A10508  16.445   9.094   7.290  0.1773 -0.1057 -0.2452
  699loPI   C3A10509  16.439   9.120   7.715  0.2820 -0.1295 -0.2205
  699loPI   C4A10510  16.424   9.285   8.114 -0.0096  0.0720 -0.0349
  699loPI   C5A10511  16.404   9.211   8.614 -0.0538 -0.0994 -0.0462
  699loPI   C6A10512  16.741   9.375   8.826  0.1691 -0.3055  0.0599
  699loPI   C1B10513  16.484   8.560   7.170 -0.0791 -0.2836  0.0199
  699loPI   C2B10514  16.502   8.629   7.608 -0.1771  0.2106 -0.2211
  699loPI   C3B10515  16.520   8.601   8.014  0.1967 -0.2298  0.1185
  699loPI   C4B10516  16.581   8.687   8.432  0.0003  0.0954 -0.0593
  700loPI    C110517   9.518   5.037   6.157 -0.1387 -0.1749 -0.0377
  700loPI    C210518   9.145   4.938   6.052 -0.1197 -0.0268 -0.2496
  700loPI    C310519   9.415   4.652   6.127 -0.2554 -0.1341 -0.1672
  700loPI   PO410520   9.460   5.228   6.369 -0.2708 -0.1850  0.1177
  700loPI   GL110521   9.487   5.167   6.763  0.1457 -0.1714 -0.0281
  700loPI   GL210522   9.287   5.136   6.939 -0.2815  0.2065 -0.1119
  700loPI   C1A10523   9.671   5.046   7.167 -0.0342 -0.2949 -0.3646
  700loPI   C2A10524   9.639   5.054   7.491  0.2237  0.0335 -0.1805
  700loPI   C3A10525   9.700   5.139   7.975 -0.0881  0.1125 -0.4543
  700loPI   C4A10526   9.693   5.159   8.374  0.2380 -0.0382 -0.1055
  700loPI   C5A10527   9.666   5.312   8.766 -0.4948  0.1554  0.0085
  700loPI   C6A10528   9.628   5.455   9.242  0.5652 -0.0065 -0.1797
  700loPI   C1B10529   9.174   5.214   7.296 -0.0314  0.1828  0.0843
  700loPI   C2B10530   9.202   5.235   7.694 -0.0488 -0.1736 -0.0389
  700loPI   C3B10531   9.266   5.396   8.099  0.0528  0.1369  0.1993
  700loPI   C4B10532   9.261   5.428   8.557 -0.0232 -0.1643 -0.0517
  701loPI    C110533  11.722  14.283   5.478  0.1155  0.1938 -0.0289
  701loPI    C210534  11.465  14.072   5.255 -0.1355  0.2355  0.2158
  701loPI    C310535  11.848  13.960   5.279 -0.1731  0.0563  0.0058
  701loPI   PO410536  11.639  14.218   5.704  0.1618 -0.0162 -0.1162
  701loPI   GL110537  11.464  14.310   6.076 -0.0013 -0.1549 -0.0084
  701loPI   GL210538  11.769  14.476   6.264 -0.2425  0.1277  0.1427
  701loPI   C1A10539  11.411  14.018   6.369  0.0798  0.1454 -0.3066
  701loPI   C2A10540  11.549  13.961   6.774  0.0927  0.0302  0.3282
  701loPI   C3A10541  11.517  14.020   7.192 -0.1333  0.0454 -0.2019
  701loPI   C4A10542  11.433  14.080   7.618 -0.1133  0.0510  0.2309
  701loPI   C5A10543  11.432  14.026   7.941 -0.1262  0.4394  0.0139
  701loPI   C6A10544  11.436  14.069   8.478  0.2343  0.0392 -0.0796
  701loPI   C1B10545  11.537  14.556   6.777 -0.0736 -0.0898 -0.2031
  701loPI   C2B10546  11.432  14.585   7.253 -0.0605  0.0139  0.2818
  701loPI   C3B10547  11.418  14.623   7.750 -0.0547 -0.2020 -0.1984
  701loPI   C4B10548  11.619  14.556   8.225  0.0692  0.1795  0.0261
  702loPI    C110549   9.224  16.082   5.824 -0.1125 -0.1124  0.1087
  702loPI    C210550   9.263  15.999   5.434 -0.0482 -0.0878  0.1099
  702loPI    C310551   8.916  15.930   5.620 -0.0448 -0.2034  0.0736
  702loPI   PO410552   9.368  15.920   5.944 -0.1083  0.3558  0.0071
  702loPI   GL110553   9.465  16.076   6.386 -0.3507 -0.1129  0.1229
  702loPI   GL210554   9.169  15.891   6.457  0.2952  0.0467  0.1434
  702loPI   C1A10555   9.741  16.064   6.765  0.1700 -0.2806 -0.5731
  702loPI   C2A10556   9.833  16.146   7.282  0.0339 -0.0752  0.0595
  702loPI   C3A10557   9.739  16.152   7.718  0.3142 -0.2938 -0.1582
  702loPI   C4A10558   9.609  16.308   8.175 -0.3645 -0.1079 -0.1087
  702loPI   C5A10559   9.524  16.239   8.595 -0.2024 -0.1234  0.1011
  702loPI   C6A10560   9.364  15.920   8.954 -0.0602 -0.1670 -0.4102
  702loPI   C1B10561   9.254  15.808   6.948 -0.1651 -0.1457  0.0440
  702loPI   C2B10562   9.323  15.970   7.339 -0.1082  0.3409  0.1387
  702loPI   C3B10563   9.306  15.894   7.737  0.0486  0.3492  0.0813
  702loPI   C4B10564   9.219  16.019   8.074  0.1665 -0.4112 -0.1852
  703loPI    C110565  14.230   7.895   6.031  0.2641 -0.2118 -0.2959
  703loPI    C210566  14.338   8.098   5.704 -0.2066  0.4257 -0.0768
  703loPI    C310567  13.988   7.905   5.713  0.0838 -0.1260 -0.1576
  703loPI   PO410568  14.295   8.032   6.220 -0.4942  0.0859 -0.2494
  703loPI   GL110569  14.134   8.121   6.508 -0.1359  0.0606  0.0446
  703loPI   GL210570  14.330   7.896   6.677 -0.0755 -0.1894 -0.2586
  703loPI   C1A10571  14.010   8.245   6.818 -0.0365 -0.0709 -0.0829
  703loPI   C2A10572  14.096   8.106   7.249  0.1777 -0.0668  0.0967
  703loPI   C3A10573  14.128   8.222   7.644  0.0757  0.1743  0.1079
  703loPI   C4A10574  14.220   8.290   8.033 -0.1579 -0.0611 -0.2560
  703loPI   C5A10575  14.158   8.060   8.294 -0.0417  0.0320  0.0233
  703loPI   C6A10576  13.930   7.766   8.496 -0.1144 -0.1084 -0.2079
  703loPI   C1B10577  14.543   7.928   7.038  0.1547 -0.0266  0.0436
  703loPI   C2B10578  14.533   7.908   7.538  0.1764 -0.0249 -0.0690
  703loPI   C3B10579  14.659   7.987   7.925  0.0594  0.2249 -0.0686
  703loPI   C4B10580  14.789   8.141   8.276  0.3422  0.0167  0.0731
  704loPI    C110581   9.180   8.256   5.865  0.1098  0.1782  0.0575
  704loPI    C210582   9.093   8.629   5.750  0.0303  0.0716 -0.2375
  704loPI    C310583   8.806   8.350   5.758  0.0579  0.0491  0.1232
  704loPI   PO410584   9.372   8.286   6.064 -0.2311 -0.0480  0.1481
  704loPI   GL110585   9.392   8.332   6.460  0.0904 -0.0126  0.0043
  704loPI   GL210586   9.147   8.151   6.642  0.0566  0.1593 -0.1111
  704loPI   C1A10587   9.582   8.186   6.820  0.3753 -0.1599  0.2233
  704loPI   C2A10588   9.616   8.221   7.221 -0.0595 -0.1650  0.1013
  704loPI   C3A10589   9.555   8.249   7.711 -0.0184  0.0839 -0.1884
  704loPI   C4A10590   9.778   8.273   8.106 -0.1077 -0.1293 -0.1079
  704loPI   C5A10591   9.767   8.218   8.509  0.1958 -0.1074  0.0857
  704loPI   C6A10592   9.662   7.849   8.795  0.0543 -0.1660  0.3088
  704loPI   C1B10593   9.152   8.068   7.078  0.0433  0.0163  0.0323
  704loPI   C2B10594   9.106   7.949   7.518 -0.2308  0.1796 -0.2931
  704loPI   C3B10595   9.146   7.958   7.956  0.2341  0.1522  0.2706
  704loPI   C4B10596   9.261   8.020   8.496  0.2046 -0.0499 -0.0676
  705loPI    C110597   1.932   5.651   5.903 -0.0224 -0.0060 -0.1766
  705loPI    C210598   2.284   5.834   5.852 -0.0530  0.1003 -0.0121
  705loPI    C310599   2.106   5.652   5.543  0.0797  0.1648 -0.1273
  705loPI   PO410600   1.952   5.537   6.143 -0.2739  0.0668 -0.0566
  705loPI   GL110601   1.703   5.206   6.414  0.2837  0.2397 -0.1746
  705loPI   GL210602   1.969   5.124   6.550 -0.3634 -0.1562 -0.2442
  705loPI   C1A10603   1.557   5.271   6.821  0.0709 -0.2559  0.0579
  705loPI   C2A10604   1.589   5.317   7.226  0.1027 -0.2173  0.1115
  705loPI   C3A10605   1.677   5.325   7.603  0.0330  0.2758 -0.0537
  705loPI   C4A10606   1.650   5.459   8.002 -0.2605 -0.1837 -0.1032
  705loPI   C5A10607   1.606   5.518   8.408 -0.0765 -0.1937  0.3399
  705loPI   C6A10608   1.517   5.942   8.627  0.2082  0.2769 -0.0978
  705loPI   C1B10609   2.065   5.051   6.953  0.0855 -0.2344 -0.1477
  705loPI   C2B10610   2.042   5.074   7.407  0.0498 -0.0555  0.1082
  705loPI   C3B10611   2.060   5.188   7.855  0.0327  0.0515 -0.1343
  705loPI   C4B10612   2.099   5.218   8.300 -0.2859 -0.1338 -0.1040
  706loPI    C110613   9.756   3.068   5.726  0.2784  0.3290  0.2990
  706loPI    C210614   9.805   3.423   5.549  0.2995  0.1469 -0.0698
  706loPI    C310615   9.816   3.088   5.331 -0.3144 -0.0478  0.1770
  706loPI   PO410616   9.908   3.069   6.023 -0.1397  0.2460  0.0201
  706loPI   GL110617  10.006   3.295   6.467  0.2241 -0.0550 -0.2020
  706loPI   GL210618   9.917   3.548   6.577  0.2912 -0.0406  0.3439
  706loPI   C1A10619  10.132   3.218   6.889 -0.0814 -0.2382 -0.1437
  706loPI   C2A10620  10.157   3.234   7.299 -0.0116 -0.0712 -0.1968
  706loPI   C3A10621  10.158   3.264   7.734 -0.0168  0.0683 -0.3132
  706loPI   C4A10622  10.098   3.256   8.148 -0.1252 -0.0795 -0.4724
  706loPI   C5A10623  10.044   3.235   8.585  0.0105 -0.1739  0.1176
  706loPI   C6A10624   9.672   3.401   8.766  0.0776 -0.1441 -0.0401
  706loPI   C1B10625   9.922   3.602   7.060 -0.0649  0.1767 -0.1197
  706loPI   C2B10626  10.004   3.728   7.489 -0.4089  0.0675  0.1275
  706loPI   C3B10627  10.176   3.765   7.889 -0.0864 -0.2807  0.2348
  706loPI   C4B10628  10.107   3.699   8.337  0.2759 -0.3285 -0.0380
  707loPI    C110629  16.921  13.947   5.740  0.0863 -0.0896  0.1853
  707loPI    C210630  16.566  13.766   5.698  0.0026  0.1462 -0.1713
  707loPI    C310631  16.826  13.770   5.394  0.1351  0.3448 -0.0580
  707loPI   PO410632  16.852  13.973   6.070  0.1710  0.1637  0.3400
  707loPI   GL110633  17.017  14.071   6.475 -0.3053  0.1035  0.1226
  707loPI   GL210634  17.348  14.007   6.615  0.1360 -0.1836  0.1527
  707loPI   C1A10635  16.891  14.167   6.907  0.2358 -0.0614  0.0391
  707loPI   C2A10636  16.874  14.221   7.277 -0.0507 -0.1046 -0.0995
  707loPI   C3A10637  16.839  14.205   7.739 -0.0823 -0.0732  0.1001
  707loPI   C4A10638  16.815  14.193   8.200  0.1223  0.1489 -0.0084
  707loPI   C5A10639  16.405  13.993   8.438 -0.3983  0.0747 -0.1160
  707loPI   C6A10640  16.084  13.646   8.332  0.0310  0.5671 -0.0416
  707loPI   C1B10641  17.321  13.917   7.011 -0.2752 -0.1836  0.0206
  707loPI   C2B10642  17.313  13.918   7.411 -0.0463  0.1929  0.0117
  707loPI   C3B10643  17.288  13.866   7.795  0.1401  0.1458 -0.0993
  707loPI   C4B10644  17.302  13.932   8.207  0.0294 -0.0105 -0.1515
  708loPI    C110645   3.601   3.213   5.861 -0.1717  0.1609 -0.0319
  708loPI    C210646   3.755   2.977   5.577  0.0728  0.0231  0.2102
  708loPI    C310647   3.768   3.374   5.535  0.2741  0.0077  0.1126
  708loPI   PO410648   3.624   3.056   6.104 -0.3028 -0.0199  0.2146
  708loPI   GL110649   3.425   3.085   6.414  0.0006  0.5338  0.1532
  708loPI   GL210650   3.505   3.312   6.701 -0.1778 -0.0004  0.1330
  708loPI   C1A10651   3.522   2.808   6.786  0.0929  0.0263  0.0073
  708loPI   C2A10652   3.505   2.773   7.264  0.3172  0.2455  0.1455
  708loPI   C3A10653   3.418   2.763   7.637  0.1665 -0.1994  0.0152
  708loPI   C4A10654   3.447   2.876   8.083 -0.0153 -0.1590 -0.1981
  708loPI   C5A10655   3.576   2.979   8.444  0.2385 -0.0433  0.1840
  708loPI   C6A10656   3.614   3.126   8.786  0.0061 -0.3356 -0.0865
  708loPI   C1B10657   3.515   3.327   7.192  0.1217 -0.1583  0.4109
  708loPI   C2B10658   3.439   3.283   7.627  0.1506  0.2064  0.2608
  708loPI   C3B10659   3.432   3.411   8.030  0.0718  0.0686  0.0500
  708loPI   C4B10660   3.641   3.518   8.416  0.0632  0.0908  0.1128
  709loPI    C110661  15.604   7.702   6.024  0.1221 -0.0902  0.0778
  709loPI    C210662  15.691   8.067   5.885  0.0958 -0.0632  0.1323
  709loPI    C310663  15.374   7.868   5.742  0.1690 -0.1066  0.0296
  709loPI   PO410664  15.692   7.750   6.367  0.0133 -0.0485 -0.1463
  709loPI   GL110665  15.469   7.520   6.818  0.0729 -0.2741  0.2968
  709loPI   GL210666  15.747   7.629   6.826 -0.2681  0.1318  0.2607
  709loPI   C1A10667  15.482   7.407   7.189 -0.1735 -0.1201 -0.2113
  709loPI   C2A10668  15.572   7.506   7.598  0.3666  0.5583  0.2388
  709loPI   C3A10669  15.633   7.579   8.036  0.1270  0.1431 -0.0436
  709loPI   C4A10670  15.655   7.616   8.511  0.1325  0.2501  0.3066
  709loPI   C5A10671  15.296   7.672   8.914 -0.2800 -0.0345 -0.2719
  709loPI   C6A10672  14.998   7.999   8.971 -0.1199 -0.1139 -0.0494
  709loPI   C1B10673  15.908   7.789   7.188  0.0105 -0.0330 -0.1527
  709loPI   C2B10674  15.973   7.815   7.594 -0.0555 -0.0348 -0.3413
  709loPI   C3B10675  16.065   7.791   7.980 -0.0275 -0.2173  0.0189
  709loPI   C4B10676  16.167   7.727   8.350  0.3067  0.1636 -0.0995
  710loPI    C110677  14.599  13.589   5.830 -0.0497 -0.2226  0.0123
  710loPI    C210678  14.741  13.934   5.686 -0.1434 -0.2065 -0.0423
  710loPI    C310679  14.572  13.667   5.439 -0.4035 -0.1317  0.0508
  710loPI   PO410680  14.473  13.673   6.003  0.2522 -0.2797 -0.0819
  710loPI   GL110681  14.494  13.742   6.432 -0.0012  0.2972 -0.1629
  710loPI   GL210682  14.254  13.629   6.578  0.1257  0.0843 -0.2724
  710loPI   C1A10683  14.658  13.758   6.858  0.0901 -0.1675 -0.1725
  710loPI   C2A10684  14.741  13.762   7.294  0.3050  0.1176 -0.1140
  710loPI   C3A10685  14.710  13.824   7.706  0.1320  0.0368  0.0660
  710loPI   C4A10686  14.665  13.820   8.219  0.2030 -0.2125  0.1073
  710loPI   C5A10687  14.959  13.674   8.419 -0.0800  0.0938  0.1092
  710loPI   C6A10688  15.234  13.453   8.311 -0.1337 -0.0474  0.0058
  710loPI   C1B10689  14.201  13.460   6.933  0.1801  0.0996 -0.1218
  710loPI   C2B10690  14.286  13.484   7.377 -0.0197  0.2444  0.1170
  710loPI   C3B10691  14.178  13.565   7.749  0.2139  0.2439  0.0653
  710loPI   C4B10692  14.281  13.509   8.102 -0.1008 -0.0564  0.0380
  711loPI    C110693   0.246   3.085   5.542 -0.0343 -0.2100 -0.0340
  711loPI    C210694   0.221   3.267   5.187 -0.2016 -0.0723  0.0465
  711loPI    C310695   0.073   2.898   5.233  0.1234 -0.2275 -0.1127
  711loPI   PO410696   0.212   3.271   5.700  0.0489 -0.1476 -0.4106
  711loPI   GL110697   0.285   3.207   6.141  0.2036 -0.0921  0.1565
  711loPI   GL210698   0.326   3.447   6.345  0.3018  0.1978 -0.1644
  711loPI   C1A10699   0.255   2.958   6.533 -0.0914 -0.0046 -0.3024
  711loPI   C2A10700   0.261   2.939   7.006  0.0069  0.0304 -0.0861
  711loPI   C3A10701   0.374   3.110   7.462 -0.0649  0.0400  0.1201
  711loPI   C4A10702   0.348   3.037   7.924  0.1903  0.0643  0.0964
  711loPI   C5A10703   0.289   2.977   8.357 -0.1281 -0.2065 -0.3365
  711loPI   C6A10704   0.040   3.251   8.660 -0.0134  0.0188 -0.1437
  711loPI   C1B10705   0.236   3.439   6.782 -0.0825 -0.1010 -0.3243
  711loPI   C2B10706   0.293   3.507   7.179 -0.2964 -0.0754  0.1532
  711loPI   C3B10707   0.339   3.541   7.621 -0.1621  0.1927  0.2252
  711loPI   C4B10708   0.303   3.503   8.049 -0.0388  0.2621  0.0053
  712loPI    C110709  15.520   4.926   5.652  0.0640  0.1623  0.0308
  712loPI    C210710  15.145   5.063   5.652  0.0825  0.2147  0.2044
  712loPI    C310711  15.403   5.187   5.373 -0.0965 -0.0117 -0.0672
  712loPI   PO410712  15.587   4.981   5.985 -0.3675 -0.0474 -0.0164
  712loPI   GL110713  15.645   4.692   6.231 -0.0855 -0.2650  0.1749
  712loPI   GL210714  15.942   4.408   6.268 -0.4140 -0.1401 -0.0909
  712loPI   C1A10715  15.335   4.803   6.583  0.0783 -0.0513  0.0903
  712loPI   C2A10716  15.295   4.805   7.110  0.0721 -0.1671 -0.2598
  712loPI   C3A10717  15.338   4.776   7.534  0.2397  0.1085  0.1944
  712loPI   C4A10718  15.409   4.772   7.991  0.2806 -0.0222  0.2009
  712loPI   C5A10719  15.543   4.861   8.467 -0.1051 -0.1358  0.1214
  712loPI   C6A10720  15.828   5.061   8.645  0.0580  0.1898  0.1756
  712loPI   C1B10721  15.888   4.455   6.760  0.4189 -0.1127  0.2063
  712loPI   C2B10722  15.934   4.404   7.145  0.1421 -0.3855 -0.0692
  712loPI   C3B10723  15.882   4.472   7.617 -0.1085 -0.0602  0.2924
  712loPI   C4B10724  15.852   4.457   7.977 -0.0312  0.4139 -0.0335
  713loPI    C110725  11.418  16.646   5.895  0.2887 -0.0403 -0.0951
  713loPI    C210726  11.416  17.036   5.803  0.1931  0.0011  0.0779
  713loPI    C310727  11.375  16.762   5.514  0.3514  0.1159 -0.0556
  713loPI   PO410728  11.544  16.708   6.148  0.2211 -0.1910  0.0828
  713loPI   GL110729  11.544  16.677   6.452 -0.0788  0.0331  0.0984
  713loPI   GL210730  11.556  16.480   6.703  0.2001 -0.0391 -0.1457
  713loPI   C1A10731  11.548  17.035   6.813 -0.1576 -0.2581  0.1125
  713loPI   C2A10732  11.483  17.114   7.232 -0.0681 -0.1903  0.1850
  713loPI   C3A10733  11.431  17.235   7.562 -0.3266 -0.0465 -0.0230
  713loPI   C4A10734  11.540  17.279   7.900  0.0532  0.2521  0.0712
  713loPI   C5A10735  11.559  17.196   8.276 -0.2188 -0.0605 -0.2038
  713loPI   C6A10736  11.569  16.996   8.705 -0.0248 -0.0626  0.2503
  713loPI   C1B10737  11.482  16.564   7.086 -0.2132  0.2282 -0.1291
  713loPI   C2B10738  11.477  16.672   7.465  0.0858 -0.1413 -0.0863
  713loPI   C3B10739  11.532  16.756   7.918  0.2943  0.3327  0.0412
  713loPI   C4B10740  11.619  16.599   8.380  0.0410  0.1541 -0.0288
  714loPI    C110741   3.766   0.374   6.290 -0.0323 -0.2810  0.1553
  714loPI    C210742   3.712   0.213   5.928  0.0833  0.0278 -0.0031
  714loPI    C310743   3.750   0.609   5.967  0.2677 -0.0187  0.3257
  714loPI   PO410744   3.520   0.383   6.425  0.1142 -0.1094  0.1360
  714loPI   GL110745   3.345   0.237   6.816 -0.2274 -0.2664 -0.0096
  714loPI   GL210746   3.490  -0.132   6.887 -0.3835  0.2026  0.0467
  714loPI   C1A10747   3.397   0.196   7.289 -0.2502 -0.1256 -0.0520
  714loPI   C2A10748   3.433   0.250   7.652 -0.1636  0.0651 -0.1053
  714loPI   C3A10749   3.438   0.201   8.037  0.1683 -0.0987 -0.1571
  714loPI   C4A10750   3.532   0.293   8.389  0.1220  0.1368  0.0340
  714loPI   C5A10751   3.692   0.451   8.724 -0.1153 -0.0536  0.1994
  714loPI   C6A10752   4.137   0.505   8.694  0.1546  0.2138  0.1839
  714loPI   C1B10753   3.429  -0.400   7.264  0.0630  0.0365  0.1007
  714loPI   C2B10754   3.471  -0.286   7.733 -0.0638  0.1455 -0.1389
  714loPI   C3B10755   3.571  -0.264   8.180  0.1544 -0.0714 -0.0070
  714loPI   C4B10756   3.537  -0.203   8.600 -0.0393 -0.0448  0.2089
  715loPI    C110757  14.858   1.618   5.411 -0.0289 -0.0979 -0.0172
  715loPI    C210758  14.785   1.970   5.236 -0.0654 -0.0776  0.0387
  715loPI    C310759  14.890   1.655   5.014 -0.3424 -0.1122 -0.0457
  715loPI   PO410760  14.934   1.656   5.649 -0.0680 -0.2287  0.1900
  715loPI   GL110761  14.887   1.641   6.077  0.4265 -0.1881  0.0919
  715loPI   GL210762  15.140   1.710   6.177  0.0960  0.0688 -0.1731
  715loPI   C1A10763  14.925   1.384   6.495  0.0102 -0.1671 -0.1121
  715loPI   C2A10764  14.972   1.450   6.892 -0.1016  0.0261 -0.0801
  715loPI   C3A10765  15.097   1.376   7.286 -0.0390 -0.0397 -0.3440
  715loPI   C4A10766  15.011   1.375   7.735 -0.0708  0.0683 -0.3740
  715loPI   C5A10767  15.088   1.464   8.220 -0.0038 -0.2055 -0.0131
  715loPI   C6A10768  15.002   1.523   8.653 -0.1096  0.0445 -0.1289
  715loPI   C1B10769  15.054   1.894   6.542  0.2759 -0.1042  0.1289
  715loPI   C2B10770  14.994   1.974   6.903  0.0646 -0.0960 -0.1575
  715loPI   C3B10771  14.998   1.896   7.282 -0.2866  0.2223  0.2841
  715loPI   C4B10772  15.012   1.940   7.683 -0.2256 -0.0759 -0.1493
  716loPI    C110773  14.864   3.663   5.149  0.0114 -0.0145  0.1948
  716loPI    C210774  15.125   3.392   5.012 -0.0683  0.0981 -0.1911
  716loPI    C310775  14.731   3.325   4.982 -0.0891  0.0219  0.2005
  716loPI   PO410776  14.903   3.668   5.480 -0.0870  0.1469  0.3889
  716loPI   GL110777  15.078   3.527   5.886 -0.0804  0.1349  0.1575
  716loPI   GL210778  15.380   3.563   6.067 -0.1565  0.2832  0.1041
  716loPI   C1A10779  14.990   3.473   6.423 -0.2396  0.0150  0.3253
  716loPI   C2A10780  14.945   3.527   6.825 -0.1743  0.1602  0.0513
  716loPI   C3A10781  14.931   3.483   7.349 -0.1520 -0.0704 -0.0497
  716loPI   C4A10782  14.890   3.474   7.766  0.1284 -0.2417 -0.1513
  716loPI   C5A10783  14.958   3.706   8.120 -0.1816  0.1480  0.1461
  716loPI   C6A10784  14.970   4.086   8.364 -0.0136 -0.0296 -0.1746
  716loPI   C1B10785  15.428   3.711   6.504  0.2990 -0.0407 -0.1313
  716loPI   C2B10786  15.460   3.726   7.030  0.0764 -0.1027  0.4334
  716loPI   C3B10787  15.314   3.760   7.437 -0.2180 -0.0141  0.1044
  716loPI   C4B10788  15.452   3.771   7.893  0.0088 -0.1220 -0.0005
  717loPI    C110789   1.910  10.102   6.142  0.0751  0.2339  0.0334
  717loPI    C210790   1.865  10.309   5.802 -0.0683  0.0343 -0.0707
  717loPI    C310791   1.599  10.027   5.902  0.1985 -0.1965  0.0007
  717loPI   PO410792   1.932  10.272   6.334  0.1268  0.0565  0.0597
  717loPI   GL110793   1.893  10.275   6.720  0.0550 -0.0115 -0.0444
  717loPI   GL210794   2.260  10.449   6.692 -0.2289  0.0390  0.0596
  717loPI   C1A10795   1.716  10.196   7.084  0.0561 -0.1749  0.0033
  717loPI   C2A10796   1.849  10.336   7.554  0.1054 -0.1207  0.2489
  717loPI   C3A10797   1.960  10.387   7.978 -0.1117  0.0044  0.1267
  717loPI   C4A10798   1.802  10.495   8.386 -0.1129 -0.1588 -0.1210
  717loPI   C5A10799   1.657  10.858   8.664  0.1293 -0.2737  0.0667
  717loPI   C6A10800   1.650  11.016   9.062 -0.2072 -0.3657 -0.0031
  717loPI   C1B10801   2.233  10.596   7.167 -0.2348 -0.1231  0.5463
  717loPI   C2B10802   2.282  10.570   7.600  0.0123  0.1725 -0.2582
  717loPI   C3B10803   2.311  10.687   8.102 -0.1323  0.0820  0.1683
  717loPI   C4B10804   2.273  10.645   8.438 -0.2624  0.0845 -0.0086
  718loPI    C110805   5.392   4.695   6.189 -0.0546 -0.0303 -0.0649
  718loPI    C210806   5.128   4.582   5.911  0.0025 -0.0190 -0.1238
  718loPI    C310807   5.016   4.830   6.204 -0.0431  0.0141 -0.1691
  718loPI   PO410808   5.480   4.527   6.284  0.2314  0.0418 -0.1583
  718loPI   GL110809   5.641   4.483   6.626  0.0955  0.4389 -0.0501
  718loPI   GL210810   5.665   4.726   6.752  0.2013 -0.2486  0.0997
  718loPI   C1A10811   5.587   4.200   6.948 -0.0953 -0.0388  0.2644
  718loPI   C2A10812   5.623   4.155   7.491  0.3208  0.1990 -0.0831
  718loPI   C3A10813   5.734   4.269   7.861 -0.0259  0.1824 -0.0624
  718loPI   C4A10814   5.673   4.323   8.317 -0.0060 -0.2120 -0.0784
  718loPI   C5A10815   5.717   4.146   8.693 -0.0641 -0.1817 -0.2471
  718loPI   C6A10816   5.766   3.793   8.840 -0.1971 -0.1934 -0.1732
  718loPI   C1B10817   5.615   4.648   7.254 -0.1100 -0.1986  0.0679
  718loPI   C2B10818   5.698   4.768   7.717 -0.0281  0.0803 -0.0463
  718loPI   C3B10819   5.616   4.751   8.087 -0.1623 -0.1670  0.3514
  718loPI   C4B10820   5.648   4.793   8.543  0.0881  0.0088  0.2040
  719loPI    C110821   4.863   6.138   5.737 -0.0443 -0.2364 -0.1894
  719loPI    C210822   5.248   6.133   5.631  0.0399 -0.1259  0.1010
  719loPI    C310823   5.024   5.805   5.586  0.1301 -0.1498 -0.1965
  719loPI   PO410824   4.882   6.246   5.969 -0.1097 -0.0686 -0.0930
  719loPI   GL110825   4.834   6.258   6.468 -0.2728  0.1870 -0.0778
  719loPI   GL210826   5.145   6.152   6.498 -0.0285 -0.0858  0.0394
  719loPI   C1A10827   4.729   6.177   6.886 -0.1230 -0.3906 -0.1117
  719loPI   C2A10828   4.717   6.232   7.271 -0.0989 -0.3374 -0.2075
  719loPI   C3A10829   4.591   6.216   7.744 -0.2540 -0.1214 -0.1040
  719loPI   C4A10830   4.769   6.274   8.130  0.1463 -0.3036 -0.0739
  719loPI   C5A10831   4.697   6.379   8.555  0.2097  0.1040 -0.0726
  719loPI   C6A10832   4.757   6.419   8.911  0.0130  0.0217  0.0617
  719loPI   C1B10833   5.162   6.023   6.991 -0.1563 -0.1596  0.0688
  719loPI   C2B10834   5.136   5.942   7.371  0.2194 -0.0361 -0.1702
  719loPI   C3B10835   5.076   6.033   7.766  0.0214  0.0493  0.1282
  719loPI   C4B10836   5.192   6.000   8.092  0.1577 -0.0930  0.0186
  720loPI    C110837   7.113  13.873   5.955 -0.0725  0.1596 -0.1018
  720loPI    C210838   7.362  13.804   5.649 -0.0639  0.0491 -0.0704
  720loPI    C310839   6.967  13.786   5.593 -0.0629  0.0820 -0.0872
  720loPI   PO410840   7.105  13.761   6.203  0.0080 -0.1403 -0.1877
  720loPI   GL110841   7.235  13.755   6.508 -0.1033  0.2452 -0.4074
  720loPI   GL210842   7.575  13.757   6.602  0.0035  0.0068  0.0616
  720loPI   C1A10843   7.141  13.519   6.824  0.1779  0.0400 -0.2635
  720loPI   C2A10844   6.999  13.512   7.218 -0.4563 -0.0962 -0.3317
  720loPI   C3A10845   7.055  13.494   7.714  0.1902  0.0411  0.1942
  720loPI   C4A10846   7.034  13.537   8.128  0.0222 -0.1785  0.0680
  720loPI   C5A10847   6.855  13.788   8.527  0.0261  0.2729  0.2233
  720loPI   C6A10848   6.975  13.814   8.913 -0.1594 -0.1618  0.0609
  720loPI   C1B10849   7.464  13.798   7.025 -0.0857 -0.0680  0.1334
  720loPI   C2B10850   7.525  13.806   7.540 -0.0493  0.2109  0.0218
  720loPI   C3B10851   7.529  13.819   7.965  0.0266 -0.2288 -0.1594
  720loPI   C4B10852   7.486  13.739   8.383 -0.0190 -0.3093  0.1721
  721loPI    C110853  10.576   4.531   6.023 -0.1783  0.0785  0.1599
  721loPI    C210854  10.537   4.580   5.628 -0.3037 -0.1724  0.1387
  721loPI    C310855  10.877   4.432   5.779 -0.0823  0.3455  0.1679
  721loPI   PO410856  10.578   4.841   6.299 -0.2629  0.1705  0.0905
  721loPI   GL110857  10.496   4.764   6.694  0.3787  0.3724 -0.1228
  721loPI   GL210858  10.538   5.062   6.733 -0.1714  0.0618 -0.2421
  721loPI   C1A10859  10.404   4.516   7.028 -0.0684  0.5221  0.3366
  721loPI   C2A10860  10.419   4.471   7.409  0.2616  0.0617 -0.1799
  721loPI   C3A10861  10.543   4.601   7.854 -0.3521 -0.2116  0.0082
  721loPI   C4A10862  10.539   4.658   8.265  0.0885 -0.3912  0.0645
  721loPI   C5A10863  10.525   4.615   8.783  0.2058  0.0241  0.4399
  721loPI   C6A10864  10.264   4.859   9.103 -0.0311 -0.3733  0.0369
  721loPI   C1B10865  10.499   5.067   7.133  0.0716  0.0473 -0.1412
  721loPI   C2B10866  10.561   5.185   7.493 -0.1712 -0.0795  0.2157
  721loPI   C3B10867  10.565   5.127   7.906  0.0032 -0.2679 -0.2509
  721loPI   C4B10868  10.626   5.157   8.341 -0.0727  0.0975 -0.0034
  722loPI    C110869  10.738   4.022   5.999 -0.1089 -0.3006 -0.0342
  722loPI    C210870  10.897   3.939   5.641 -0.1172 -0.3640 -0.0234
  722loPI    C310871  10.526   4.086   5.666 -0.0856 -0.2798 -0.0450
  722loPI   PO410872  10.952   4.105   6.196 -0.2527 -0.0774  0.1168
  722loPI   GL110873  11.070   4.084   6.665  0.1015 -0.0007 -0.2694
  722loPI   GL210874  11.370   3.878   6.764  0.0448 -0.4186 -0.3150
  722loPI   C1A10875  11.000   4.271   7.085  0.0585 -0.0157  0.0865
  722loPI   C2A10876  10.976   4.327   7.574 -0.1424  0.0158 -0.5600
  722loPI   C3A10877  10.942   4.357   8.041 -0.0074 -0.0879 -0.1626
  722loPI   C4A10878  10.978   4.535   8.503  0.0253  0.1823 -0.1030
  722loPI   C5A10879  10.952   4.866   8.712 -0.2745 -0.2028 -0.2338
  722loPI   C6A10880  10.557   5.134   8.814 -0.3691 -0.0089  0.1886
  722loPI   C1B10881  11.434   4.040   7.121 -0.2998 -0.0778  0.2827
  722loPI   C2B10882  11.492   4.093   7.505 -0.1650  0.0893 -0.0166
  722loPI   C3B10883  11.462   4.034   7.924  0.2588  0.0582  0.1138
  722loPI   C4B10884  11.379   4.156   8.365 -0.1007  0.0857 -0.1084
  723loPI    C110885   2.954  16.512   5.830 -0.1382 -0.0885  0.1546
  723loPI    C210886   2.654  16.666   5.614 -0.2152 -0.1305  0.2309
  723loPI    C310887   2.965  16.494   5.430 -0.1449  0.0842  0.1458
  723loPI   PO410888   2.781  16.359   6.046  0.0182  0.1468 -0.4845
  723loPI   GL110889   2.871  16.344   6.537 -0.0377 -0.1344 -0.0829
  723loPI   GL210890   2.642  16.446   6.587 -0.1319 -0.1472 -0.1687
  723loPI   C1A10891   3.044  16.235   6.928 -0.0876 -0.1906  0.1496
  723loPI   C2A10892   3.076  16.229   7.382  0.0166 -0.0707  0.2464
  723loPI   C3A10893   3.097  16.235   7.816 -0.0383  0.2382 -0.2271
  723loPI   C4A10894   3.185  16.286   8.252 -0.1826  0.2576  0.0892
  723loPI   C5A10895   2.935  16.318   8.644  0.1753  0.0781 -0.2266
  723loPI   C6A10896   2.614  16.285   8.969 -0.0276 -0.1210 -0.1160
  723loPI   C1B10897   2.567  16.442   6.963 -0.0930  0.0626  0.1363
  723loPI   C2B10898   2.627  16.421   7.406 -0.0754  0.0043 -0.2536
  723loPI   C3B10899   2.594  16.468   7.857 -0.1077 -0.0441 -0.0138
  723loPI   C4B10900   2.733  16.520   8.210  0.2175 -0.0118  0.0008
  724loPI    C110901   0.155  10.306   5.693  0.0842 -0.1350 -0.1087
  724loPI    C210902  -0.232  10.206   5.706  0.0080  0.1584 -0.0570
  724loPI    C310903  -0.117  10.537   5.512  0.2212  0.1289  0.0163
  724loPI   PO410904   0.216  10.258   5.954  0.0892 -0.0679  0.0559
  724loPI   GL110905   0.055  10.187   6.420 -0.2055  0.0216  0.0422
  724loPI   GL210906   0.275  10.318   6.448  0.3179  0.1112 -0.1374
  724loPI   C1A10907  -0.088  10.187   6.864 -0.1574  0.2208  0.1467
  724loPI   C2A10908   0.034  10.176   7.310 -0.2202 -0.1046 -0.0614
  724loPI   C3A10909   0.080  10.277   7.774  0.0710 -0.0142  0.0665
  724loPI   C4A10910   0.021  10.308   8.233 -0.0810  0.2795  0.1043
  724loPI   C5A10911   0.032  10.411   8.639  0.0145 -0.3019  0.1196
  724loPI   C6A10912   0.234  10.760   8.930 -0.1530  0.0931  0.2989
  724loPI   C1B10913   0.451  10.443   6.823 -0.0923  0.0239 -0.2430
  724loPI   C2B10914   0.418  10.566   7.265  0.1052 -0.2648 -0.2387
  724loPI   C3B10915   0.503  10.492   7.622 -0.0604  0.0980  0.2291
  724loPI   C4B10916   0.554  10.546   8.024  0.1446  0.2730 -0.4090
  725loPI    C110917   8.659  16.979   6.226 -0.4469 -0.0133  0.1297
  725loPI    C210918   8.590  16.917   5.836  0.1484 -0.0907  0.0268
  725loPI    C310919   8.541  17.282   5.993  0.0729 -0.0205 -0.1576
  725loPI   PO410920   8.904  16.805   6.259  0.1634 -0.3528 -0.0282
  725loPI   GL110921   9.264  16.902   6.419  0.1670 -0.3636 -0.1486
  725loPI   GL210922   9.229  16.583   6.571  0.0983 -0.0932  0.1816
  725loPI   C1A10923   9.359  17.019   6.795 -0.1280  0.1830  0.0203
  725loPI   C2A10924   9.310  16.964   7.271 -0.1092 -0.2754  0.5421
  725loPI   C3A10925   9.321  16.970   7.671  0.0026  0.0022 -0.2993
  725loPI   C4A10926   9.233  17.056   8.141 -0.2133 -0.0683 -0.0398
  725loPI   C5A10927   9.165  17.009   8.561 -0.0888  0.0844 -0.0805
  725loPI   C6A10928   9.136  17.068   8.969  0.1846 -0.0931 -0.1859
  725loPI   C1B10929   9.355  16.467   7.089  0.1263  0.1568 -0.0808
  725loPI   C2B10930   9.391  16.443   7.553 -0.2347  0.0035 -0.1214
  725loPI   C3B10931   9.269  16.532   7.965  0.3791  0.0066  0.1464
  725loPI   C4B10932   9.176  16.476   8.399 -0.2249 -0.0921  0.0323
  726loPI    C110933  14.386  12.215   5.841  0.0738  0.0636  0.0038
  726loPI    C210934  14.258  12.583   5.752 -0.0689  0.0042 -0.0401
  726loPI    C310935  14.126  12.270   5.541 -0.1157 -0.0961  0.1359
  726loPI   PO410936  14.370  12.264   6.199  0.0658 -0.2950  0.3273
  726loPI   GL110937  14.198  12.307   6.488  0.2709 -0.0246  0.2126
  726loPI   GL210938  14.072  11.971   6.425 -0.0811 -0.0983  0.0593
  726loPI   C1A10939  14.188  12.425   6.951  0.0945  0.0062 -0.2380
  726loPI   C2A10940  14.136  12.494   7.312  0.1499  0.0422  0.1944
  726loPI   C3A10941  14.215  12.552   7.742 -0.0461  0.1656 -0.1801
  726loPI   C4A10942  14.160  12.574   8.098 -0.2814 -0.2277 -0.0337
  726loPI   C5A10943  14.304  12.482   8.492 -0.1430  0.0132  0.0003
  726loPI   C6A10944  14.568  12.152   8.598 -0.3676 -0.0659 -0.2762
  726loPI   C1B10945  14.119  11.907   6.878  0.0521 -0.4161  0.0356
  726loPI   C2B10946  14.172  11.987   7.311 -0.1299  0.0143  0.1184
  726loPI   C3B10947  14.235  12.028   7.728 -0.2351 -0.0403  0.0465
  726loPI   C4B10948  14.192  12.099   8.240  0.2772  0.0474 -0.2503
  727loPI    C110949   5.938  12.816   5.874  0.0608 -0.2138 -0.0239
  727loPI    C210950   6.144  12.528   5.689  0.0840 -0.1212 -0.1434
  727loPI    C310951   6.021  12.849   5.484  0.1519  0.0053  0.0127
  727loPI   PO410952   6.021  12.905   6.056  0.1898  0.0527 -0.4039
  727loPI   GL110953   6.043  12.873   6.407 -0.0589 -0.1236  0.0896
  727loPI   GL210954   5.749  12.818   6.644  0.4042  0.1314  0.3238
  727loPI   C1A10955   6.207  12.963   6.780  0.0405 -0.1684  0.0859
  727loPI   C2A10956   6.126  13.026   7.232  0.1331  0.1926 -0.1388
  727loPI   C3A10957   6.194  13.041   7.709 -0.3260 -0.1263 -0.3029
  727loPI   C4A10958   6.217  13.021   8.123 -0.0272  0.2537  0.0686
  727loPI   C5A10959   6.145  12.927   8.513  0.1252 -0.0772  0.0617
  727loPI   C6A10960   5.885  13.183   8.881 -0.2815 -0.0170  0.3521
  727loPI   C1B10961   5.699  12.775   7.050  0.1636  0.0562  0.1119
  727loPI   C2B10962   5.755  12.826   7.499 -0.0335 -0.2024  0.1431
  727loPI   C3B10963   5.747  12.761   7.860  0.0477 -0.3532 -0.2524
  727loPI   C4B10964   5.749  12.746   8.310  0.0800  0.0213  0.1409
  728loPI    C110965   7.685  11.167   6.116 -0.1489  0.0623 -0.0318
  728loPI    C210966   7.325  11.005   6.056 -0.1142  0.0282 -0.1509
  728loPI    C310967   7.637  10.884   5.838 -0.0298  0.0553 -0.0458
  728loPI   PO410968   7.736  11.207   6.341 -0.0388  0.1134 -0.4200
  728loPI   GL110969   8.020  11.455   6.591 -0.0743  0.1096  0.1121
  728loPI   GL210970   8.163  11.805   6.462  0.2337 -0.1114  0.0432
  728loPI   C1A10971   7.992  11.401   7.063  0.2058 -0.1634  0.0434
  728loPI   C2A10972   7.895  11.480   7.456 -0.0578  0.0506 -0.1246
  728loPI   C3A10973   7.843  11.355   7.909  0.0367  0.3113  0.2134
  728loPI   C4A10974   7.660  11.233   8.216 -0.2095 -0.2690  0.2577
  728loPI   C5A10975   7.544  11.145   8.576 -0.4537 -0.1027  0.1024
  728loPI   C6A10976   7.478  11.195   8.929 -0.3653 -0.1546 -0.0537
  728loPI   C1B10977   8.265  12.154   6.711  0.1025  0.1202  0.1587
  728loPI   C2B10978   8.324  12.282   7.166 -0.1470 -0.1033  0.0372
  728loPI   C3B10979   8.413  12.198   7.490  0.1150  0.2355 -0.1611
  728loPI   C4B10980   8.284  12.191   7.922  0.1207 -0.2005  0.0488
  729loPI    C110981  16.676  11.676   5.965 -0.1361  0.0378  0.0718
  729loPI    C210982  16.366  11.689   5.712 -0.3038  0.0478  0.2744
  729loPI    C310983  16.741  11.696   5.571 -0.3949 -0.0521  0.0227
  729loPI   PO410984  16.632  11.787   6.163 -0.0093 -0.0844 -0.0015
  729loPI   GL110985  16.764  12.027   6.531  0.1137  0.3763 -0.2248
  729loPI   GL210986  16.513  12.246   6.707  0.0597 -0.2607  0.1053
  729loPI   C1A10987  16.910  12.034   6.975  0.3748  0.3794  0.0143
  729loPI   C2A10988  17.011  12.097   7.407  0.2606  0.0843 -0.0804
  729loPI   C3A10989  16.969  12.085   7.860  0.0803  0.1398 -0.1698
  729loPI   C4A10990  16.843  12.166   8.260  0.1194  0.1301 -0.1942
  729loPI   C5A10991  16.648  12.275   8.600 -0.0067 -0.4915  0.0517
  729loPI   C6A10992  16.502  12.079   8.957  0.0549  0.1337 -0.1141
  729loPI   C1B10993  16.557  12.300   7.157  0.0231 -0.2098 -0.0877
  729loPI   C2B10994  16.553  12.318   7.603  0.1643 -0.2154 -0.2409
  729loPI   C3B10995  16.379  12.303   8.071 -0.0304  0.2157  0.1172
  729loPI   C4B10996  16.157  12.547   8.431  0.2812 -0.1728 -0.0873
  730loPI    C110997   1.902  14.196   5.805 -0.1250  0.1213  0.0217
  730loPI    C210998   1.960  13.979   5.474 -0.0516 -0.0779  0.1631
  730loPI    C310999   2.200  14.289   5.555 -0.0658 -0.0326  0.0339
  730loPI   PO411000   1.895  14.054   6.010  0.0799  0.1182  0.0132
  730loPI   GL111001   1.742  14.094   6.367 -0.0847 -0.0452 -0.0061
  730loPI   GL211002   2.015  14.232   6.493  0.0079 -0.1069  0.1833
  730loPI   C1A11003   1.617  13.885   6.786  0.0260  0.2867 -0.0964
  730loPI   C2A11004   1.669  13.920   7.216  0.2790  0.2541 -0.1602
  730loPI   C3A11005   1.724  13.945   7.676 -0.1183 -0.1443 -0.0495
  730loPI   C4A11006   1.734  13.967   8.079  0.2726  0.3210  0.0896
  730loPI   C5A11007   1.751  13.980   8.514 -0.1674 -0.0104  0.1921
  730loPI   C6A11008   1.476  14.093   8.818 -0.0901  0.1945 -0.1218
  730loPI   C1B11009   2.116  14.125   6.900  0.4369  0.1743 -0.0508
  730loPI   C2B11010   2.065  14.158   7.363 -0.2214 -0.0113  0.2109
  730loPI   C3B11011   2.136  14.212   7.757 -0.0296 -0.0231 -0.2498
  730loPI   C4B11012   2.178  14.173   8.236  0.0004  0.1272 -0.0717
  731loPI    C111013   3.672  12.886   5.922  0.0663  0.0170  0.0273
  731loPI    C211014   3.424  13.119   5.713 -0.0632  0.0116  0.1724
  731loPI    C311015   3.809  13.091   5.608 -0.1189  0.0338 -0.0436
  731loPI   PO411016   3.577  12.947   6.170  0.1397 -0.2977  0.1617
  731loPI   GL111017   3.649  13.029   6.546  0.0376 -0.0911 -0.0682
  731loPI   GL211018   3.965  13.188   6.690 -0.1977 -0.0924 -0.0939
  731loPI   C1A11019   3.440  13.127   6.919 -0.2171  0.0215  0.1386
  731loPI   C2A11020   3.520  13.248   7.324 -0.2089 -0.1840 -0.0852
  731loPI   C3A11021   3.558  13.462   7.785  0.1075 -0.0621 -0.0361
  731loPI   C4A11022   3.512  13.530   8.149 -0.0133  0.1694 -0.0635
  731loPI   C5A11023   3.585  13.509   8.523 -0.1343  0.2749  0.3804
  731loPI   C6A11024   3.612  13.701   8.812 -0.0561 -0.2496 -0.0539
  731loPI   C1B11025   3.978  13.179   7.122  0.2877  0.1021  0.1143
  731loPI   C2B11026   4.070  13.242   7.484 -0.0487 -0.1577  0.1589
  731loPI   C3B11027   4.011  13.186   7.876 -0.0309 -0.0368  0.2761
  731loPI   C4B11028   4.052  13.349   8.379  0.0773  0.1083  0.2022
  732loPI    C111029   0.980  16.994   5.783 -0.1038 -0.0742 -0.0831
  732loPI    C211030   1.011  17.099   5.398  0.0593  0.0438 -0.0385
  732loPI    C311031   1.171  16.755   5.525 -0.2106 -0.1154 -0.1243
  732loPI   PO411032   0.703  17.054   5.858 -0.0529 -0.1120 -0.2566
  732loPI   GL111033   0.581  17.091   6.354  0.1035 -0.1103  0.1311
  732loPI   GL211034   0.351  17.172   6.560  0.0122 -0.2250  0.2011
  732loPI   C1A11035   0.698  16.946   6.845  0.0040  0.2017  0.2738
  732loPI   C2A11036   0.709  17.007   7.295 -0.1184  0.3510 -0.3110
  732loPI   C3A11037   0.808  17.030   7.744 -0.3969  0.3149  0.0036
  732loPI   C4A11038   0.786  17.008   8.193  0.2070 -0.1920  0.1340
  732loPI   C5A11039   1.071  16.858   8.543 -0.1357  0.0444 -0.2357
  732loPI   C6A11040   0.901  16.649   8.885  0.1375 -0.1527 -0.0233
  732loPI   C1B11041   0.279  17.182   7.008  0.0860  0.0408 -0.2131
  732loPI   C2B11042   0.261  17.167   7.418 -0.2328 -0.2772 -0.2110
  732loPI   C3B11043   0.399  17.300   7.828  0.0321 -0.0849 -0.1708
  732loPI   C4B11044   0.382  17.284   8.296 -0.0502 -0.0988  0.1732
  733loPI    C111045  17.342   5.164   5.726  0.0309  0.0855 -0.0300
  733loPI    C211046  17.310   5.308   5.354 -0.2706  0.1298  0.0106
  733loPI    C311047  17.073   5.008   5.474 -0.0749  0.0182  0.1231
  733loPI   PO411048  17.541   5.192   5.854  0.0445 -0.2515  0.1305
  733loPI   GL111049  17.554   5.124   6.303 -0.1976 -0.2882 -0.0517
  733loPI   GL211050  17.319   5.238   6.359 -0.0552 -0.1393 -0.0907
  733loPI   C1A11051  17.579   5.007   6.711  0.0135 -0.1280  0.0078
  733loPI   C2A11052  17.689   5.010   7.202  0.3323 -0.0552  0.1201
  733loPI   C3A11053  17.621   5.050   7.620  0.2540  0.2040  0.2459
  733loPI   C4A11054  17.713   5.113   7.981  0.0698 -0.2754  0.1249
  733loPI   C5A11055  17.701   5.102   8.436  0.1980  0.1424 -0.0303
  733loPI   C6A11056  17.707   5.218   8.917  0.1684  0.2228 -0.1559
  733loPI   C1B11057  17.124   5.217   6.806  0.1563  0.2024  0.1457
  733loPI   C2B11058  17.135   5.230   7.264 -0.1118  0.0530  0.0798
  733loPI   C3B11059  17.148   5.329   7.695  0.2420 -0.0269  0.0221
  733loPI   C4B11060  17.291   5.319   8.182 -0.1299 -0.0995  0.1219
  734loPI    C111061  13.282   3.386   5.671  0.0108  0.1259 -0.0560
  734loPI    C211062  13.520   3.113   5.501 -0.2182 -0.2073  0.1465
  734loPI    C311063  13.324   3.377   5.273 -0.0505 -0.2566 -0.0579
  734loPI   PO411064  13.278   3.266   5.971  0.1015 -0.0788  0.1149
  734loPI   GL111065  13.452   3.319   6.399  0.1202  0.3915  0.0988
  734loPI   GL211066  13.781   3.399   6.361 -0.1852 -0.0900  0.1633
  734loPI   C1A11067  13.607   3.320   6.878 -0.2225 -0.1639  0.1288
  734loPI   C2A11068  13.663   3.276   7.306 -0.3903  0.1811 -0.1018
  734loPI   C3A11069  13.614   3.246   7.736 -0.0160 -0.3935 -0.2020
  734loPI   C4A11070  13.600   3.238   8.209 -0.2757 -0.0614 -0.0199
  734loPI   C5A11071  13.683   2.873   8.556 -0.1428 -0.0989  0.1471
  734loPI   C6A11072  13.828   2.664   8.960 -0.1580  0.1584 -0.0043
  734loPI   C1B11073  14.043   3.492   6.695 -0.2607 -0.1991 -0.2231
  734loPI   C2B11074  14.102   3.437   7.133  0.1414 -0.0057 -0.1044
  734loPI   C3B11075  14.009   3.543   7.551 -0.0116  0.0736  0.1980
  734loPI   C4B11076  14.030   3.532   8.033  0.2729  0.2943  0.1025
  735loPI    C111077   8.315   6.902   6.318 -0.1308 -0.2050  0.1913
  735loPI    C211078   8.472   6.613   6.546  0.3305 -0.1762 -0.0774
  735loPI    C311079   8.295   6.521   6.199  0.1749 -0.1642 -0.0021
  735loPI   PO411080   8.466   7.063   6.288  0.2491 -0.0180  0.0319
  735loPI   GL111081   8.571   7.255   6.683 -0.2003 -0.0251  0.0713
  735loPI   GL211082   8.301   7.074   6.843 -0.3577 -0.1047 -0.1732
  735loPI   C1A11083   8.761   7.196   7.112 -0.0232  0.1788  0.2289
  735loPI   C2A11084   8.753   7.126   7.536 -0.0023  0.0767  0.1570
  735loPI   C3A11085   8.767   7.211   8.016 -0.4065  0.0245 -0.1265
  735loPI   C4A11086   8.673   7.350   8.534  0.0460 -0.0127  0.0126
  735loPI   C5A11087   8.296   7.403   8.641  0.0029  0.0814 -0.0449
  735loPI   C6A11088   8.056   7.083   8.905 -0.1392  0.0702  0.2247
  735loPI   C1B11089   8.355   6.883   7.217 -0.0090 -0.1358 -0.1466
  735loPI   C2B11090   8.315   6.867   7.620  0.1687 -0.0968 -0.0677
  735loPI   C3B11091   8.272   6.884   7.949 -0.1026  0.0360  0.0215
  735loPI   C4B11092   8.362   6.891   8.244 -0.2111 -0.0263  0.0314
  736loPI    C111093  11.894   2.931   5.896  0.1464 -0.2236  0.0152
  736loPI    C211094  11.609   2.942   5.616  0.0796  0.0531  0.0912
  736loPI    C311095  11.959   2.765   5.537 -0.0143 -0.0545 -0.0937
  736loPI   PO411096  11.841   2.873   6.145 -0.2439  0.1402  0.1900
  736loPI   GL111097  11.589   2.999   6.490  0.2224 -0.1657  0.0580
  736loPI   GL211098  11.503   3.371   6.585 -0.0727  0.0277 -0.1628
  736loPI   C1A11099  11.428   2.922   6.887 -0.2522 -0.1911  0.1779
  736loPI   C2A11100  11.447   3.023   7.270  0.3355  0.1098 -0.0330
  736loPI   C3A11101  11.467   3.029   7.708 -0.0044 -0.1903  0.0766
  736loPI   C4A11102  11.386   2.947   8.124 -0.1903 -0.2575 -0.1954
  736loPI   C5A11103  11.407   3.064   8.462  0.2129  0.0675  0.1772
  736loPI   C6A11104  11.724   2.906   8.794 -0.0775 -0.0177 -0.1227
  736loPI   C1B11105  11.438   3.488   7.068 -0.1755 -0.3596 -0.0339
  736loPI   C2B11106  11.436   3.525   7.461  0.0487 -0.0312 -0.0803
  736loPI   C3B11107  11.437   3.538   7.876 -0.0925  0.0033 -0.1237
  736loPI   C4B11108  11.498   3.654   8.351 -0.1650 -0.1059  0.0136
  737loPI    C111109   6.546   5.762   6.133  0.1972 -0.0757  0.1927
  737loPI    C211110   6.825   5.963   5.930  0.0214  0.0572  0.0808
  737loPI    C311111   6.791   5.568   5.883  0.0816  0.0649 -0.0329
  737loPI   PO411112   6.605   5.760   6.495  0.1122 -0.1340 -0.0923
  737loPI   GL111113   6.398   5.678   6.864  0.0202  0.0851  0.1958
  737loPI   GL211114   6.469   5.385   6.723 -0.1117 -0.1404 -0.1322
  737loPI   C1A11115   6.450   5.707   7.187 -0.1895  0.0186  0.3052
  737loPI   C2A11116   6.573   5.808   7.523 -0.1905 -0.1916  0.1283
  737loPI   C3A11117   6.514   5.842   7.957 -0.2371 -0.1353 -0.1094
  737loPI   C4A11118   6.588   5.858   8.389  0.0149  0.0686  0.0021
  737loPI   C5A11119   6.439   5.725   8.720 -0.0205  0.4018  0.0624
  737loPI   C6A11120   6.177   5.385   8.875 -0.0711  0.0056  0.2104
  737loPI   C1B11121   6.594   5.256   7.051  0.2166  0.0065 -0.0286
  737loPI   C2B11122   6.484   5.206   7.405  0.1526  0.0465  0.1020
  737loPI   C3B11123   6.502   5.364   7.760  0.3149  0.1711  0.0268
  737loPI   C4B11124   6.551   5.377   8.186 -0.2588 -0.1005  0.0007
  738loPI    C111125   5.989   1.206   5.958 -0.2169 -0.0519  0.0571
  738loPI    C211126   5.952   1.538   5.739  0.0886 -0.0459  0.0105
  738loPI    C311127   6.010   1.186   5.559  0.1276 -0.0718  0.0739
  738loPI   PO411128   5.845   1.256   6.173  0.4850 -0.0655  0.2692
  738loPI   GL111129   6.094   1.350   6.482 -0.0173 -0.1914  0.0803
  738loPI   GL211130   6.430   1.212   6.639 -0.1251  0.1028  0.0939
  738loPI   C1A11131   6.069   1.450   6.907  0.3587 -0.1021  0.0747
  738loPI   C2A11132   5.983   1.437   7.305 -0.0485  0.0660  0.2050
  738loPI   C3A11133   6.090   1.328   7.794  0.3423  0.0669  0.0947
  738loPI   C4A11134   6.139   1.350   8.239 -0.1680 -0.1448  0.0924
  738loPI   C5A11135   5.931   1.436   8.781 -0.0863 -0.0655  0.2972
  738loPI   C6A11136   5.527   1.487   8.883 -0.1587 -0.1663  0.0157
  738loPI   C1B11137   6.618   1.139   7.031  0.0985  0.2015  0.1441
  738loPI   C2B11138   6.675   1.081   7.402  0.3207 -0.0603  0.0268
  738loPI   C3B11139   6.567   1.145   7.837 -0.1185  0.0485  0.0421
  738loPI   C4B11140   6.550   1.147   8.261 -0.2590 -0.1517  0.1484
  739loPI    C111141  13.827   9.735   5.885 -0.0456  0.0086 -0.0222
  739loPI    C211142  14.177   9.772   5.697 -0.1623  0.0355 -0.2372
  739loPI    C311143  13.929   9.474   5.600 -0.1231 -0.0911  0.0405
  739loPI   PO411144  13.895   9.750   6.091  0.1255  0.0085 -0.0597
  739loPI   GL111145  13.749   9.992   6.410  0.0177 -0.1344  0.0202
  739loPI   GL211146  13.450  10.020   6.352  0.0502  0.2568 -0.0572
  739loPI   C1A11147  13.840  10.105   6.839 -0.3219  0.1927 -0.1160
  739loPI   C2A11148  13.745  10.095   7.273 -0.1429 -0.1560 -0.0238
  739loPI   C3A11149  13.694  10.180   7.687  0.2591 -0.0064  0.4176
  739loPI   C4A11150  13.735  10.257   8.091 -0.0649 -0.1996 -0.0539
  739loPI   C5A11151  13.302  10.298   8.350  0.2005 -0.0146 -0.2518
  739loPI   C6A11152  12.951  10.066   8.492  0.0911 -0.0343  0.1761
  739loPI   C1B11153  13.398   9.934   6.747  0.0345 -0.1253 -0.2861
  739loPI   C2B11154  13.251   9.829   7.129 -0.2749  0.1172 -0.2146
  739loPI   C3B11155  13.172   9.794   7.632 -0.4384  0.0310  0.0248
  739loPI   C4B11156  13.260   9.882   8.059  0.2635  0.0531 -0.1973
  740loPI    C111157   3.831  11.770   5.860 -0.0496 -0.0271 -0.0815
  740loPI    C211158   3.991  11.413   5.776 -0.1025 -0.1062  0.1482
  740loPI    C311159   3.743  11.587   5.515  0.0252 -0.1765 -0.0221
  740loPI   PO411160   3.837  11.715   6.163 -0.2245 -0.0516  0.0557
  740loPI   GL111161   3.848  11.645   6.625 -0.1352 -0.0657  0.1021
  740loPI   GL211162   4.114  11.376   6.532  0.3456 -0.0112  0.3344
  740loPI   C1A11163   4.019  11.607   7.015  0.1040  0.2431  0.2195
  740loPI   C2A11164   4.031  11.737   7.419  0.1543  0.2258 -0.1598
  740loPI   C3A11165   3.995  11.730   7.846 -0.1076  0.3035  0.0424
  740loPI   C4A11166   4.021  11.678   8.272 -0.0357  0.0187  0.2460
  740loPI   C5A11167   3.764  11.749   8.691  0.4495 -0.1961  0.1795
  740loPI   C6A11168   3.802  12.099   9.012  0.1605 -0.1058  0.0176
  740loPI   C1B11169   4.050  11.161   6.970 -0.0664 -0.0498 -0.1290
  740loPI   C2B11170   3.996  11.261   7.441 -0.0701  0.1554 -0.0693
  740loPI   C3B11171   4.000  11.141   7.923 -0.1555  0.0713  0.0925
  740loPI   C4B11172   4.015  11.199   8.390 -0.0363 -0.0728  0.1285
  741loPI    C111173   1.121  11.824   5.814  0.0632  0.0987 -0.1076
  741loPI    C211174   1.491  11.889   5.676  0.0342  0.4507 -0.0294
  741loPI    C311175   1.174  11.990   5.454 -0.0209 -0.0257 -0.1781
  741loPI   PO411176   1.175  11.705   6.158  0.1243 -0.0240 -0.1422
  741loPI   GL111177   1.101  11.731   6.542 -0.3110  0.0077 -0.2813
  741loPI   GL211178   0.869  11.818   6.722  0.0030  0.2243 -0.3178
  741loPI   C1A11179   1.299  11.506   6.901  0.3410 -0.0146  0.0271
  741loPI   C2A11180   1.315  11.531   7.383  0.0428  0.0649 -0.0972
  741loPI   C3A11181   1.396  11.640   7.787  0.3260 -0.1133 -0.2547
  741loPI   C4A11182   1.291  11.605   8.232 -0.1204  0.0298 -0.0213
  741loPI   C5A11183   1.261  11.682   8.627 -0.1535 -0.2605 -0.0294
  741loPI   C6A11184   1.015  11.793   8.917 -0.0072  0.0663 -0.0760
  741loPI   C1B11185   0.902  11.830   7.123 -0.0106 -0.0859 -0.2025
  741loPI   C2B11186   0.931  11.798   7.513 -0.0507 -0.0416 -0.0932
  741loPI   C3B11187   0.931  11.872   7.998 -0.0052 -0.0489 -0.2542
  741loPI   C4B11188   0.800  11.882   8.409  0.2863  0.0271 -0.1261
  742loPI    C111189  17.138   3.036   5.807 -0.1335  0.3026 -0.0057
  742loPI    C211190  16.849   2.803   5.956  0.0105 -0.0177 -0.2146
  742loPI    C311191  16.825   2.935   5.579  0.1823 -0.1266 -0.2648
  742loPI   PO411192  17.165   3.211   6.030  0.0460 -0.1917  0.2155
  742loPI   GL111193  17.143   3.193   6.390  0.2489  0.1354 -0.0717
  742loPI   GL211194  17.174   2.830   6.321 -0.1491  0.0934 -0.2105
  742loPI   C1A11195  17.119   3.171   6.832  0.1269 -0.3781  0.0028
  742loPI   C2A11196  17.196   3.194   7.296 -0.0568 -0.3473  0.0562
  742loPI   C3A11197  17.282   3.204   7.757  0.0464  0.0461 -0.0169
  742loPI   C4A11198  17.219   3.170   8.152 -0.1532 -0.2072 -0.1775
  742loPI   C5A11199  16.903   3.134   8.510 -0.1544  0.3794  0.0214
  742loPI   C6A11200  16.993   2.893   8.944 -0.0901 -0.2367  0.0746
  742loPI   C1B11201  17.135   2.757   6.611  0.0273  0.2057  0.0713
  742loPI   C2B11202  17.167   2.699   7.093 -0.3883  0.1168 -0.1973
  742loPI   C3B11203  17.222   2.754   7.530 -0.2580  0.0635  0.3422
  742loPI   C4B11204  17.301   2.711   8.000 -0.1448 -0.1974  0.0534
  743loPI    C111205  13.876   6.444   5.796  0.0111  0.1792 -0.2428
  743loPI    C211206  14.134   6.619   5.547  0.3963 -0.1249 -0.0679
  743loPI    C311207  14.061   6.227   5.516  0.0687 -0.0704 -0.0162
  743loPI   PO411208  13.890   6.538   6.008 -0.0731 -0.1386  0.0806
  743loPI   GL111209  14.093   6.420   6.454 -0.2146 -0.1402  0.3198
  743loPI   GL211210  14.288   6.640   6.425  0.0716  0.0205  0.2221
  743loPI   C1A11211  14.096   6.163   6.764 -0.3540  0.0281 -0.0434
  743loPI   C2A11212  14.164   6.203   7.234 -0.0566 -0.1045 -0.3464
  743loPI   C3A11213  14.094   6.180   7.724 -0.2151 -0.0388 -0.0217
  743loPI   C4A11214  14.135   6.218   8.156 -0.1983  0.1509 -0.2012
  743loPI   C5A11215  13.935   6.390   8.517  0.4396 -0.0098  0.0257
  743loPI   C6A11216  13.582   6.704   8.708 -0.1809  0.0305  0.0669
  743loPI   C1B11217  14.077   6.633   6.913  0.1669 -0.0252  0.0307
  743loPI   C2B11218  14.023   6.632   7.344 -0.2734 -0.0171 -0.1147
  743loPI   C3B11219  14.178   6.639   7.720  0.1544  0.0407 -0.1262
  743loPI   C4B11220  14.264   6.797   8.113 -0.0987  0.1329 -0.1937
  744loPI    C111221   0.015  13.618   5.956 -0.0475  0.0952  0.1195
  744loPI    C211222   0.035  13.900   5.673 -0.0025 -0.0010  0.0261
  744loPI    C311223  -0.078  13.528   5.578 -0.0748 -0.0117  0.1513
  744loPI   PO411224  -0.154  13.678   6.231 -0.2133  0.1542 -0.0623
  744loPI   GL111225  -0.439  13.577   6.453  0.1603 -0.0721 -0.3649
  744loPI   GL211226  -0.621  13.372   6.472 -0.1438 -0.0232  0.3115
  744loPI   C1A11227  -0.477  13.609   6.934  0.2044  0.0347  0.1333
  744loPI   C2A11228  -0.440  13.534   7.431  0.1785 -0.2679 -0.0025
  744loPI   C3A11229  -0.544  13.625   7.858 -0.2159  0.1148  0.0282
  744loPI   C4A11230  -0.561  13.615   8.291 -0.2282 -0.1549  0.4347
  744loPI   C5A11231  -0.754  13.548   8.640 -0.0329  0.0610  0.0979
  744loPI   C6A11232  -1.113  13.793   8.850  0.1525 -0.1081  0.1363
  744loPI   C1B11233  -0.867  13.310   6.815 -0.1022  0.1021  0.0508
  744loPI   C2B11234  -0.890  13.391   7.151  0.1017 -0.1628  0.1608
  744loPI   C3B11235  -0.893  13.364   7.576  0.0725  0.1423 -0.0797
  744loPI   C4B11236  -0.939  13.350   8.092  0.0533 -0.1607 -0.2226
  745loPI    C111237   3.644   1.091   5.941 -0.1196  0.0521 -0.0630
  745loPI    C211238   3.461   1.274   5.637 -0.0644 -0.1068 -0.1929
  745loPI    C311239   3.639   0.920   5.580  0.3048  0.0554 -0.0759
  745loPI   PO411240   3.695   1.252   6.155  0.0483 -0.0715  0.0759
  745loPI   GL111241   3.800   1.407   6.529 -0.1953  0.1187 -0.2680
  745loPI   GL211242   3.418   1.319   6.593 -0.3992  0.0905  0.1239
  745loPI   C1A11243   3.832   1.432   6.903  0.2877 -0.2605 -0.0087
  745loPI   C2A11244   3.832   1.494   7.335  0.0619  0.1835  0.0725
  745loPI   C3A11245   3.873   1.523   7.784  0.0351 -0.1164  0.0352
  745loPI   C4A11246   3.969   1.769   8.102  0.2003 -0.2089 -0.0016
  745loPI   C5A11247   3.807   1.932   8.448 -0.1798 -0.2594 -0.1276
  745loPI   C6A11248   3.888   2.298   8.611 -0.1495  0.6823 -0.2223
  745loPI   C1B11249   3.355   1.206   7.043  0.1006 -0.1944 -0.0419
  745loPI   C2B11250   3.377   1.270   7.475  0.1232 -0.0053  0.0842
  745loPI   C3B11251   3.368   1.210   7.961 -0.4638  0.0241 -0.3991
  745loPI   C4B11252   3.343   1.269   8.360  0.1009 -0.0483  0.1602
  746loPI    C111253  11.891   3.402   5.945 -0.2782 -0.4896 -0.0547
  746loPI    C211254  11.677   3.466   5.612 -0.2119 -0.1721 -0.0388
  746loPI    C311255  12.041   3.301   5.588 -0.1568 -0.0381 -0.1372
  746loPI   PO411256  11.707   3.466   6.146 -0.0094  0.2126 -0.1037
  746loPI   GL111257  11.983   3.362   6.507 -0.3653 -0.3353  0.0939
  746loPI   GL211258  12.136   3.158   6.439  0.1463  0.0570  0.1773
  746loPI   C1A11259  11.885   3.206   6.840  0.1128 -0.2646  0.0301
  746loPI   C2A11260  11.888   3.314   7.218  0.0052  0.1001 -0.2485
  746loPI   C3A11261  11.875   3.300   7.664  0.2388  0.0676  0.0780
  746loPI   C4A11262  11.900   3.419   8.070 -0.1301  0.0579  0.4065
  746loPI   C5A11263  11.878   3.279   8.457  0.1005  0.0709 -0.0613
  746loPI   C6A11264  12.079   3.352   8.897 -0.1223 -0.0012 -0.0507
  746loPI   C1B11265  12.331   2.951   6.819 -0.1246 -0.3407  0.0988
  746loPI   C2B11266  12.387   2.887   7.238 -0.0772 -0.1411 -0.0065
  746loPI   C3B11267  12.366   2.973   7.748  0.0240  0.0364  0.3423
  746loPI   C4B11268  12.262   2.982   8.228 -0.0376  0.0821  0.1973
  747loPI    C111269  12.911  14.722   5.543  0.0355 -0.0179 -0.0440
  747loPI    C211270  13.215  14.519   5.381  0.0618  0.1014 -0.1464
  747loPI    C311271  13.044  14.817   5.178 -0.2068 -0.0459 -0.1413
  747loPI   PO411272  12.941  14.726   5.765  0.0852  0.2801  0.2455
  747loPI   GL111273  13.006  14.746   6.240 -0.0236 -0.2052 -0.1890
  747loPI   GL211274  13.305  14.613   6.331 -0.0277 -0.1249 -0.2029
  747loPI   C1A11275  12.741  14.845   6.569 -0.2336  0.1122  0.0403
  747loPI   C2A11276  12.717  14.776   6.919 -0.1791  0.3378  0.1340
  747loPI   C3A11277  12.766  14.802   7.349  0.0151  0.0045 -0.1262
  747loPI   C4A11278  12.821  14.754   7.851  0.1430 -0.3421  0.0950
  747loPI   C5A11279  12.729  14.338   8.178 -0.0532 -0.0763 -0.2359
  747loPI   C6A11280  12.490  13.907   8.254  0.1776 -0.2005  0.1297
  747loPI   C1B11281  13.203  14.616   6.752 -0.0360  0.1562  0.0206
  747loPI   C2B11282  13.247  14.528   7.174  0.4810 -0.0450 -0.0279
  747loPI   C3B11283  13.219  14.574   7.537 -0.1388  0.1607 -0.2604
  747loPI   C4B11284  13.254  14.551   7.928  0.1091 -0.0987  0.0914
  748loPI    C111285  13.065  12.964   5.857  0.0577  0.0760 -0.1843
  748loPI    C211286  12.879  12.626   5.750 -0.1223  0.0775  0.1139
  748loPI    C311287  13.250  12.700   5.620 -0.1648 -0.1302 -0.1328
  748loPI   PO411288  13.020  13.050   6.105 -0.0224  0.1050 -0.0957
  748loPI   GL111289  13.269  13.044   6.413 -0.1556 -0.0357  0.0064
  748loPI   GL211290  13.163  13.387   6.520 -0.3779  0.1815 -0.0006
  748loPI   C1A11291  13.236  13.010   6.825  0.2628  0.1464  0.0562
  748loPI   C2A11292  13.348  13.007   7.265  0.1550  0.2285 -0.2557
  748loPI   C3A11293  13.268  12.955   7.712 -0.2302 -0.2601 -0.0135
  748loPI   C4A11294  13.247  13.006   8.111 -0.2117 -0.2897  0.0111
  748loPI   C5A11295  13.327  13.121   8.514 -0.3053 -0.2868 -0.1867
  748loPI   C6A11296  13.672  13.130   8.848 -0.2227  0.1512 -0.1874
  748loPI   C1B11297  13.273  13.582   6.884 -0.0074 -0.2013 -0.1434
  748loPI   C2B11298  13.250  13.508   7.358 -0.0549  0.0287 -0.1578
  748loPI   C3B11299  13.322  13.474   7.751  0.0360 -0.0668 -0.1763
  748loPI   C4B11300  13.382  13.513   8.166 -0.0595 -0.3499 -0.2629
  749loPI    C111301   7.142   6.734   5.926  0.0255 -0.0446 -0.1958
  749loPI    C211302   6.774   6.592   5.993  0.0440 -0.1267 -0.2662
  749loPI    C311303   6.834   6.987   5.963 -0.0521 -0.1170 -0.3372
  749loPI   PO411304   7.389   6.610   6.141  0.2857 -0.0431  0.1936
  749loPI   GL111305   7.382   6.408   6.546  0.0159 -0.2281  0.0292
  749loPI   GL211306   7.559   6.391   6.925 -0.0272  0.1675 -0.0074
  749loPI   C1A11307   7.081   6.577   6.858 -0.0819 -0.0576  0.1006
  749loPI   C2A11308   6.888   6.614   7.285  0.2067  0.1359  0.0095
  749loPI   C3A11309   6.936   6.571   7.714  0.1735  0.0017  0.0594
  749loPI   C4A11310   7.019   6.622   8.127 -0.0559  0.0943 -0.1220
  749loPI   C5A11311   6.888   6.915   8.588 -0.0277  0.0717 -0.0829
  749loPI   C6A11312   7.158   7.070   8.935 -0.2313 -0.3342  0.2788
  749loPI   C1B11313   7.360   6.362   7.320  0.1605  0.0051  0.1694
  749loPI   C2B11314   7.407   6.403   7.748  0.2684  0.0377  0.0364
  749loPI   C3B11315   7.445   6.353   8.168 -0.3442 -0.2566 -0.0906
  749loPI   C4B11316   7.343   6.562   8.513  0.2240 -0.2985  0.0785
  750loPI    C111317  15.524   2.121   5.576 -0.2132  0.2170  0.0693
  750loPI    C211318  15.292   2.343   5.337 -0.0779  0.2194 -0.0612
  750loPI    C311319  15.259   1.944   5.333 -0.2229  0.2293  0.0710
  750loPI   PO411320  15.551   2.206   5.779  0.0838  0.0706  0.0554
  750loPI   GL111321  15.533   2.047   6.184 -0.0620 -0.0095  0.0043
  750loPI   GL211322  15.394   2.208   6.348 -0.3168  0.0267  0.2701
  750loPI   C1A11323  15.579   1.767   6.569  0.2692  0.0201 -0.0607
  750loPI   C2A11324  15.439   1.713   6.977 -0.0185 -0.1734  0.1489
  750loPI   C3A11325  15.418   1.641   7.550 -0.1368 -0.1215  0.0646
  750loPI   C4A11326  15.456   1.808   8.022  0.0929 -0.0549 -0.0642
  750loPI   C5A11327  15.342   2.011   8.388 -0.1678 -0.1583  0.3219
  750loPI   C6A11328  15.463   2.439   8.560 -0.0521  0.0097 -0.2595
  750loPI   C1B11329  15.408   2.191   6.771  0.3949  0.2182  0.0080
  750loPI   C2B11330  15.417   2.289   7.154 -0.3070 -0.1957 -0.0957
  750loPI   C3B11331  15.411   2.183   7.616  0.0364  0.1295  0.2496
  750loPI   C4B11332  15.465   2.337   8.053  0.5189  0.3093 -0.2308
  751loPI    C111333   1.641  15.446   5.749  0.0858  0.0130 -0.0186
  751loPI    C211334   1.484  15.432   5.381 -0.0921 -0.3787  0.0678
  751loPI    C311335   1.876  15.492   5.428 -0.1171  0.0002 -0.1713
  751loPI   PO411336   1.462  15.294   5.876 -0.0978  0.4939 -0.2109
  751loPI   GL111337   1.509  15.287   6.296  0.1302 -0.1351  0.1466
  751loPI   GL211338   1.716  15.022   6.463 -0.0062  0.2613  0.2769
  751loPI   C1A11339   1.277  15.286   6.718  0.1335 -0.0899  0.1142
  751loPI   C2A11340   1.230  15.213   7.119  0.0627  0.1471 -0.1077
  751loPI   C3A11341   1.354  15.193   7.531  0.0511  0.0604 -0.3255
  751loPI   C4A11342   1.310  15.240   7.995 -0.1848  0.2412  0.1734
  751loPI   C5A11343   1.188  15.228   8.444  0.3291  0.0345 -0.1128
  751loPI   C6A11344   0.957  15.354   8.944 -0.4125  0.2827 -0.0613
  751loPI   C1B11345   1.682  14.983   6.786  0.1175  0.1967 -0.0418
  751loPI   C2B11346   1.659  14.962   7.248  0.0024  0.1504  0.1481
  751loPI   C3B11347   1.803  15.012   7.708  0.0200 -0.2177 -0.1547
  751loPI   C4B11348   1.788  14.992   8.207  0.0855  0.0936 -0.2524
  752loPI    C111349   7.717   1.993   5.862 -0.0782 -0.3014  0.1690
  752loPI    C211350   7.443   1.896   5.587  0.0972 -0.1381 -0.0671
  752loPI    C311351   7.764   1.663   5.640  0.2450  0.0189 -0.2558
  752loPI   PO411352   7.592   2.026   6.139  0.1337  0.3136 -0.0683
  752loPI   GL111353   7.892   2.059   6.381  0.0011  0.0002  0.0163
  752loPI   GL211354   7.934   2.351   6.496  0.0930 -0.1483 -0.0660
  752loPI   C1A11355   7.975   1.839   6.689  0.0487  0.2250  0.4585
  752loPI   C2A11356   7.982   1.870   7.153 -0.1095 -0.1179  0.1076
  752loPI   C3A11357   7.946   1.960   7.607  0.0140  0.2284  0.0355
  752loPI   C4A11358   8.032   2.005   8.086 -0.0954 -0.2608  0.1929
  752loPI   C5A11359   7.945   2.023   8.474  0.0203  0.1146  0.1132
  752loPI   C6A11360   7.739   1.862   8.824 -0.3195 -0.3076 -0.0881
  752loPI   C1B11361   7.878   2.346   6.853 -0.2500  0.2683 -0.3151
  752loPI   C2B11362   7.840   2.382   7.320 -0.0470 -0.0519 -0.0282
  752loPI   C3B11363   7.883   2.472   7.788 -0.2681  0.0873 -0.1446
  752loPI   C4B11364   7.933   2.462   8.176 -0.2126  0.0564 -0.0970
  753loPI    C111365  15.802  12.569   5.687 -0.2430 -0.0840  0.1055
  753loPI    C211366  15.644  12.357   5.387 -0.1742 -0.1640  0.1256
  753loPI    C311367  15.727  12.745   5.336 -0.0665 -0.2021  0.0072
  753loPI   PO411368  15.923  12.457   5.830 -0.1635 -0.0692  0.0512
  753loPI   GL111369  15.957  12.699   6.204  0.2165 -0.1790 -0.1229
  753loPI   GL211370  15.630  12.670   6.201 -0.2462  0.2428 -0.3136
  753loPI   C1A11371  15.937  12.972   6.567 -0.1589  0.3236  0.1964
  753loPI   C2A11372  15.932  13.098   7.035  0.0725 -0.2299  0.1031
  753loPI   C3A11373  16.128  13.058   7.453  0.1047  0.1275 -0.0645
  753loPI   C4A11374  16.026  13.074   7.775  0.0294 -0.2361 -0.0136
  753loPI   C5A11375  16.013  13.054   8.313  0.1438 -0.0314  0.1061
  753loPI   C6A11376  16.113  13.272   8.743 -0.0999  0.4616  0.1848
  753loPI   C1B11377  15.493  12.618   6.593 -0.2709 -0.0440  0.1640
  753loPI   C2B11378  15.492  12.780   7.014  0.3765 -0.2161 -0.0042
  753loPI   C3B11379  15.592  12.831   7.450  0.1206  0.0261  0.1373
  753loPI   C4B11380  15.598  12.858   7.910  0.0276  0.1511  0.6968
  754loPI    C111381   9.221   1.197   5.970 -0.1303  0.0585 -0.0798
  754loPI    C211382   9.155   0.808   6.038 -0.2257  0.0851 -0.0181
  754loPI    C311383   9.303   0.927   5.686 -0.1188 -0.0146 -0.0076
  754loPI   PO411384   9.328   1.280   6.195 -0.2307 -0.1944  0.1768
  754loPI   GL111385   9.252   1.051   6.560  0.0301 -0.0924  0.0111
  754loPI   GL211386   9.214   0.705   6.515 -0.1493  0.2431  0.0564
  754loPI   C1A11387   9.291   1.136   7.000  0.2322  0.1050  0.0312
  754loPI   C2A11388   9.227   1.180   7.443 -0.0855  0.0155  0.1618
  754loPI   C3A11389   9.309   1.217   7.885 -0.1694  0.4595 -0.1867
  754loPI   C4A11390   9.342   1.222   8.269  0.0060  0.0012 -0.1723
  754loPI   C5A11391   9.583   1.464   8.596  0.1942  0.1631  0.0643
  754loPI   C6A11392   9.993   1.533   8.844  0.1982  0.1014  0.2194
  754loPI   C1B11393   9.267   0.581   6.890  0.0768  0.2167  0.0724
  754loPI   C2B11394   9.262   0.672   7.348 -0.2039  0.1117  0.1544
  754loPI   C3B11395   9.275   0.699   7.836 -0.1527 -0.2049  0.0602
  754loPI   C4B11396   9.194   0.725   8.175 -0.2546 -0.1484  0.0402
  755loPI    C111397   4.789   7.604   5.648 -0.0787 -0.1224 -0.0385
  755loPI    C211398   4.718   7.262   5.453 -0.0197 -0.2383  0.1406
  755loPI    C311399   4.714   7.610   5.255  0.1293 -0.3620 -0.0847
  755loPI   PO411400   4.605   7.629   5.848 -0.2024  0.1708 -0.0706
  755loPI   GL111401   4.765   7.545   6.244 -0.0630 -0.1948  0.0254
  755loPI   GL211402   4.671   7.727   6.383  0.0295  0.4308 -0.0881
  755loPI   C1A11403   5.069   7.571   6.666  0.2003 -0.2190 -0.2172
  755loPI   C2A11404   5.144   7.529   7.091  0.1401 -0.1253 -0.0495
  755loPI   C3A11405   5.100   7.618   7.478 -0.1143  0.1911  0.0767
  755loPI   C4A11406   5.071   7.582   7.855  0.1506  0.2007 -0.1884
  755loPI   C5A11407   5.173   7.601   8.264 -0.1824 -0.0652 -0.0901
  755loPI   C6A11408   4.902   7.915   8.453 -0.1162 -0.1853  0.0732
  755loPI   C1B11409   4.546   7.748   6.740  0.1222 -0.2233 -0.0717
  755loPI   C2B11410   4.656   7.784   7.135  0.1969  0.3427  0.2342
  755loPI   C3B11411   4.599   7.751   7.595  0.0296 -0.3748 -0.1206
  755loPI   C4B11412   4.607   7.787   8.006  0.2224  0.0825  0.2930
  756loPI    C111413   2.193   6.579   6.090 -0.1717  0.2669  0.1805
  756loPI    C211414   2.145   6.296   5.812  0.1217  0.2155  0.1798
  756loPI    C311415   2.193   6.678   5.702  0.2301  0.1963  0.1584
  756loPI   PO411416   2.084   6.479   6.256 -0.0426  0.0996 -0.1467
  756loPI   GL111417   2.158   6.443   6.673 -0.4060  0.0614  0.0722
  756loPI   GL211418   1.943   6.693   6.699 -0.3705  0.1159 -0.1829
  756loPI   C1A11419   2.408   6.421   6.978  0.0540 -0.1413 -0.1264
  756loPI   C2A11420   2.487   6.468   7.399 -0.2764  0.0981  0.0145
  756loPI   C3A11421   2.403   6.510   7.835 -0.0822  0.0162 -0.0119
  756loPI   C4A11422   2.363   6.502   8.224 -0.1477  0.2837 -0.3307
  756loPI   C5A11423   2.280   6.439   8.714 -0.2933 -0.0589 -0.0536
  756loPI   C6A11424   2.241   6.403   9.130  0.0913  0.0259 -0.2708
  756loPI   C1B11425   1.937   6.595   7.117  0.3975  0.2236 -0.0994
  756loPI   C2B11426   1.985   6.754   7.501 -0.1407 -0.5251 -0.0730
  756loPI   C3B11427   1.985   6.754   7.933 -0.0650  0.0819  0.0144
  756loPI   C4B11428   1.987   6.786   8.404  0.0070  0.4211 -0.1855
  757loPI    C111429   3.513  13.619   5.711  0.1692 -0.2663  0.0204
  757loPI    C211430   3.911  13.599   5.742  0.1968 -0.0455 -0.1660
  757loPI    C311431   3.743  13.857   5.487 -0.0725  0.0564  0.1074
  757loPI   PO411432   3.438  13.576   5.995 -0.0819 -0.2311 -0.0183
  757loPI   GL111433   3.389  13.709   6.383 -0.1141  0.1567  0.1257
  757loPI   GL211434   3.498  13.500   6.598  0.1163  0.0786  0.1921
  757loPI   C1A11435   3.378  14.001   6.713  0.2493 -0.0476 -0.2976
  757loPI   C2A11436   3.514  14.063   7.206  0.1789  0.0704 -0.0784
  757loPI   C3A11437   3.580  13.971   7.679  0.1171  0.0031 -0.3709
  757loPI   C4A11438   3.568  14.025   8.060 -0.0273  0.0441 -0.2175
  757loPI   C5A11439   3.520  14.135   8.564 -0.1103 -0.0315  0.3578
  757loPI   C6A11440   3.153  14.140   8.856  0.0174 -0.1399 -0.0981
  757loPI   C1B11441   3.313  13.594   7.006 -0.2561 -0.2213  0.2910
  757loPI   C2B11442   3.198  13.730   7.427 -0.1307  0.1745 -0.0466
  757loPI   C3B11443   3.085  13.747   7.843 -0.1368 -0.1979 -0.1914
  757loPI   C4B11444   3.115  13.754   8.249 -0.2222 -0.0242  0.1379
  758loPI    C111445  15.453   0.431   5.994  0.1515  0.1167  0.1108
  758loPI    C211446  15.331   0.358   5.620 -0.2603  0.1487  0.2337
  758loPI    C311447  15.715   0.446   5.692 -0.1105 -0.1711 -0.1376
  758loPI   PO411448  15.342   0.248   6.127 -0.2152 -0.1263 -0.0769
  758loPI   GL111449  15.330   0.110   6.525  0.0783  0.0704  0.3836
  758loPI   GL211450  15.497   0.467   6.507  0.0595  0.2095 -0.0458
  758loPI   C1A11451  15.451   0.160   6.925  0.1716 -0.3869 -0.1470
  758loPI   C2A11452  15.423   0.130   7.355 -0.2165  0.0949 -0.0847
  758loPI   C3A11453  15.385   0.165   7.787  0.0308  0.2930  0.2428
  758loPI   C4A11454  15.400   0.106   8.177  0.0695  0.0700 -0.3425
  758loPI   C5A11455  15.516   0.204   8.517 -0.3085 -0.1452  0.0246
  758loPI   C6A11456  15.743   0.575   8.714 -0.0577  0.0831 -0.0992
  758loPI   C1B11457  15.446   0.664   6.918  0.2582 -0.3241 -0.1032
  758loPI   C2B11458  15.502   0.623   7.403  0.1127 -0.0845  0.0174
  758loPI   C3B11459  15.377   0.632   7.881  0.0942  0.0897 -0.3297
  758loPI   C4B11460  15.422   0.659   8.325  0.1485  0.1632  0.0665
  759loPI    C111461   4.401  13.551   5.853  0.1269  0.1463  0.0480
  759loPI    C211462   4.272  13.185   5.756 -0.0716  0.3139 -0.3400
  759loPI    C311463   4.606  13.330   5.590  0.0259  0.2981 -0.1605
  759loPI   PO411464   4.352  13.536   6.108 -0.4552  0.0060 -0.2117
  759loPI   GL111465   4.397  13.401   6.475 -0.3274 -0.0201 -0.1724
  759loPI   GL211466   4.620  13.716   6.524 -0.2814  0.0059 -0.0657
  759loPI   C1A11467   4.331  13.490   6.889 -0.0467  0.0054  0.0691
  759loPI   C2A11468   4.452  13.506   7.235  0.3045 -0.0934  0.2521
  759loPI   C3A11469   4.450  13.515   7.625  0.1771 -0.0976 -0.0417
  759loPI   C4A11470   4.483  13.509   8.035  0.1228  0.2819  0.3806
  759loPI   C5A11471   4.558  13.495   8.435  0.0529  0.0549  0.1140
  759loPI   C6A11472   4.592  13.425   8.858  0.0540  0.1176 -0.0015
  759loPI   C1B11473   4.783  13.771   6.886 -0.2054 -0.1866 -0.1986
  759loPI   C2B11474   4.819  13.834   7.337  0.0972 -0.2898 -0.2718
  759loPI   C3B11475   4.917  13.791   7.799 -0.0498 -0.2273  0.5114
  759loPI   C4B11476   4.906  13.713   8.158 -0.1380  0.0328  0.0347
  760loPI    C111477   5.901   7.722   5.902 -0.0027  0.1550 -0.2348
  760loPI    C211478   5.675   7.424   5.760  0.0741 -0.0520  0.0674
  760loPI    C311479   6.044   7.481   5.616  0.0847 -0.1464  0.0564
  760loPI   PO411480   5.785   7.690   6.215  0.2779 -0.0777  0.0222
  760loPI   GL111481   5.527   7.805   6.537  0.0904 -0.2885  0.2137
  760loPI   GL211482   5.322   8.020   6.448  0.3087  0.1913 -0.2043
  760loPI   C1A11483   5.538   7.865   6.947  0.0234 -0.2425 -0.1252
  760loPI   C2A11484   5.566   7.872   7.372  0.2821  0.0300 -0.4001
  760loPI   C3A11485   5.510   7.804   7.919 -0.5717 -0.1357  0.0063
  760loPI   C4A11486   5.638   7.813   8.338 -0.1879 -0.2857  0.0987
  760loPI   C5A11487   5.377   7.990   8.562 -0.1302 -0.2554 -0.2232
  760loPI   C6A11488   5.414   7.907   9.005  0.0320 -0.0715 -0.0862
  760loPI   C1B11489   5.052   8.059   6.810 -0.0935  0.5117 -0.0209
  760loPI   C2B11490   5.116   8.074   7.240  0.1056 -0.1661  0.1164
  760loPI   C3B11491   5.035   8.076   7.718  0.2433  0.0793 -0.0575
  760loPI   C4B11492   5.163   8.101   8.099  0.1045  0.1241  0.2027
  761loPI    C111493  11.957  10.839   5.705  0.1680  0.0772 -0.0018
  761loPI    C211494  11.611  10.845   5.506  0.1196 -0.2194  0.0679
  761loPI    C311495  11.927  11.045   5.364 -0.0484 -0.0350 -0.0521
  761loPI   PO411496  11.969  10.620   5.867  0.3893  0.4166  0.0672
  761loPI   GL111497  11.861  10.530   6.316 -0.0032 -0.2154  0.2540
  761loPI   GL211498  11.529  10.370   6.341 -0.0451  0.2354 -0.0245
  761loPI   C1A11499  11.887  10.621   6.805 -0.0769 -0.1190 -0.0179
  761loPI   C2A11500  11.945  10.592   7.240 -0.0775 -0.0567 -0.3222
  761loPI   C3A11501  11.978  10.658   7.682 -0.2838  0.1377 -0.1797
  761loPI   C4A11502  11.931  10.782   8.191 -0.0525  0.3505 -0.0629
  761loPI   C5A11503  12.140  10.832   8.564 -0.1187  0.0642  0.0140
  761loPI   C6A11504  12.275  10.919   8.881  0.2371  0.1577  0.0986
  761loPI   C1B11505  11.497  10.352   6.660  0.0162  0.2016 -0.1328
  761loPI   C2B11506  11.368  10.232   7.021  0.1771 -0.0938  0.2355
  761loPI   C3B11507  11.291  10.335   7.484 -0.1372  0.0008  0.0117
  761loPI   C4B11508  11.489  10.435   7.858  0.1073 -0.1889 -0.2993
  762loPI    C111509   2.355  12.876   5.847  0.0004 -0.1826  0.0010
  762loPI    C211510   2.584  13.091   5.600  0.0419  0.0920  0.2727
  762loPI    C311511   2.299  12.854   5.451  0.1618  0.1400 -0.0434
  762loPI   PO411512   2.519  12.846   6.089  0.0484  0.2009  0.0118
  762loPI   GL111513   2.791  12.999   6.371 -0.0733 -0.1735  0.1298
  762loPI   GL211514   3.162  12.831   6.436 -0.1790 -0.1222 -0.2039
  762loPI   C1A11515   2.562  12.813   6.746 -0.1817  0.1251 -0.2123
  762loPI   C2A11516   2.532  12.916   7.213 -0.0371 -0.3878 -0.3149
  762loPI   C3A11517   2.553  12.960   7.670  0.2083 -0.0656  0.0289
  762loPI   C4A11518   2.709  12.972   8.051  0.0913 -0.0129 -0.3599
  762loPI   C5A11519   2.662  12.894   8.530  0.0877  0.0428  0.0083
  762loPI   C6A11520   2.817  13.001   8.931 -0.0134 -0.0323  0.2101
  762loPI   C1B11521   3.022  12.727   6.833 -0.0600 -0.0565  0.4380
  762loPI   C2B11522   3.099  12.783   7.341 -0.0316 -0.0646  0.0409
  762loPI   C3B11523   3.081  12.806   7.774  0.3048 -0.1216 -0.3353
  762loPI   C4B11524   3.156  12.738   8.241  0.3935  0.0890 -0.3337
  763loPI    C111525   7.570   8.672   6.089  0.2030 -0.0503  0.1273
  763loPI    C211526   7.318   8.552   5.802  0.0261 -0.0210  0.2686
  763loPI    C311527   7.708   8.595   5.721  0.0452 -0.4033  0.1375
  763loPI   PO411528   7.396   8.817   6.184 -0.0678 -0.1372 -0.0501
  763loPI   GL111529   7.233   8.995   6.559  0.1252  0.1432 -0.0425
  763loPI   GL211530   6.975   8.722   6.436  0.1461  0.0271  0.1712
  763loPI   C1A11531   7.299   9.140   6.994  0.1125 -0.0786 -0.0821
  763loPI   C2A11532   7.397   8.965   7.315  0.0807  0.0509  0.1513
  763loPI   C3A11533   7.405   8.945   7.747  0.4419 -0.1262  0.2033
  763loPI   C4A11534   7.383   8.983   8.185  0.3523 -0.1610  0.1018
  763loPI   C5A11535   7.499   9.025   8.591 -0.1486 -0.0759 -0.1701
  763loPI   C6A11536   7.553   9.114   8.971 -0.1983  0.1286 -0.2764
  763loPI   C1B11537   6.868   8.792   6.834 -0.2731  0.1537 -0.0387
  763loPI   C2B11538   6.953   8.701   7.245 -0.2166  0.2008 -0.3785
  763loPI   C3B11539   6.941   8.655   7.720 -0.0705  0.1829 -0.1473
  763loPI   C4B11540   7.007   8.686   8.145  0.1102  0.2606 -0.0352
  764loPI    C111541   9.744  10.231   5.825  0.1853 -0.0544 -0.1227
  764loPI    C211542   9.587   9.875   5.731  0.1610 -0.1205  0.1570
  764loPI    C311543   9.898  10.017   5.524 -0.0445 -0.1455 -0.1779
  764loPI   PO411544   9.793  10.234   6.113 -0.0286  0.3171  0.1887
  764loPI   GL111545   9.708  10.152   6.495 -0.2542 -0.4618 -0.3785
  764loPI   GL211546   9.953  10.048   6.631 -0.0066 -0.2151 -0.1227
  764loPI   C1A11547   9.641  10.434   6.887 -0.0207  0.1031  0.1579
  764loPI   C2A11548   9.604  10.428   7.281  0.0134  0.3245 -0.0285
  764loPI   C3A11549   9.696  10.369   7.753 -0.0989  0.6184  0.4883
  764loPI   C4A11550   9.588  10.373   8.161 -0.0975  0.0170  0.0306
  764loPI   C5A11551   9.485  10.491   8.588 -0.1788  0.1577 -0.0935
  764loPI   C6A11552   9.182  10.673   8.888  0.1250 -0.0324  0.2468
  764loPI   C1B11553  10.006  10.158   7.170  0.0579  0.4094  0.1641
  764loPI   C2B11554  10.059  10.067   7.572  0.2700 -0.1007 -0.0385
  764loPI   C3B11555  10.099  10.067   8.025 -0.0335  0.1519  0.0774
  764loPI   C4B11556  10.107  10.324   8.399  0.2727 -0.2018 -0.0403
  765loPI    C111557   8.111   2.995   5.738 -0.1536  0.1812  0.1286
  765loPI    C211558   8.435   3.130   5.547  0.1104 -0.4344  0.1160
  765loPI    C311559   8.103   3.043   5.341 -0.0178  0.0432  0.1082
  765loPI   PO411560   8.232   2.836   5.946  0.1232 -0.0522  0.1533
  765loPI   GL111561   8.064   2.786   6.279 -0.0671 -0.1913  0.0344
  765loPI   GL211562   7.840   2.914   6.444 -0.0029 -0.0314  0.1300
  765loPI   C1A11563   8.256   2.697   6.700  0.1214  0.0035  0.2054
  765loPI   C2A11564   8.359   2.614   7.055  0.0964  0.2054  0.1742
  765loPI   C3A11565   8.294   2.641   7.525 -0.0150 -0.0654 -0.0474
  765loPI   C4A11566   8.368   2.760   7.856  0.1315  0.0567  0.0473
  765loPI   C5A11567   8.329   2.727   8.289  0.1147 -0.2089  0.0614
  765loPI   C6A11568   8.170   2.535   8.617 -0.4699  0.1207  0.1652
  765loPI   C1B11569   7.818   2.871   6.890 -0.1366 -0.0827 -0.0434
  765loPI   C2B11570   7.852   2.859   7.317 -0.0142 -0.0102 -0.3852
  765loPI   C3B11571   7.881   3.014   7.741  0.0353  0.1286  0.0789
  765loPI   C4B11572   7.952   3.059   8.195  0.0105  0.0405  0.2049
  766loPI    C111573  12.088  14.963   5.616 -0.0076  0.1552 -0.0071
  766loPI    C211574  12.403  15.209   5.599 -0.0407  0.1901 -0.1296
  766loPI    C311575  12.127  15.217   5.310 -0.1615  0.1689 -0.0160
  766loPI   PO411576  12.026  15.000   5.939  0.0991 -0.2159  0.3845
  766loPI   GL111577  12.068  14.920   6.305  0.0736 -0.2667 -0.1862
  766loPI   GL211578  12.317  15.083   6.566  0.1071 -0.0548  0.2914
  766loPI   C1A11579  12.000  14.697   6.650  0.1262 -0.1519 -0.0022
  766loPI   C2A11580  11.896  14.773   7.133  0.0011 -0.2696  0.1322
  766loPI   C3A11581  11.860  14.836   7.504 -0.0656  0.4974 -0.1483
  766loPI   C4A11582  11.886  14.846   7.889 -0.2040  0.1651 -0.0168
  766loPI   C5A11583  11.992  14.898   8.294  0.0343  0.0381  0.3104
  766loPI   C6A11584  12.170  14.901   8.653  0.3112  0.0898 -0.1792
  766loPI   C1B11585  12.281  14.972   6.937 -0.5805  0.1428  0.1617
  766loPI   C2B11586  12.362  15.036   7.386 -0.1691 -0.4570  0.1550
  766loPI   C3B11587  12.337  15.016   7.903  0.0710  0.2542 -0.0491
  766loPI   C4B11588  12.521  14.890   8.259  0.1556  0.2136  0.0337
  767loPI    C111589   9.529   3.415   6.043  0.2250 -0.0356  0.0558
  767loPI    C211590   9.889   3.590   6.042  0.1160  0.1914 -0.0200
  767loPI    C311591   9.579   3.767   5.861 -0.0123 -0.0500 -0.0408
  767loPI   PO411592   9.418   3.397   6.264  0.1616  0.2063  0.2658
  767loPI   GL111593   9.419   3.427   6.650 -0.0632  0.3730  0.0212
  767loPI   GL211594   9.506   3.685   6.782 -0.2538 -0.0083  0.0713
  767loPI   C1A11595   9.145   3.115   6.932  0.2131 -0.1439  0.0024
  767loPI   C2A11596   9.146   3.185   7.359 -0.2172 -0.1071  0.0871
  767loPI   C3A11597   9.244   3.212   7.869  0.2345 -0.2786  0.3099
  767loPI   C4A11598   9.148   3.270   8.253  0.2800  0.2314 -0.3549
  767loPI   C5A11599   9.343   3.014   8.606 -0.2588  0.1534  0.0822
  767loPI   C6A11600   9.739   2.826   8.823  0.1300  0.0073  0.3224
  767loPI   C1B11601   9.325   3.592   7.119  0.1196 -0.0831  0.1792
  767loPI   C2B11602   9.417   3.588   7.500  0.1496 -0.3129 -0.4083
  767loPI   C3B11603   9.703   3.516   7.844 -0.0856  0.1150  0.1664
  767loPI   C4B11604   9.704   3.499   8.226  0.0277  0.0455 -0.1650
  768loPI    C111605   9.750  17.331   5.786 -0.2001 -0.1453  0.1581
  768loPI    C211606   9.679  17.594   5.493 -0.0006 -0.0630  0.1816
  768loPI    C311607   9.469  17.254   5.512  0.3316 -0.3129 -0.3618
  768loPI   PO411608  10.011  17.233   5.830 -0.0072 -0.0565  0.1071
  768loPI   GL111609  10.283  17.135   6.188  0.0711 -0.4063  0.0661
  768loPI   GL211610  10.617  17.084   6.322 -0.1618  0.0394 -0.1907
  768loPI   C1A11611  10.216  16.851   6.577  0.0092 -0.0760  0.1806
  768loPI   C2A11612  10.287  16.928   6.975  0.4813  0.2651  0.2290
  768loPI   C3A11613  10.184  16.916   7.297 -0.2858  0.1159  0.2208
  768loPI   C4A11614  10.171  16.932   7.831  0.1261  0.0437  0.1984
  768loPI   C5A11615  10.244  16.944   8.245  0.0849  0.0712 -0.1318
  768loPI   C6A11616  10.368  16.641   8.548  0.0551  0.1430 -0.2213
  768loPI   C1B11617  10.680  17.089   6.710  0.0586 -0.0299 -0.1226
  768loPI   C2B11618  10.659  17.168   7.159 -0.0538 -0.1331 -0.2355
  768loPI   C3B11619  10.618  17.232   7.624 -0.0768  0.0926  0.1349
  768loPI   C4B11620  10.624  17.317   7.996 -0.0572  0.1036 -0.2309
  769loPI    C111621   4.686   3.135   5.970  0.1949 -0.0451  0.0314
  769loPI    C211622   4.687   3.531   5.918 -0.1650 -0.0410  0.0260
  769loPI    C311623   4.878   3.295   5.658 -0.1330  0.1149 -0.0939
  769loPI   PO411624   4.660   3.156   6.278 -0.1996 -0.1812 -0.1247
  769loPI   GL111625   4.509   3.197   6.707 -0.0762 -0.0792 -0.1502
  769loPI   GL211626   4.776   3.429   6.699  0.0642  0.0255  0.2250
  769loPI   C1A11627   4.365   3.345   6.971  0.0462 -0.0535  0.3756
  769loPI   C2A11628   4.319   3.399   7.434 -0.0460 -0.0855  0.1027
  769loPI   C3A11629   4.252   3.425   7.856  0.1582 -0.2107 -0.1787
  769loPI   C4A11630   4.307   3.455   8.316 -0.1453 -0.2984 -0.1688
  769loPI   C5A11631   4.026   3.429   8.682  0.0836  0.0690 -0.1504
  769loPI   C6A11632   3.826   3.407   9.128  0.0812 -0.0317 -0.1882
  769loPI   C1B11633   4.783   3.522   7.176 -0.4410  0.1349  0.3342
  769loPI   C2B11634   4.808   3.644   7.593 -0.0975  0.0967  0.1312
  769loPI   C3B11635   4.830   3.694   8.020 -0.1582  0.3121  0.0727
  769loPI   C4B11636   4.786   3.689   8.387 -0.3037  0.0460  0.0845
  770loPI    C111637   4.690   5.738   6.010 -0.0067 -0.2495  0.0345
  770loPI    C211638   4.356   5.520   5.972 -0.1140 -0.0565 -0.1525
  770loPI    C311639   4.664   5.460   5.724 -0.2250  0.1469 -0.3430
  770loPI   PO411640   4.784   5.752   6.289 -0.0473  0.3049  0.1219
  770loPI   GL111641   4.957   5.621   6.784 -0.2780 -0.0891 -0.0316
  770loPI   GL211642   5.225   5.335   6.921  0.0488 -0.0765  0.0428
  770loPI   C1A11643   4.729   5.686   7.113 -0.3006 -0.1795  0.0741
  770loPI   C2A11644   4.639   5.763   7.596 -0.1837 -0.1595  0.2204
  770loPI   C3A11645   4.675   5.759   8.075 -0.0933  0.3344  0.2036
  770loPI   C4A11646   4.799   5.894   8.392 -0.2784  0.1513 -0.0139
  770loPI   C5A11647   4.762   5.718   8.886  0.0783  0.1240 -0.1590
  770loPI   C6A11648   4.384   5.702   9.176 -0.1297 -0.1504 -0.1086
  770loPI   C1B11649   5.196   5.429   7.295 -0.1155  0.1282 -0.2618
  770loPI   C2B11650   5.060   5.554   7.676 -0.1440  0.1209 -0.5497
  770loPI   C3B11651   5.126   5.487   8.081 -0.1340 -0.3741 -0.2513
  770loPI   C4B11652   5.009   5.433   8.519 -0.1526  0.0232  0.2416
  771loPI    C111653   2.616  13.953   6.141 -0.0489  0.2716 -0.0081
  771loPI    C211654   2.888  13.946   6.434  0.0058  0.1202 -0.0620
  771loPI    C311655   2.995  13.857   6.058 -0.1139  0.0781 -0.0866
  771loPI   PO411656   2.316  13.869   6.312  0.0364 -0.4693  0.1045
  771loPI   GL111657   2.376  13.708   6.649  0.0795  0.0816  0.0772
  771loPI   GL211658   2.095  13.652   6.695  0.2319  0.1856 -0.0091
  771loPI   C1A11659   2.497  13.424   6.951 -0.0904  0.0714 -0.1172
  771loPI   C2A11660   2.580  13.369   7.391 -0.1070 -0.0180 -0.1142
  771loPI   C3A11661   2.591  13.419   7.823 -0.0121  0.1288 -0.2141
  771loPI   C4A11662   2.640  13.456   8.237 -0.1644  0.2152  0.0070
  771loPI   C5A11663   2.579  13.426   8.733  0.1696 -0.0992 -0.3975
  771loPI   C6A11664   2.271  13.664   9.083  0.2543  0.0410  0.0008
  771loPI   C1B11665   2.030  13.622   7.087 -0.0349 -0.1318  0.1190
  771loPI   C2B11666   2.142  13.674   7.577 -0.0245  0.1687 -0.2166
  771loPI   C3B11667   2.156  13.706   8.038 -0.1873 -0.0451 -0.1030
  771loPI   C4B11668   2.206  13.743   8.488  0.1076 -0.1638  0.2673
  772loPI    C111669   8.321   1.298   5.853  0.3523  0.0908 -0.0368
  772loPI    C211670   8.241   1.540   5.545  0.1642  0.0462 -0.0243
  772loPI    C311671   8.469   1.216   5.491  0.0189 -0.0364 -0.1480
  772loPI   PO411672   8.414   1.396   6.066 -0.1334  0.0490  0.4245
  772loPI   GL111673   8.354   1.326   6.473 -0.2941 -0.0876  0.0561
  772loPI   GL211674   8.276   1.104   6.653  0.0386 -0.2504  0.0118
  772loPI   C1A11675   8.377   1.637   6.871  0.0977  0.0767 -0.2400
  772loPI   C2A11676   8.376   1.682   7.334  0.1920  0.0180 -0.0047
  772loPI   C3A11677   8.364   1.714   7.779  0.3177  0.2445 -0.1316
  772loPI   C4A11678   8.423   1.742   8.175 -0.0384  0.3212 -0.1864
  772loPI   C5A11679   8.641   1.848   8.521  0.2040  0.1153 -0.1053
  772loPI   C6A11680   8.983   2.120   8.825 -0.0056  0.3266 -0.0414
  772loPI   C1B11681   8.414   1.176   7.082 -0.2118  0.2819 -0.0457
  772loPI   C2B11682   8.426   1.173   7.451 -0.1132  0.1207 -0.2775
  772loPI   C3B11683   8.329   1.206   7.927 -0.1920 -0.1896  0.0735
  772loPI   C4B11684   8.457   1.300   8.343  0.0771 -0.0236 -0.0074
  773loPI    C111685   6.974   1.555   5.659 -0.1163 -0.0314  0.1624
  773loPI    C211686   7.061   1.653   5.281 -0.0979  0.1842  0.2212
  773loPI    C311687   6.886   1.302   5.362  0.0017  0.0878  0.0248
  773loPI   PO411688   7.021   1.709   5.860 -0.2847 -0.1055 -0.2345
  773loPI   GL111689   6.937   1.597   6.265  0.1959 -0.1307  0.0749
  773loPI   GL211690   7.126   1.884   6.381  0.2027 -0.2045  0.1414
  773loPI   C1A11691   6.908   1.393   6.714  0.0524 -0.1560  0.2026
  773loPI   C2A11692   7.060   1.372   7.167 -0.0708 -0.3336  0.3347
  773loPI   C3A11693   7.013   1.353   7.581  0.1023  0.1407  0.0779
  773loPI   C4A11694   6.970   1.414   7.960  0.2072 -0.0645  0.0421
  773loPI   C5A11695   7.103   1.563   8.343  0.2360 -0.0828  0.1445
  773loPI   C6A11696   7.270   1.869   8.599 -0.3074 -0.0210 -0.0811
  773loPI   C1B11697   6.987   1.842   6.887  0.1603 -0.2172 -0.1480
  773loPI   C2B11698   7.000   1.830   7.348 -0.0806  0.1143 -0.1043
  773loPI   C3B11699   6.952   1.856   7.675  0.1564  0.1681  0.0911
  773loPI   C4B11700   7.070   1.983   8.125  0.0764 -0.1413 -0.1513
  774loPI    C111701  13.330   5.859   6.126  0.2287 -0.0094  0.1825
  774loPI    C211702  13.439   6.244   6.128  0.4469 -0.0676 -0.0609
  774loPI    C311703  13.078   6.139   5.990  0.3911  0.0482 -0.0040
  774loPI   PO411704  13.578   5.740   6.149  0.3198 -0.2423 -0.0496
  774loPI   GL111705  13.762   5.863   6.554  0.0478 -0.2178 -0.0394
  774loPI   GL211706  13.906   5.598   6.576  0.0547 -0.0531 -0.3141
  774loPI   C1A11707  13.529   5.852   6.844 -0.0692  0.1694 -0.1642
  774loPI   C2A11708  13.559   5.859   7.227  0.0695 -0.0594  0.0434
  774loPI   C3A11709  13.613   5.880   7.691 -0.2995  0.0330 -0.4141
  774loPI   C4A11710  13.749   5.939   8.106 -0.2524 -0.1993  0.0444
  774loPI   C5A11711  13.730   5.789   8.513  0.2797  0.1392  0.0977
  774loPI   C6A11712  13.632   5.672   8.884  0.0301 -0.1443 -0.1443
  774loPI   C1B11713  14.054   5.641   6.991  0.2369  0.3157  0.0777
  774loPI   C2B11714  14.003   5.681   7.476 -0.1375 -0.2565  0.3022
  774loPI   C3B11715  14.141   5.662   7.910  0.0004  0.0636 -0.1004
  774loPI   C4B11716  14.207   5.727   8.371  0.1803 -0.2704 -0.0616
  775loPI    C111717  11.006  15.569   5.864  0.1143 -0.1877 -0.1663
  775loPI    C211718  10.653  15.549   5.677  0.0109  0.0230  0.0017
  775loPI    C311719  10.988  15.449   5.483 -0.1127  0.0692 -0.2402
  775loPI   PO411720  10.900  15.770   6.109  0.1133 -0.0302 -0.0109
  775loPI   GL111721  11.054  15.973   6.437 -0.3835  0.0134  0.0274
  775loPI   GL211722  11.370  16.027   6.564  0.0231  0.1545  0.3653
  775loPI   C1A11723  11.020  15.808   6.855 -0.0776  0.1945  0.1965
  775loPI   C2A11724  11.074  15.886   7.256 -0.2104  0.1173  0.0322
  775loPI   C3A11725  11.071  15.999   7.628 -0.0710 -0.1707 -0.0120
  775loPI   C4A11726  11.038  15.893   8.072  0.3328 -0.0030 -0.1262
  775loPI   C5A11727  11.044  15.786   8.544  0.2725  0.0385 -0.3683
  775loPI   C6A11728  10.823  15.577   8.900  0.3543  0.0881 -0.1121
  775loPI   C1B11729  11.492  16.083   6.963  0.2666  0.1376  0.2434
  775loPI   C2B11730  11.535  16.151   7.386  0.0677  0.1737 -0.3305
  775loPI   C3B11731  11.491  16.214   7.825  0.3570 -0.0648  0.0826
  775loPI   C4B11732  11.407  16.074   8.319  0.2844  0.0689 -0.1477
  776loPI    C111733   0.377  12.366   5.977 -0.0805 -0.0670  0.0450
  776loPI    C211734   0.337  12.758   5.910  0.2170 -0.0273  0.0839
  776loPI    C311735   0.372  12.504   5.602 -0.1119 -0.0417  0.0547
  776loPI   PO411736   0.295  12.319   6.211 -0.0514  0.1907 -0.3759
  776loPI   GL111737   0.413  12.453   6.610 -0.0679 -0.3273  0.1510
  776loPI   GL211738   0.734  12.267   6.595  0.1810  0.0846 -0.1275
  776loPI   C1A11739   0.472  12.625   7.049 -0.1087  0.1579 -0.1459
  776loPI   C2A11740   0.435  12.578   7.437  0.0744  0.0524  0.0744
  776loPI   C3A11741   0.469  12.561   7.812  0.1642  0.1796  0.0869
  776loPI   C4A11742   0.417  12.642   8.196 -0.0193  0.0557  0.1926
  776loPI   C5A11743   0.271  12.592   8.591  0.4276  0.1939 -0.2765
  776loPI   C6A11744   0.145  12.405   9.008 -0.1181  0.2518 -0.0247
  776loPI   C1B11745   0.835  12.284   6.905 -0.1818 -0.2009 -0.0750
  776loPI   C2B11746   0.880  12.306   7.386 -0.1079  0.0559  0.1578
  776loPI   C3B11747   0.927  12.425   7.722  0.2184 -0.1349 -0.0269
  776loPI   C4B11748   0.954  12.397   8.135 -0.1300  0.3986 -0.0757
  777loPI    C111749   3.221  15.298   5.606  0.0296 -0.0326  0.3886
  777loPI    C211750   3.584  15.430   5.503 -0.1167 -0.1762 -0.3724
  777loPI    C311751   3.260  15.649   5.418 -0.2294 -0.1255  0.1536
  777loPI   PO411752   3.352  15.179   5.911 -0.1931 -0.1699  0.1173
  777loPI   GL111753   3.396  15.215   6.245  0.0554 -0.0897  0.1580
  777loPI   GL211754   3.152  15.401   6.423 -0.1550 -0.0955  0.4832
  777loPI   C1A11755   3.501  14.993   6.630  0.2573  0.1122  0.1015
  777loPI   C2A11756   3.488  15.005   7.004 -0.2056  0.0137  0.1368
  777loPI   C3A11757   3.485  14.967   7.521  0.3142 -0.2704  0.3422
  777loPI   C4A11758   3.589  15.068   7.903 -0.1259 -0.0435 -0.1301
  777loPI   C5A11759   3.572  15.085   8.255 -0.3627 -0.2339 -0.0198
  777loPI   C6A11760   3.739  15.027   8.667 -0.0502 -0.1170 -0.1092
  777loPI   C1B11761   3.102  15.234   6.816 -0.0083  0.0869  0.0569
  777loPI   C2B11762   3.125  15.264   7.335  0.0700 -0.1385 -0.1078
  777loPI   C3B11763   3.151  15.277   7.758 -0.0256  0.1008  0.0353
  777loPI   C4B11764   3.106  15.297   8.188 -0.0824 -0.1820 -0.0667
  778loPI    C111765  13.700   4.183   5.746  0.0328 -0.0560 -0.0387
  778loPI    C211766  13.368   4.019   5.596  0.0154  0.0543 -0.1210
  778loPI    C311767  13.664   4.131   5.351  0.2520 -0.3435 -0.0237
  778loPI   PO411768  13.749   4.049   5.939 -0.1037 -0.0424 -0.0575
  778loPI   GL111769  13.594   4.117   6.354 -0.0460  0.0418  0.0564
  778loPI   GL211770  13.618   3.839   6.577 -0.0413 -0.0132  0.1364
  778loPI   C1A11771  13.541   4.296   6.700  0.0636  0.0862  0.0985
  778loPI   C2A11772  13.596   4.351   7.122 -0.1918  0.1390  0.2939
  778loPI   C3A11773  13.605   4.316   7.487 -0.1595 -0.3745  0.1110
  778loPI   C4A11774  13.657   4.321   7.934 -0.3615  0.1814 -0.0977
  778loPI   C5A11775  13.560   4.411   8.287 -0.2585 -0.4480  0.0754
  778loPI   C6A11776  13.689   4.424   8.674 -0.1588 -0.0258  0.2510
  778loPI   C1B11777  13.583   3.851   6.969 -0.1439 -0.0909 -0.2802
  778loPI   C2B11778  13.629   3.786   7.357  0.0568  0.1553  0.2709
  778loPI   C3B11779  13.610   3.776   7.817 -0.0793  0.0099 -0.0403
  778loPI   C4B11780  13.636   3.886   8.213  0.0398  0.0185 -0.0909
  779loPI    C111781   3.073  14.388   5.963 -0.0957  0.0156 -0.1166
  779loPI    C211782   3.311  14.190   6.216  0.1076  0.3498 -0.0401
  779loPI    C311783   3.340  14.126   5.822 -0.0801 -0.0342  0.0041
  779loPI   PO411784   2.907  14.447   6.186  0.2037  0.1694  0.1865
  779loPI   GL111785   3.140  14.393   6.674  0.1521  0.2617 -0.1608
  779loPI   GL211786   2.979  14.651   6.673  0.2863  0.0879  0.1654
  779loPI   C1A11787   3.059  14.195   7.083 -0.0255  0.3125  0.0830
  779loPI   C2A11788   3.104  14.176   7.560 -0.3019  0.1360  0.0092
  779loPI   C3A11789   3.052  14.230   7.934 -0.1819 -0.1556  0.0836
  779loPI   C4A11790   3.006  14.322   8.346 -0.3166 -0.0154 -0.0983
  779loPI   C5A11791   2.728  14.367   8.646 -0.3230 -0.0011  0.0876
  779loPI   C6A11792   2.584  14.354   9.067  0.0450  0.4001 -0.1183
  779loPI   C1B11793   2.990  14.723   6.970  0.3664  0.0907  0.1007
  779loPI   C2B11794   3.078  14.760   7.369 -0.1971  0.3143  0.1801
  779loPI   C3B11795   2.986  14.718   7.736 -0.1105 -0.0345  0.1367
  779loPI   C4B11796   3.078  14.819   8.065 -0.4301 -0.0354  0.0334
  780loPI    C111797   6.743   0.681   6.009 -0.0281 -0.0586 -0.0425
  780loPI    C211798   6.833   0.651   5.620 -0.1231  0.0237 -0.0713
  780loPI    C311799   6.584   0.388   5.788 -0.0205 -0.0589 -0.0476
  780loPI   PO411800   6.951   0.696   6.151 -0.2818  0.0467  0.3012
  780loPI   GL111801   7.138   0.910   6.524 -0.1632 -0.5701 -0.1962
  780loPI   GL211802   7.264   1.154   6.411 -0.0010 -0.0920  0.4496
  780loPI   C1A11803   7.005   0.853   6.999  0.0694 -0.1366  0.0726
  780loPI   C2A11804   7.077   0.829   7.466  0.0317 -0.0057 -0.0188
  780loPI   C3A11805   7.015   0.858   7.844 -0.2325  0.3303  0.2307
  780loPI   C4A11806   7.033   1.007   8.340  0.2032  0.0490 -0.4204
  780loPI   C5A11807   7.196   1.277   8.767  0.0629  0.3882  0.2582
  780loPI   C6A11808   7.173   1.655   9.021 -0.0359  0.1074  0.2238
  780loPI   C1B11809   7.479   1.076   6.858 -0.0297  0.3168 -0.3804
  780loPI   C2B11810   7.518   1.120   7.319 -0.0291 -0.0016 -0.2812
  780loPI   C3B11811   7.443   1.138   7.773  0.1317  0.2081  0.1894
  780loPI   C4B11812   7.440   1.243   8.121 -0.0121  0.3292  0.0279
  781loPI    C111813  10.375   3.673   6.001  0.2616  0.3140 -0.1270
  781loPI    C211814  10.633   3.515   5.740  0.1312 -0.0231 -0.0576
  781loPI    C311815  10.287   3.669   5.611  0.0207 -0.2832 -0.0768
  781loPI   PO411816  10.348   3.439   6.176  0.0314 -0.0510  0.0532
  781loPI   GL111817  10.545   3.170   6.547  0.4378 -0.2064  0.3180
  781loPI   GL211818  10.450   3.475   6.709  0.0295  0.2669 -0.0528
  781loPI   C1A11819  10.546   2.995   6.987 -0.2133  0.4856  0.0309
  781loPI   C2A11820  10.585   2.989   7.406 -0.1157  0.1534  0.0441
  781loPI   C3A11821  10.549   2.970   7.770 -0.0560  0.0762 -0.1525
  781loPI   C4A11822  10.598   3.030   8.114 -0.1351 -0.0925 -0.0027
  781loPI   C5A11823  10.514   3.024   8.581  0.1950 -0.0149  0.2660
  781loPI   C6A11824  10.550   3.260   8.921 -0.2464  0.0805  0.0685
  781loPI   C1B11825  10.453   3.574   7.139 -0.1305  0.2817  0.0136
  781loPI   C2B11826  10.544   3.499   7.560 -0.2521  0.0926  0.0138
  781loPI   C3B11827  10.611   3.476   8.003 -0.1477 -0.2558 -0.0963
  781loPI   C4B11828  10.586   3.571   8.399  0.1763 -0.0898  0.2452
  782loPI    C111829   0.101  16.249   5.909 -0.0031 -0.0166  0.0055
  782loPI    C211830   0.375  16.104   5.657 -0.1302  0.0672 -0.1834
  782loPI    C311831   0.196  16.452   5.578 -0.1504  0.1084  0.0387
  782loPI   PO411832   0.201  16.228   6.132 -0.2955  0.0538  0.1323
  782loPI   GL111833   0.362  16.067   6.539 -0.4100  0.3740 -0.0105
  782loPI   GL211834   0.733  15.923   6.599  0.0541 -0.1967  0.0176
  782loPI   C1A11835   0.256  16.172   7.036  0.3658  0.2815 -0.1548
  782loPI   C2A11836   0.305  16.163   7.438 -0.0204  0.2581 -0.0696
  782loPI   C3A11837   0.403  16.227   7.929 -0.3415  0.2688  0.0656
  782loPI   C4A11838   0.338  16.236   8.422  0.1476  0.0541  0.1220
  782loPI   C5A11839   0.477  16.276   8.885 -0.0670 -0.3584 -0.0161
  782loPI   C6A11840   0.397  16.288   9.298  0.0826  0.2399  0.0454
  782loPI   C1B11841   0.684  15.954   6.997 -0.0528 -0.0618  0.1217
  782loPI   C2B11842   0.745  15.958   7.366 -0.1305 -0.2528 -0.1329
  782loPI   C3B11843   0.876  16.021   7.814 -0.3910 -0.2356 -0.1449
  782loPI   C4B11844   0.765  16.077   8.249 -0.0250  0.2288 -0.0482
  783loPI    C111845  15.728  16.936   5.883  0.0189  0.0223 -0.0129
  783loPI    C211846  15.963  16.664   5.707 -0.0127 -0.0047 -0.0134
  783loPI    C311847  15.849  16.990   5.506  0.0564  0.0277 -0.0001
  783loPI   PO411848  15.864  16.880   6.204  0.1648  0.1627  0.0016
  783loPI   GL111849  15.853  17.040   6.570 -0.0693  0.0365  0.1131
  783loPI   GL211850  15.776  17.278   6.615 -0.0904  0.1120 -0.1311
  783loPI   C1A11851  15.386  16.867   6.858 -0.0080  0.1580 -0.0461
  783loPI   C2A11852  15.395  16.918   7.286 -0.1209  0.1986 -0.0681
  783loPI   C3A11853  15.406  16.919   7.612 -0.0433  0.2394 -0.3083
  783loPI   C4A11854  15.410  16.990   8.032 -0.0802  0.0559  0.0052
  783loPI   C5A11855  15.466  16.979   8.404 -0.2011 -0.2427  0.0679
  783loPI   C6A11856  15.247  16.788   8.734 -0.0639  0.0919  0.0172
  783loPI   C1B11857  15.832  17.173   7.081  0.1329 -0.2032  0.2832
  783loPI   C2B11858  15.815  17.154   7.539 -0.3365  0.0685  0.1196
  783loPI   C3B11859  15.815  17.256   7.962  0.1864  0.2111 -0.2797
  783loPI   C4B11860  15.886  17.241   8.376 -0.2089 -0.0061  0.0666
  784loPI    C111861   7.726  14.132   5.837  0.2353  0.1043  0.0608
  784loPI    C211862   7.768  14.018   5.455  0.2695 -0.0895  0.1213
  784loPI    C311863   7.764  14.407   5.549  0.0595 -0.0362 -0.0990
  784loPI   PO411864   7.894  14.002   6.016  0.0382  0.1286 -0.1350
  784loPI   GL111865   7.944  13.998   6.375 -0.0761  0.1010  0.2766
  784loPI   GL211866   8.305  14.111   6.366 -0.4278  0.1067 -0.2875
  784loPI   C1A11867   7.926  14.048   6.748  0.1119 -0.1068 -0.0154
  784loPI   C2A11868   7.889  14.110   7.288  0.3155 -0.0859 -0.1335
  784loPI   C3A11869   7.952  14.058   7.695  0.0205 -0.0132  0.0253
  784loPI   C4A11870   7.985  14.103   8.160  0.1793  0.0081 -0.1089
  784loPI   C5A11871   7.940  13.991   8.626 -0.0360 -0.2878 -0.3403
  784loPI   C6A11872   7.564  13.893   8.862 -0.1349  0.0294 -0.1837
  784loPI   C1B11873   8.359  14.311   6.859  0.0444 -0.0278  0.0954
  784loPI   C2B11874   8.339  14.309   7.346  0.3080  0.2868  0.0151
  784loPI   C3B11875   8.452  14.305   7.845 -0.2203  0.3007  0.3124
  784loPI   C4B11876   8.487  14.232   8.278  0.3114  0.0172  0.1210
  785loPI    C111877  11.938   5.138   5.963  0.1358 -0.1602 -0.0135
  785loPI    C211878  12.028   5.261   5.593 -0.2765  0.0744 -0.0415
  785loPI    C311879  11.735   4.994   5.649 -0.3308  0.1681  0.1270
  785loPI   PO411880  11.884   5.328   6.093  0.1950  0.0209 -0.4301
  785loPI   GL111881  11.877   5.681   6.355  0.1373  0.1522  0.0305
  785loPI   GL211882  12.166   5.582   6.527 -0.0263  0.1200 -0.0452
  785loPI   C1A11883  11.821   5.942   6.775 -0.0437 -0.4486 -0.0129
  785loPI   C2A11884  11.836   5.981   7.289  0.1265 -0.2868  0.1390
  785loPI   C3A11885  11.888   5.882   7.689  0.0693 -0.0292 -0.2675
  785loPI   C4A11886  11.943   5.987   8.188 -0.0989  0.1878 -0.2169
  785loPI   C5A11887  11.933   5.690   8.550  0.0546 -0.1186 -0.2115
  785loPI   C6A11888  12.192   5.471   8.859  0.2843 -0.0719 -0.0348
  785loPI   C1B11889  12.278   5.594   6.895 -0.0396 -0.1468  0.0362
  785loPI   C2B11890  12.266   5.647   7.363 -0.3564 -0.1151  0.0757
  785loPI   C3B11891  12.315   5.616   7.821  0.1902 -0.1041 -0.2171
  785loPI   C4B11892  12.350   5.694   8.286 -0.0749 -0.2032  0.0155
  786loPI    C111893  11.592   9.794   5.774 -0.1067  0.0946  0.0578
  786loPI    C211894  11.394   9.872   5.435 -0.1451  0.0003  0.0585
  786loPI    C311895  11.785   9.789   5.423 -0.0333  0.4934  0.0877
  786loPI   PO411896  11.516   9.964   5.980  0.3062 -0.0523 -0.0725
  786loPI   GL111897  11.379   9.831   6.381  0.0294 -0.2331  0.1726
  786loPI   GL211898  11.133  10.066   6.408 -0.2112  0.3092 -0.0643
  786loPI   C1A11899  11.412   9.774   6.767 -0.4908  0.1491 -0.1688
  786loPI   C2A11900  11.389   9.739   7.197  0.1067 -0.3492  0.0322
  786loPI   C3A11901  11.425   9.835   7.584 -0.0004 -0.0015 -0.1472
  786loPI   C4A11902  11.433   9.959   7.974 -0.2532  0.0684 -0.4101
  786loPI   C5A11903  11.099   9.913   8.370 -0.0899  0.3401 -0.3196
  786loPI   C6A11904  10.936   9.856   8.806  0.2675  0.0464  0.1685
  786loPI   C1B11905  10.900  10.043   6.747 -0.0087  0.0510  0.2931
  786loPI   C2B11906  10.901   9.982   7.186  0.2026  0.2326  0.0496
  786loPI   C3B11907  10.897  10.069   7.551 -0.3246  0.3202 -0.1749
  786loPI   C4B11908  10.956  10.232   7.940  0.0430 -0.1040  0.1213
  787loPI    C111909   4.420  10.616   5.954 -0.0472  0.0348  0.0723
  787loPI    C211910   4.304  10.683   5.578  0.0584  0.0916  0.0495
  787loPI    C311911   4.229  10.330   5.750  0.0128  0.0642 -0.0259
  787loPI   PO411912   4.652  10.683   5.993  0.1554  0.0281  0.2414
  787loPI   GL111913   4.780  10.771   6.390  0.1358  0.1829  0.2922
  787loPI   GL211914   5.135  10.633   6.490 -0.0294 -0.2608  0.1560
  787loPI   C1A11915   4.844  11.106   6.772 -0.1720  0.0064  0.0164
  787loPI   C2A11916   4.917  11.275   7.144  0.2649  0.2085 -0.1475
  787loPI   C3A11917   4.954  11.208   7.611  0.1262  0.0705  0.3360
  787loPI   C4A11918   4.957  11.210   8.015  0.1048 -0.0749  0.1503
  787loPI   C5A11919   4.820  11.103   8.488  0.0875 -0.0404 -0.1511
  787loPI   C6A11920   4.429  11.136   8.777  0.0717 -0.0843 -0.0699
  787loPI   C1B11921   4.977  10.627   6.910  0.3026 -0.0979  0.4155
  787loPI   C2B11922   4.898  10.691   7.387 -0.0072  0.1226 -0.0416
  787loPI   C3B11923   4.928  10.707   7.855  0.0009  0.0942 -0.1295
  787loPI   C4B11924   4.961  10.681   8.316  0.2025 -0.1610 -0.1786
  788loPI    C111925   4.938   8.054   5.847  0.0182 -0.0471  0.1159
  788loPI    C211926   4.754   8.408   5.817  0.0544 -0.0299  0.0957
  788loPI    C311927   4.881   8.220   5.488 -0.2585 -0.2173  0.0785
  788loPI   PO411928   4.965   8.026   6.103 -0.0596 -0.2750  0.2496
  788loPI   GL111929   4.848   8.381   6.367  0.0868 -0.0629 -0.0269
  788loPI   GL211930   4.567   8.221   6.493  0.1633 -0.0795  0.1549
  788loPI   C1A11931   4.991   8.508   6.636 -0.1779  0.0835  0.0561
  788loPI   C2A11932   5.016   8.542   7.134  0.2182  0.2755 -0.2761
  788loPI   C3A11933   5.015   8.569   7.631 -0.3395 -0.2877 -0.2194
  788loPI   C4A11934   5.102   8.609   8.052 -0.0307  0.0159  0.2709
  788loPI   C5A11935   5.202   8.477   8.484 -0.1463 -0.1637  0.0411
  788loPI   C6A11936   4.997   8.244   8.802 -0.1263 -0.3172 -0.1746
  788loPI   C1B11937   4.607   8.314   6.957 -0.0632 -0.0022  0.2455
  788loPI   C2B11938   4.668   8.284   7.418  0.0775 -0.0426 -0.1497
  788loPI   C3B11939   4.603   8.290   7.899  0.0542 -0.2476  0.0342
  788loPI   C4B11940   4.565   8.328   8.474  0.2396  0.1925 -0.2643
  789loPI    C111941   5.189  14.196   5.492  0.0879  0.1855 -0.1664
  789loPI    C211942   5.075  13.923   5.224 -0.1985 -0.0202  0.1562
  789loPI    C311943   5.387  13.850   5.463  0.0024  0.1267 -0.0573
  789loPI   PO411944   4.978  14.269   5.621  0.2803 -0.2326  0.2771
  789loPI   GL111945   5.045  14.384   6.049 -0.2814 -0.3477  0.1677
  789loPI   GL211946   5.341  14.463   6.164  0.1846 -0.1034 -0.3423
  789loPI   C1A11947   4.858  14.207   6.446  0.0686  0.2529 -0.0228
  789loPI   C2A11948   4.778  14.309   6.834  0.0307  0.4535  0.0616
  789loPI   C3A11949   4.829  14.332   7.223  0.0108  0.1564 -0.1995
  789loPI   C4A11950   4.811  14.283   7.661 -0.2553  0.2675 -0.0483
  789loPI   C5A11951   4.883  14.231   8.134 -0.1299  0.1158 -0.1360
  789loPI   C6A11952   4.900  14.549   8.516 -0.1927  0.2496  0.2024
  789loPI   C1B11953   5.233  14.516   6.593  0.0787 -0.2786 -0.2094
  789loPI   C2B11954   5.210  14.574   7.050 -0.2793  0.1408 -0.0108
  789loPI   C3B11955   5.307  14.601   7.448 -0.0435 -0.1588  0.2593
  789loPI   C4B11956   5.386  14.519   7.893 -0.1695  0.2574  0.2946
  790loPI    C111957   6.980  10.672   6.040  0.0135 -0.0286  0.1469
  790loPI    C211958   7.321  10.474   5.974  0.0440  0.0256  0.1413
  790loPI    C311959   7.003  10.406   5.742  0.0770  0.0375  0.0923
  790loPI   PO411960   7.075  10.677   6.362 -0.1600 -0.0291  0.1367
  790loPI   GL111961   7.046  10.883   6.723 -0.2037 -0.0847 -0.0061
  790loPI   GL211962   7.322  11.091   6.563 -0.1253  0.2761 -0.3439
  790loPI   C1A11963   7.024  10.986   7.187 -0.0174 -0.2391  0.2204
  790loPI   C2A11964   6.971  10.914   7.526  0.0278 -0.2771 -0.3216
  790loPI   C3A11965   6.818  10.785   7.799  0.1656 -0.0503  0.0560
  790loPI   C4A11966   6.745  10.659   8.253  0.1931  0.3126  0.0021
  790loPI   C5A11967   7.021  10.840   8.513 -0.1821  0.1822  0.1795
  790loPI   C6A11968   6.981  11.152   8.772  0.0842  0.2632  0.0977
  790loPI   C1B11969   7.478  11.151   6.981 -0.1475  0.1592  0.0967
  790loPI   C2B11970   7.429  11.212   7.404  0.2111  0.1503 -0.0195
  790loPI   C3B11971   7.422  11.170   7.792 -0.4457 -0.1634  0.2305
  790loPI   C4B11972   7.176  10.964   8.059 -0.1833  0.0665 -0.1280
  791loPI    C111973   5.309  12.095   5.866  0.0596  0.1484 -0.1338
  791loPI    C211974   5.015  11.912   5.664 -0.0271  0.0954  0.0385
  791loPI    C311975   5.326  12.069   5.467  0.0202 -0.1878 -0.1164
  791loPI   PO411976   5.142  12.168   6.101  0.1087 -0.1199  0.1835
  791loPI   GL111977   5.269  12.323   6.434 -0.4424  0.1554 -0.1898
  791loPI   GL211978   5.344  12.618   6.488  0.0693 -0.2517 -0.2625
  791loPI   C1A11979   5.258  12.014   6.862  0.0108 -0.0943 -0.4032
  791loPI   C2A11980   5.331  12.017   7.268  0.2210 -0.0482  0.1652
  791loPI   C3A11981   5.339  11.964   7.745  0.0520 -0.0930 -0.0534
  791loPI   C4A11982   5.367  11.967   8.097 -0.1118 -0.1283 -0.3681
  791loPI   C5A11983   5.487  11.959   8.527 -0.1236 -0.1944 -0.1773
  791loPI   C6A11984   5.596  12.290   8.750  0.1983  0.1976 -0.3525
  791loPI   C1B11985   5.271  12.497   6.973  0.0594 -0.1128 -0.1842
  791loPI   C2B11986   5.337  12.565   7.371 -0.0481  0.1752 -0.0927
  791loPI   C3B11987   5.292  12.487   7.878  0.0119  0.2657 -0.1121
  791loPI   C4B11988   5.263  12.470   8.320  0.3085  0.0465  0.1620
  792loPI    C111989  14.494   3.771   5.767 -0.1100  0.0501  0.0755
  792loPI    C211990  14.123   3.876   5.660 -0.0803  0.0431 -0.0348
  792loPI    C311991  14.404   3.820   5.380  0.0720  0.3047  0.0632
  792loPI   PO411992  14.544   3.978   5.978 -0.0868  0.1012 -0.0287
  792loPI   GL111993  14.489   3.981   6.415 -0.2308  0.2787  0.0042
  792loPI   GL211994  14.510   4.324   6.561  0.2230 -0.4215 -0.1117
  792loPI   C1A11995  14.497   3.746   6.722 -0.2877  0.1443 -0.1096
  792loPI   C2A11996  14.487   3.709   7.151 -0.1459  0.1405  0.0015
  792loPI   C3A11997  14.494   3.693   7.556 -0.3892 -0.2027  0.1256
  792loPI   C4A11998  14.435   3.788   8.017 -0.1554  0.2433 -0.0500
  792loPI   C5A11999  14.412   3.787   8.389  0.0612  0.0635 -0.1530
  792loPI   C6A12000  14.655   3.851   8.655 -0.1965 -0.1317  0.1706
  792loPI   C1B12001  14.507   4.327   7.099  0.0172 -0.4027 -0.1195
  792loPI   C2B12002  14.477   4.367   7.534 -0.0303 -0.0896  0.1109
  792loPI   C3B12003  14.460   4.321   7.963 -0.1896 -0.3830  0.0493
  792loPI   C4B12004  14.501   4.349   8.374  0.0547 -0.1519 -0.1172
  793loPI    C112005  14.801  16.994   5.595  0.0831 -0.1176  0.1670
  793loPI    C212006  14.616  17.337   5.504 -0.0440 -0.1872  0.1611
  793loPI    C312007  15.004  17.291   5.421 -0.0364 -0.0597  0.1245
  793loPI   PO412008  14.733  16.899   5.916 -0.2776  0.0073 -0.0252
  793loPI   GL112009  14.826  17.074   6.295 -0.1479  0.1757  0.0004
  793loPI   GL212010  14.515  17.026   6.350 -0.2953 -0.5324 -0.1659
  793loPI   C1A12011  14.941  17.200   6.686 -0.1093  0.0873 -0.3176
  793loPI   C2A12012  15.047  17.229   7.065  0.0656  0.0960  0.0906
  793loPI   C3A12013  15.045  17.211   7.502  0.1509 -0.0066  0.0078
  793loPI   C4A12014  15.008  17.190   7.870 -0.2252 -0.1804 -0.2991
  793loPI   C5A12015  14.976  17.236   8.346 -0.1242  0.4113  0.0550
  793loPI   C6A12016  15.070  17.366   8.726 -0.0288  0.1301  0.0529
  793loPI   C1B12017  14.563  16.875   6.757 -0.0309 -0.1248 -0.0888
  793loPI   C2B12018  14.582  16.879   7.232  0.0325  0.0748  0.0549
  793loPI   C3B12019  14.549  16.921   7.709 -0.1962  0.0126  0.1644
  793loPI   C4B12020  14.601  16.965   8.092  0.1468  0.1560  0.1024
  794loPI    C112021   6.462  16.158   6.063  0.3125 -0.2001 -0.0531
  794loPI    C212022   6.245  16.010   5.761  0.1491 -0.0272 -0.0225
  794loPI    C312023   6.607  16.163   5.690  0.1758 -0.1279 -0.1062
  794loPI   PO412024   6.586  16.005   6.209  0.0852 -0.2723 -0.0484
  794loPI   GL112025   6.403  15.877   6.559  0.1319  0.1154  0.1635
  794loPI   GL212026   6.151  16.113   6.570 -0.2226  0.0262  0.2531
  794loPI   C1A12027   6.571  15.815   6.863  0.0471 -0.1541 -0.5637
  794loPI   C2A12028   6.611  15.851   7.275  0.1218  0.0963 -0.3288
  794loPI   C3A12029   6.636  15.978   7.690  0.0431 -0.0159 -0.1747
  794loPI   C4A12030   6.525  15.889   8.141  0.0512  0.0425 -0.0284
  794loPI   C5A12031   6.459  15.974   8.605  0.0316 -0.0721  0.2186
  794loPI   C6A12032   6.448  15.808   9.005 -0.2408 -0.3114 -0.2881
  794loPI   C1B12033   6.170  16.188   6.995  0.1248 -0.0198 -0.1449
  794loPI   C2B12034   6.184  16.118   7.403 -0.0666 -0.0845  0.1380
  794loPI   C3B12035   6.173  16.078   7.868 -0.0586 -0.2267 -0.0931
  794loPI   C4B12036   6.052  16.165   8.271 -0.0775 -0.0158 -0.0717
  795loPI    C112037  16.728  12.230   6.060  0.0450 -0.1281 -0.0549
  795loPI    C212038  16.528  12.265   5.716  0.2438  0.0513 -0.1542
  795loPI    C312039  16.907  12.136   5.715  0.2316  0.0120  0.0020
  795loPI   PO412040  16.685  12.422   6.190 -0.2605  0.0185 -0.1093
  795loPI   GL112041  16.926  12.584   6.608 -0.0771  0.1969 -0.0569
  795loPI   GL212042  17.190  12.376   6.599 -0.0220 -0.0793 -0.0517
  795loPI   C1A12043  16.923  12.584   7.061  0.1392  0.0535  0.3028
  795loPI   C2A12044  16.996  12.581   7.444  0.0886  0.0285 -0.1564
  795loPI   C3A12045  16.924  12.639   7.836  0.1024 -0.1296 -0.1439
  795loPI   C4A12046  16.902  12.716   8.239  0.2664  0.1907  0.0529
  795loPI   C5A12047  17.105  12.552   8.464 -0.1522  0.1285  0.1495
  795loPI   C6A12048  17.161  12.226   8.667 -0.1735 -0.2264  0.0479
  795loPI   C1B12049  17.353  12.286   6.871 -0.0237  0.0849 -0.0758
  795loPI   C2B12050  17.399  12.348   7.233 -0.1268 -0.2265 -0.1234
  795loPI   C3B12051  17.386  12.287   7.667  0.0267 -0.1297 -0.1098
  795loPI   C4B12052  17.330  12.379   8.088 -0.2426 -0.3917 -0.0326
  796loPI    C112053   9.936   1.890   5.783  0.0822  0.0513  0.2460
  796loPI    C212054  10.078   1.925   5.411 -0.1267 -0.2015  0.1389
  796loPI    C312055   9.880   2.229   5.579 -0.2638 -0.1805 -0.0574
  796loPI   PO412056   9.943   1.705   6.103  0.0095  0.0084  0.0640
  796loPI   GL112057  10.122   1.564   6.410 -0.0801 -0.3047  0.1774
  796loPI   GL212058   9.773   1.331   6.368 -0.0088 -0.2581 -0.1223
  796loPI   C1A12059  10.142   1.587   6.746  0.1950 -0.0442 -0.1250
  796loPI   C2A12060  10.147   1.611   7.205 -0.2971  0.2448  0.1412
  796loPI   C3A12061  10.124   1.773   7.654  0.2166 -0.0823  0.0748
  796loPI   C4A12062  10.193   1.826   8.065 -0.1195 -0.0278 -0.1423
  796loPI   C5A12063  10.337   1.668   8.478 -0.0261 -0.1557  0.2274
  796loPI   C6A12064  10.495   1.300   8.612  0.1848  0.2325  0.0614
  796loPI   C1B12065   9.716   1.358   6.792 -0.1528  0.0486 -0.0608
  796loPI   C2B12066   9.669   1.380   7.268 -0.1964 -0.1967 -0.2565
  796loPI   C3B12067   9.727   1.477   7.675  0.2906  0.0788  0.1240
  796loPI   C4B12068   9.693   1.481   8.065  0.0219 -0.1315 -0.0671
  797loPI    C112069  16.029   1.170   5.529 -0.0830 -0.1649  0.1260
  797loPI    C212070  15.816   1.183   5.190 -0.0419  0.0388  0.1067
  797loPI    C312071  16.048   0.867   5.269 -0.1040 -0.0398 -0.0229
  797loPI   PO412072  15.773   1.266   5.713 -0.0459 -0.1346 -0.0228
  797loPI   GL112073  15.728   1.362   6.077  0.1038 -0.1569 -0.0311
  797loPI   GL212074  15.428   1.367   6.313  0.0243  0.0276 -0.3018
  797loPI   C1A12075  15.902   1.415   6.489 -0.1636 -0.0131  0.0843
  797loPI   C2A12076  15.895   1.513   6.933 -0.0642 -0.0285  0.0649
  797loPI   C3A12077  15.924   1.512   7.357 -0.4149 -0.2051 -0.0946
  797loPI   C4A12078  15.845   1.508   7.774 -0.1455 -0.1467 -0.0670
  797loPI   C5A12079  15.918   1.447   8.240  0.2171 -0.1428 -0.1723
  797loPI   C6A12080  15.525   1.552   8.510  0.1589 -0.0897 -0.1983
  797loPI   C1B12081  15.376   1.199   6.733  0.3677  0.2035 -0.0034
  797loPI   C2B12082  15.477   1.137   7.101 -0.0227  0.0542 -0.1125
  797loPI   C3B12083  15.471   1.140   7.580 -0.1235  0.0095  0.0826
  797loPI   C4B12084  15.466   1.174   8.024 -0.1125 -0.0251  0.0538
  798loPI    C112085  11.402  11.498   5.937  0.1265  0.0950 -0.0150
  798loPI    C212086  11.710  11.330   5.746  0.0385  0.0251 -0.0961
  798loPI    C312087  11.451  11.560   5.545  0.0476  0.0983 -0.0245
  798loPI   PO412088  11.333  11.299   6.153  0.0349  0.1461  0.0203
  798loPI   GL112089  11.137  11.216   6.524  0.0422  0.0886  0.1038
  798loPI   GL212090  10.966  11.040   6.689  0.0005  0.0822 -0.0717
  798loPI   C1A12091  11.066  11.489   6.692  0.0359 -0.2093 -0.1395
  798loPI   C2A12092  10.998  11.696   7.080 -0.1118 -0.0211  0.1563
  798loPI   C3A12093  10.969  11.672   7.465  0.0282  0.2657  0.1005
  798loPI   C4A12094  10.981  11.705   7.937  0.0726 -0.0314  0.0490
  798loPI   C5A12095  11.084  11.646   8.368  0.1032 -0.3103  0.2666
  798loPI   C6A12096  11.220  11.760   8.830 -0.2131 -0.2163  0.0976
  798loPI   C1B12097  11.006  11.030   7.088 -0.0363  0.1783  0.0678
  798loPI   C2B12098  10.916  11.166   7.501  0.1173 -0.1304 -0.1620
  798loPI   C3B12099  11.039  11.222   7.858  0.2696 -0.0728 -0.0311
  798loPI   C4B12100  10.930  11.179   8.246 -0.2598  0.0025  0.0621
  799loPI    C112101  12.798  10.651   5.990  0.0040 -0.2884 -0.0510
  799loPI    C212102  13.158  10.505   6.084 -0.0064 -0.3594 -0.1205
  799loPI    C312103  13.068  10.586   5.703 -0.0736 -0.3685 -0.1068
  799loPI   PO412104  12.693  10.745   6.251 -0.2830 -0.1898 -0.0294
  799loPI   GL112105  12.506  10.672   6.561  0.0336  0.0318  0.0271
  799loPI   GL212106  12.331  10.357   6.528  0.1028 -0.0185  0.1073
  799loPI   C1A12107  12.371  10.781   6.997  0.0300 -0.1198 -0.2374
  799loPI   C2A12108  12.303  10.893   7.417 -0.1940 -0.0245 -0.0326
  799loPI   C3A12109  12.367  10.896   7.862  0.0033  0.0129 -0.0151
  799loPI   C4A12110  12.385  11.077   8.223  0.2077  0.4377  0.1740
  799loPI   C5A12111  12.650  11.021   8.561  0.0307 -0.3274  0.1177
  799loPI   C6A12112  13.035  10.781   8.809  0.2529  0.0344 -0.1721
  799loPI   C1B12113  12.386  10.254   6.984  0.0490 -0.0097 -0.0604
  799loPI   C2B12114  12.291  10.279   7.407 -0.1625 -0.0179 -0.1300
  799loPI   C3B12115  12.306  10.310   7.850 -0.0390  0.1157  0.0571
  799loPI   C4B12116  12.455  10.526   8.256  0.1408  0.0000 -0.0288
  800loPI    C112117   6.672   7.943   6.045 -0.0525 -0.0504  0.1244
  800loPI    C212118   6.319   7.780   6.138 -0.0636 -0.0166  0.1414
  800loPI    C312119   6.349   8.021   5.821 -0.0252 -0.1330  0.0558
  800loPI   PO412120   6.775   8.091   6.224  0.5027 -0.1498  0.1745
  800loPI   GL112121   6.754   8.298   6.586  0.3373  0.0542  0.2094
  800loPI   GL212122   7.033   8.206   6.723  0.1129  0.3267  0.0045
  800loPI   C1A12123   6.456   8.401   6.874  0.1782  0.1124 -0.2812
  800loPI   C2A12124   6.473   8.457   7.252  0.2206  0.0034  0.1311
  800loPI   C3A12125   6.469   8.440   7.650  0.0047 -0.2427  0.3656
  800loPI   C4A12126   6.574   8.506   8.091 -0.0625  0.0585 -0.3375
  800loPI   C5A12127   6.864   8.308   8.415 -0.1610  0.2908  0.1759
  800loPI   C6A12128   6.992   8.135   8.782 -0.2156  0.2078 -0.0725
  800loPI   C1B12129   6.930   8.266   7.065 -0.1469 -0.0369  0.1471
  800loPI   C2B12130   6.933   8.213   7.540  0.2645  0.2005  0.1515
  800loPI   C3B12131   6.919   8.152   7.959 -0.1553 -0.0426  0.2412
  800loPI   C4B12132   7.018   7.849   8.300  0.0775 -0.0329  0.0094
  801loPI    C112133   5.870   0.745   5.912  0.2672  0.0302  0.1813
  801loPI    C212134   6.246   0.773   5.778  0.0805  0.1566 -0.3401
  801loPI    C312135   5.978   0.553   5.577 -0.1257  0.0606  0.0317
  801loPI   PO412136   5.873   0.692   6.127 -0.0851 -0.4165 -0.1782
  801loPI   GL112137   5.942   0.793   6.523 -0.6875  0.2100 -0.0730
  801loPI   GL212138   6.066   0.533   6.618  0.1808 -0.1646 -0.1109
  801loPI   C1A12139   6.091   0.916   6.946  0.3026 -0.0036 -0.1626
  801loPI   C2A12140   6.210   0.885   7.348 -0.0742  0.0706  0.0533
  801loPI   C3A12141   6.163   0.809   7.698 -0.0478  0.0738 -0.1025
  801loPI   C4A12142   6.101   0.856   8.164  0.1422  0.0373  0.1880
  801loPI   C5A12143   5.884   0.610   8.617 -0.1653  0.1491  0.1502
  801loPI   C6A12144   5.772   0.289   9.034 -0.0368  0.0287 -0.0120
  801loPI   C1B12145   6.183   0.375   7.025 -0.0015 -0.1626 -0.1378
  801loPI   C2B12146   6.238   0.328   7.426  0.0207 -0.4139  0.1544
  801loPI   C3B12147   6.204   0.364   7.848 -0.2044  0.2360 -0.1078
  801loPI   C4B12148   6.083   0.317   8.208  0.0059 -0.1926 -0.3103
  802loPI    C112149   3.962  14.463   6.055  0.0979 -0.1097  0.0191
  802loPI    C212150   3.815  14.252   5.749  0.0731 -0.2957  0.1576
  802loPI    C312151   4.084  14.540   5.682 -0.0649 -0.2141 -0.0571
  802loPI   PO412152   3.767  14.452   6.196  0.1932 -0.2483  0.1769
  802loPI   GL112153   3.637  14.420   6.550  0.2342 -0.2883  0.1225
  802loPI   GL212154   3.907  14.262   6.621  0.1007 -0.0232 -0.1207
  802loPI   C1A12155   3.519  14.496   6.953  0.1169 -0.0129 -0.0962
  802loPI   C2A12156   3.508  14.535   7.284  0.0741  0.2059  0.0151
  802loPI   C3A12157   3.463  14.529   7.705  0.1766 -0.0104 -0.1385
  802loPI   C4A12158   3.547  14.569   8.090  0.2593  0.0652 -0.1343
  802loPI   C5A12159   3.381  14.622   8.544 -0.1177  0.2170  0.0376
  802loPI   C6A12160   3.527  14.684   8.950 -0.0309 -0.2154 -0.0332
  802loPI   C1B12161   3.972  14.237   7.083  0.0546  0.0366 -0.0171
  802loPI   C2B12162   3.871  14.322   7.515 -0.0528 -0.2618  0.1074
  802loPI   C3B12163   3.999  14.207   7.855 -0.1916  0.1214 -0.2892
  802loPI   C4B12164   3.949  14.299   8.273  0.1051 -0.0883 -0.1960
  803loPI    C112165   3.448  16.954   5.942  0.0810  0.0917  0.2343
  803loPI    C212166   3.071  16.937   5.809  0.2098 -0.1284 -0.1145
  803loPI    C312167   3.310  17.237   5.695  0.1393  0.0176  0.1162
  803loPI   PO412168   3.432  16.770   6.202 -0.0243  0.0971  0.2650
  803loPI   GL112169   3.271  16.916   6.542 -0.0751  0.3555 -0.4547
  803loPI   GL212170   3.137  17.193   6.599 -0.0260 -0.0845  0.3007
  803loPI   C1A12171   3.153  16.734   6.897 -0.1449  0.0058 -0.0017
  803loPI   C2A12172   3.021  16.681   7.216  0.4884 -0.0203  0.0460
  803loPI   C3A12173   2.971  16.712   7.669 -0.1153 -0.2241  0.0600
  803loPI   C4A12174   3.123  16.799   8.157 -0.3492  0.0527  0.2377
  803loPI   C5A12175   3.044  16.815   8.593  0.0530  0.1383 -0.1044
  803loPI   C6A12176   2.911  16.653   8.997 -0.1012  0.0292  0.1025
  803loPI   C1B12177   3.075  17.241   7.111  0.2666 -0.2456 -0.0864
  803loPI   C2B12178   3.005  17.252   7.587  0.1360  0.0542 -0.0105
  803loPI   C3B12179   3.039  17.311   8.012  0.0583  0.1697 -0.1610
  803loPI   C4B12180   3.106  17.280   8.406 -0.0476 -0.0753 -0.0354
  804loPI    C112181  16.819  10.643   5.766  0.1707 -0.3447 -0.0292
  804loPI    C212182  16.675  10.807   5.431 -0.0148 -0.0472  0.1915
  804loPI    C312183  16.691  10.409   5.468 -0.0665 -0.0825 -0.1374
  804loPI   PO412184  16.733  10.789   5.971 -0.2430  0.0896 -0.1086
  804loPI   GL112185  16.737  10.694   6.396 -0.0904 -0.0461 -0.2548
  804loPI   GL212186  16.882  10.457   6.597  0.0507  0.1365  0.2197
  804loPI   C1A12187  16.445  10.594   6.766 -0.1375  0.0605  0.1035
  804loPI   C2A12188  16.340  10.665   7.149 -0.0608  0.0490  0.1021
  804loPI   C3A12189  16.356  10.687   7.610  0.0909 -0.1640 -0.1126
  804loPI   C4A12190  16.446  10.752   8.011  0.1012  0.0725 -0.3647
  804loPI   C5A12191  16.346  10.703   8.437 -0.1825  0.1505 -0.0505
  804loPI   C6A12192  15.941  10.673   8.563 -0.0302  0.3046 -0.0388
  804loPI   C1B12193  16.794  10.432   7.104  0.0414  0.4053 -0.0601
  804loPI   C2B12194  16.780  10.456   7.505  0.1972  0.0120 -0.0374
  804loPI   C3B12195  16.964  10.474   7.873 -0.0721  0.0304 -0.0734
  804loPI   C4B12196  16.915  10.563   8.296 -0.0349 -0.3053 -0.0550
  805loPI    C112197   2.274   4.788   5.795  0.0024  0.2223 -0.1548
  805loPI    C212198   2.192   4.482   5.550 -0.0057  0.0680  0.0385
  805loPI    C312199   2.127   4.857   5.429 -0.2528 -0.0177 -0.1011
  805loPI   PO412200   2.030   4.739   6.011  0.1634  0.0496 -0.1183
  805loPI   GL112201   2.119   4.574   6.405 -0.1960 -0.0267  0.0718
  805loPI   GL212202   2.490   4.694   6.255  0.1889 -0.0264  0.1910
  805loPI   C1A12203   2.030   4.554   6.826  0.1070 -0.2484 -0.0899
  805loPI   C2A12204   2.084   4.607   7.235  0.1485  0.1643 -0.1111
  805loPI   C3A12205   2.000   4.585   7.666 -0.0070  0.0146 -0.0264
  805loPI   C4A12206   2.128   4.629   8.089 -0.1770 -0.0059  0.1247
  805loPI   C5A12207   2.095   4.756   8.578  0.0376 -0.0948 -0.2652
  805loPI   C6A12208   2.037   4.800   9.059  0.1277 -0.2113  0.3045
  805loPI   C1B12209   2.545   4.757   6.712 -0.2060  0.0946 -0.0015
  805loPI   C2B12210   2.544   4.868   7.162 -0.0955  0.1194 -0.0134
  805loPI   C3B12211   2.485   4.886   7.658  0.0764  0.3949  0.0077
  805loPI   C4B12212   2.548   5.034   8.047 -0.0958  0.0827 -0.2622
  806loPI    C112213   6.672   9.047   6.197  0.0238 -0.1167 -0.0637
  806loPI    C212214   6.636   9.012   5.800  0.2637 -0.0423 -0.0933
  806loPI    C312215   6.999   9.013   5.969  0.1703  0.0985  0.1105
  806loPI   PO412216   6.462   9.234   6.282  0.2013 -0.2306  0.2083
  806loPI   GL112217   6.211   9.055   6.545 -0.1583 -0.0220  0.2923
  806loPI   GL212218   6.442   8.834   6.590  0.0111 -0.2779 -0.0500
  806loPI   C1A12219   5.883   9.130   6.781 -0.0475 -0.0474 -0.0782
  806loPI   C2A12220   5.979   9.113   7.216  0.0803  0.0360  0.0789
  806loPI   C3A12221   5.978   9.129   7.621  0.1826  0.1022  0.2598
  806loPI   C4A12222   5.980   9.153   8.046 -0.1450 -0.1424  0.0492
  806loPI   C5A12223   6.078   9.221   8.486 -0.0930  0.2393 -0.1253
  806loPI   C6A12224   6.049   9.098   8.838 -0.0001 -0.0870  0.0338
  806loPI   C1B12225   6.433   8.969   7.051 -0.1284 -0.1568 -0.0807
  806loPI   C2B12226   6.432   8.913   7.476  0.0989  0.0973 -0.2040
  806loPI   C3B12227   6.474   8.984   7.899  0.3715 -0.1800 -0.0645
  806loPI   C4B12228   6.474   8.953   8.251  0.1013 -0.1815 -0.3492
  807loPI    C112229  14.717   9.194   5.793 -0.1311  0.0002 -0.2308
  807loPI    C212230  14.407   9.328   5.579 -0.0266  0.1528 -0.2875
  807loPI    C312231  14.556   8.964   5.507 -0.1354  0.1143 -0.3206
  807loPI   PO412232  14.672   9.206   6.016 -0.2267 -0.0472  0.1872
  807loPI   GL112233  14.713   9.208   6.413 -0.1842 -0.4676  0.0447
  807loPI   GL212234  14.648   9.577   6.424  0.1378 -0.2440  0.0610
  807loPI   C1A12235  14.603   8.916   6.778  0.0070  0.3057 -0.1020
  807loPI   C2A12236  14.502   8.992   7.084 -0.2198  0.0656 -0.2295
  807loPI   C3A12237  14.483   9.112   7.547  0.1246  0.0399 -0.2560
  807loPI   C4A12238  14.658   9.155   7.990  0.0816  0.1514  0.1849
  807loPI   C5A12239  14.780   9.386   8.455  0.3388  0.0923 -0.0770
  807loPI   C6A12240  14.698   9.438   8.873  0.0163  0.0220  0.1344
  807loPI   C1B12241  14.639   9.574   6.854 -0.1138  0.0355 -0.3653
  807loPI   C2B12242  14.550   9.629   7.370  0.3189  0.1076  0.1152
  807loPI   C3B12243  14.518   9.691   7.832  0.1792  0.2045  0.0679
  807loPI   C4B12244  14.575   9.785   8.287 -0.1229  0.2322 -0.1105
  808loPI    C112245  13.327   9.635   5.795  0.0584  0.0444 -0.1187
  808loPI    C212246  13.441   9.276   5.660 -0.3328 -0.0985 -0.0818
  808loPI    C312247  13.067   9.404   5.597 -0.2198  0.2715 -0.0257
  808loPI   PO412248  13.391   9.603   6.072 -0.2528 -0.0579 -0.2413
  808loPI   GL112249  13.521   9.465   6.400  0.3038  0.2121 -0.0110
  808loPI   GL212250  13.883   9.483   6.535 -0.1893 -0.0452  0.0617
  808loPI   C1A12251  13.195   9.448   6.772 -0.0111  0.1052 -0.1259
  808loPI   C2A12252  13.140   9.323   7.142  0.1213  0.2018  0.1375
  808loPI   C3A12253  13.198   9.244   7.560 -0.0533 -0.0350  0.0997
  808loPI   C4A12254  13.319   9.350   7.987 -0.1036  0.0553  0.0700
  808loPI   C5A12255  13.221   9.537   8.425  0.0520 -0.0235  0.0586
  808loPI   C6A12256  13.172   9.751   8.792 -0.1525 -0.1395 -0.1773
  808loPI   C1B12257  13.693   9.568   7.005  0.1084 -0.0439 -0.0785
  808loPI   C2B12258  13.650   9.669   7.503 -0.0494  0.1701  0.5683
  808loPI   C3B12259  13.743   9.695   7.926 -0.0142  0.0198 -0.3173
  808loPI   C4B12260  13.697   9.483   8.322 -0.0003 -0.0776 -0.2381
  809loPI    C112261   2.653  11.156   5.789 -0.0664 -0.0131  0.0586
  809loPI    C212262   2.329  11.331   5.633  0.1509  0.3697  0.0235
  809loPI    C312263   2.670  11.317   5.423  0.2182  0.1594  0.1437
  809loPI   PO412264   2.523  11.043   6.032 -0.0538 -0.0256  0.1263
  809loPI   GL112265   2.606  11.049   6.439  0.0531  0.0187  0.1847
  809loPI   GL212266   2.557  11.349   6.427  0.1215  0.0929  0.1129
  809loPI   C1A12267   2.658  10.796   6.827  0.1735 -0.2705  0.0234
  809loPI   C2A12268   2.701  10.787   7.308 -0.3284 -0.1618  0.2228
  809loPI   C3A12269   2.737  10.837   7.812 -0.0557  0.0498 -0.2451
  809loPI   C4A12270   2.669  10.970   8.291  0.1810  0.0496  0.2418
  809loPI   C5A12271   2.653  10.936   8.766 -0.0595  0.0537 -0.3219
  809loPI   C6A12272   2.717  10.708   9.105  0.0132 -0.0568 -0.2450
  809loPI   C1B12273   2.626  11.311   6.869 -0.3695  0.1536 -0.0293
  809loPI   C2B12274   2.674  11.297   7.336 -0.2918 -0.0889  0.0891
  809loPI   C3B12275   2.706  11.429   7.681 -0.3972  0.0864 -0.1421
  809loPI   C4B12276   2.854  11.427   8.096 -0.0584  0.0992 -0.5037
  810loPI    C112277   5.425  13.475   5.912  0.1200  0.2328  0.0987
  810loPI    C212278   5.751  13.622   5.732  0.1605  0.1399  0.0957
  810loPI    C312279   5.689  13.227   5.741  0.0576  0.1562  0.1132
  810loPI   PO412280   5.401  13.492   6.201  0.1783 -0.0347  0.1243
  810loPI   GL112281   5.580  13.394   6.521  0.1614 -0.1635 -0.1493
  810loPI   GL212282   5.724  13.740   6.674 -0.1463  0.0074  0.3578
  810loPI   C1A12283   5.704  13.257   6.905  0.1129  0.0864  0.0587
  810loPI   C2A12284   5.674  13.260   7.328  0.2804  0.2691  0.1124
  810loPI   C3A12285   5.771  13.263   7.768  0.2672  0.0800  0.0567
  810loPI   C4A12286   5.823  13.231   8.269 -0.2428  0.2657 -0.0083
  810loPI   C5A12287   6.197  13.474   8.546 -0.2513 -0.2618 -0.0079
  810loPI   C6A12288   6.476  13.627   8.881 -0.2560 -0.0933 -0.2421
  810loPI   C1B12289   5.651  13.755   7.121 -0.0868  0.2789  0.1158
  810loPI   C2B12290   5.771  13.765   7.594  0.0870  0.2133  0.1302
  810loPI   C3B12291   5.732  13.755   7.981  0.0779  0.0454  0.2797
  810loPI   C4B12292   5.852  13.758   8.342 -0.1861  0.3239 -0.0169
  811loPI    C112293  10.224   6.817   6.211 -0.1550  0.1409 -0.0734
  811loPI    C212294  10.582   6.650   6.144 -0.1111  0.2091 -0.0113
  811loPI    C312295  10.414   6.884   5.866 -0.1574  0.0896 -0.0848
  811loPI   PO412296  10.316   6.886   6.501  0.0638  0.2247 -0.1717
  811loPI   GL112297  10.651   7.223   6.713  0.2379 -0.2206  0.1934
  811loPI   GL212298  10.748   6.867   6.652 -0.2230  0.0139  0.2143
  811loPI   C1A12299  10.551   7.289   7.267 -0.1078 -0.2116 -0.1735
  811loPI   C2A12300  10.501   7.346   7.729  0.1375  0.1965  0.0533
  811loPI   C3A12301  10.566   7.352   8.138  0.0683  0.1313 -0.0853
  811loPI   C4A12302  10.579   7.265   8.623 -0.0274  0.2979  0.0110
  811loPI   C5A12303  10.783   7.155   8.895 -0.0195  0.0066 -0.2160
  811loPI   C6A12304  10.928   6.847   9.161  0.1548  0.3025 -0.0977
  811loPI   C1B12305  10.954   6.934   7.073 -0.1682 -0.0001 -0.2397
  811loPI   C2B12306  10.997   7.031   7.474 -0.0826 -0.0418  0.0830
  811loPI   C3B12307  10.974   6.973   7.924  0.1732  0.2571 -0.0284
  811loPI   C4B12308  10.992   6.945   8.408  0.0796  0.0473 -0.2042
  812loPI    C112309  15.848   6.952   6.173  0.1491 -0.0161 -0.1380
  812loPI    C212310  15.650   6.836   5.846 -0.0518  0.0918 -0.0564
  812loPI    C312311  15.743   7.221   5.896  0.1386  0.0485 -0.0716
  812loPI   PO412312  15.636   6.755   6.342  0.0430 -0.0630 -0.1763
  812loPI   GL112313  15.398   6.831   6.746 -0.1647 -0.1331  0.0858
  812loPI   GL212314  15.086   6.752   6.557 -0.2982 -0.0744  0.2796
  812loPI   C1A12315  15.467   6.877   7.146  0.2616 -0.1529  0.1204
  812loPI   C2A12316  15.548   6.962   7.568  0.1815 -0.0715 -0.0593
  812loPI   C3A12317  15.671   7.013   7.985  0.1205  0.2791 -0.0097
  812loPI   C4A12318  15.668   6.984   8.411  0.0284  0.0842  0.1371
  812loPI   C5A12319  15.475   7.119   8.751  0.1925  0.0682  0.0143
  812loPI   C6A12320  15.693   7.010   9.115  0.2157 -0.0298 -0.0467
  812loPI   C1B12321  14.971   6.628   7.003  0.0118 -0.1137 -0.0547
  812loPI   C2B12322  15.016   6.693   7.456 -0.3058  0.0798  0.1644
  812loPI   C3B12323  15.198   6.738   7.854  0.0829 -0.0020  0.0963
  812loPI   C4B12324  15.320   6.670   8.360 -0.1850  0.3997 -0.1819
  813loPI    C112325   8.787  16.449   5.681 -0.2610 -0.2153  0.0808
  813loPI    C212326   8.523  16.237   5.469 -0.0247 -0.1820 -0.2556
  813loPI    C312327   8.843  16.396   5.289 -0.0515  0.2277  0.0435
  813loPI   PO412328   8.791  16.342   5.905  0.3895 -0.0990 -0.0481
  813loPI   GL112329   8.832  16.306   6.343  0.2133 -0.3446  0.2771
  813loPI   GL212330   8.536  16.047   6.438  0.0201  0.1017 -0.0685
  813loPI   C1A12331   8.881  16.163   6.699  0.0074 -0.1588  0.2644
  813loPI   C2A12332   8.908  16.217   7.145 -0.2168  0.0712 -0.2146
  813loPI   C3A12333   8.933  16.200   7.554 -0.0155  0.0577  0.0279
  813loPI   C4A12334   8.764  16.181   7.859  0.1001  0.1402  0.2760
  813loPI   C5A12335   8.746  16.197   8.319  0.2570  0.0603  0.3437
  813loPI   C6A12336   8.884  16.188   8.653 -0.0783  0.0467  0.1579
  813loPI   C1B12337   8.376  16.164   6.856 -0.1832  0.0941  0.1784
  813loPI   C2B12338   8.419  16.198   7.335 -0.1260  0.3267  0.0257
  813loPI   C3B12339   8.384  16.373   7.670 -0.1518 -0.3870 -0.1234
  813loPI   C4B12340   8.418  16.503   8.043 -0.1051  0.0955  0.1831
  814loPI    C112341  14.666   9.715   5.796 -0.1541 -0.0298 -0.1500
  814loPI    C212342  14.612   9.940   5.470 -0.3610  0.0902 -0.0348
  814loPI    C312343  14.836   9.609   5.449 -0.2621  0.1692 -0.2654
  814loPI   PO412344  14.545   9.868   6.032 -0.1232 -0.0291  0.0921
  814loPI   GL112345  14.293   9.960   6.372  0.0518  0.1891  0.1287
  814loPI   GL212346  14.195  10.236   6.411 -0.3118  0.1115  0.0760
  814loPI   C1A12347  14.247   9.793   6.717 -0.0029  0.1810 -0.2071
  814loPI   C2A12348  14.133   9.834   7.167 -0.0114  0.2824 -0.1168
  814loPI   C3A12349  14.106   9.865   7.630  0.0140  0.0482 -0.1584
  814loPI   C4A12350  14.112   9.975   8.074 -0.1064  0.1499  0.0482
  814loPI   C5A12351  14.128   9.768   8.537  0.1604  0.0922 -0.2214
  814loPI   C6A12352  14.038   9.811   9.024  0.0128 -0.0237 -0.4633
  814loPI   C1B12353  14.261  10.327   6.819 -0.3527 -0.2963  0.1484
  814loPI   C2B12354  14.240  10.290   7.288  0.4288  0.2568 -0.0105
  814loPI   C3B12355  14.141  10.364   7.700  0.0687 -0.1951  0.2723
  814loPI   C4B12356  14.161  10.522   8.049 -0.2625  0.1740 -0.2868
  815loPI    C112357   2.358   9.049   5.877  0.1641  0.1419 -0.1063
  815loPI    C212358   2.311   9.338   5.605  0.2031 -0.0403 -0.3089
  815loPI    C312359   1.998   9.115   5.717  0.1877  0.0325 -0.2058
  815loPI   PO412360   2.469   9.055   6.084 -0.1482 -0.0002 -0.2765
  815loPI   GL112361   2.557   8.963   6.425  0.0028  0.1082 -0.0972
  815loPI   GL212362   2.873   9.114   6.582 -0.3682 -0.0729 -0.0451
  815loPI   C1A12363   2.373   8.976   6.828  0.1682  0.1962  0.0225
  815loPI   C2A12364   2.360   9.036   7.229  0.1095 -0.2464  0.0106
  815loPI   C3A12365   2.196   9.066   7.720 -0.4080  0.0113 -0.0749
  815loPI   C4A12366   2.295   9.093   8.150  0.4324 -0.0291 -0.0610
  815loPI   C5A12367   2.418   9.035   8.602 -0.1233  0.0360  0.1902
  815loPI   C6A12368   2.577   8.953   9.054 -0.2005  0.0284  0.0651
  815loPI   C1B12369   2.782   9.278   6.995 -0.0342  0.0025 -0.1199
  815loPI   C2B12370   2.778   9.304   7.444 -0.1900  0.2379 -0.1453
  815loPI   C3B12371   2.719   9.243   7.898 -0.0658 -0.0756 -0.0510
  815loPI   C4B12372   2.699   9.411   8.276 -0.1232 -0.1229 -0.1089
  816loPI    C112373   6.275  11.177   6.153  0.0366 -0.0573 -0.2352
  816loPI    C212374   6.161  11.464   5.899 -0.0909  0.0403 -0.0700
  816loPI    C312375   6.094  11.080   5.810 -0.4640  0.0905 -0.0219
  816loPI   PO412376   6.218  11.187   6.364  0.0471  0.2245 -0.0753
  816loPI   GL112377   6.046  10.982   6.715  0.1051 -0.0630 -0.0752
  816loPI   GL212378   5.805  11.240   6.705 -0.0481  0.0702 -0.1052
  816loPI   C1A12379   6.151  10.924   7.100 -0.0771  0.0755  0.0493
  816loPI   C2A12380   5.891  10.761   7.340 -0.2226  0.0722  0.0645
  816loPI   C3A12381   5.862  10.676   7.873 -0.0581 -0.3033 -0.1280
  816loPI   C4A12382   5.853  10.713   8.254 -0.1477  0.1885  0.2944
  816loPI   C5A12383   6.019  10.801   8.636 -0.2425  0.1862 -0.2638
  816loPI   C6A12384   6.228  11.062   8.961 -0.0835  0.0692 -0.0411
  816loPI   C1B12385   5.760  11.232   7.178  0.0151  0.1682 -0.1977
  816loPI   C2B12386   5.873  11.217   7.584 -0.0254  0.1497 -0.1435
  816loPI   C3B12387   5.779  11.196   7.946  0.0603 -0.1389 -0.1533
  816loPI   C4B12388   5.766  11.188   8.334  0.1486  0.3529 -0.3235
  817loPI    C112389   6.374  16.646   6.103 -0.1603 -0.0285 -0.0926
  817loPI    C212390   6.153  16.490   5.808 -0.0975  0.2246 -0.2772
  817loPI    C312391   6.498  16.675   5.723 -0.1226  0.3773 -0.0541
  817loPI   PO412392   6.171  16.667   6.242 -0.2204  0.3184  0.3110
  817loPI   GL112393   6.313  16.795   6.658 -0.0784 -0.2553 -0.1846
  817loPI   GL212394   5.963  16.605   6.732  0.0755  0.3886  0.0692
  817loPI   C1A12395   6.579  16.921   6.938  0.0278 -0.1894 -0.1941
  817loPI   C2A12396   6.717  16.910   7.352 -0.2835 -0.2420 -0.1115
  817loPI   C3A12397   6.637  16.955   7.815 -0.0965  0.1577  0.0152
  817loPI   C4A12398   6.480  16.852   8.217 -0.1857  0.1766  0.0013
  817loPI   C5A12399   6.445  16.670   8.664  0.2468 -0.1876  0.0309
  817loPI   C6A12400   6.186  16.301   8.850  0.2065  0.1120  0.1394
  817loPI   C1B12401   6.217  16.663   7.153 -0.1018  0.1509  0.0432
  817loPI   C2B12402   6.259  16.590   7.584 -0.1208 -0.0956  0.4509
  817loPI   C3B12403   6.099  16.596   8.008  0.0199  0.0565  0.0098
  817loPI   C4B12404   5.987  16.649   8.409  0.2274 -0.0985 -0.1371
  818loPI    C112405  16.052   0.076   5.672 -0.0046 -0.0492  0.1286
  818loPI    C212406  16.082   0.373   5.406  0.0549 -0.0659  0.1164
  818loPI    C312407  16.176  -0.000   5.299 -0.0230 -0.0898  0.1307
  818loPI   PO412408  16.220   0.275   5.894 -0.2639  0.1851  0.0388
  818loPI   GL112409  16.262   0.582   6.200 -0.2243 -0.0035  0.2093
  818loPI   GL212410  15.920   0.501   6.252 -0.0235 -0.2511  0.0044
  818loPI   C1A12411  16.355   0.696   6.702 -0.0590  0.0163  0.2052
  818loPI   C2A12412  16.342   0.554   7.132 -0.1630 -0.0513 -0.1888
  818loPI   C3A12413  16.242   0.633   7.513 -0.1853 -0.1684 -0.2892
  818loPI   C4A12414  16.242   0.721   7.926  0.1559 -0.1518 -0.0701
  818loPI   C5A12415  16.280   0.587   8.382  0.0657 -0.4698 -0.0652
  818loPI   C6A12416  16.645   0.620   8.718  0.0850  0.1823  0.3177
  818loPI   C1B12417  15.885   0.469   6.746 -0.2234  0.0532 -0.2592
  818loPI   C2B12418  15.877   0.399   7.209 -0.1370  0.0005  0.2680
  818loPI   C3B12419  15.814   0.386   7.695 -0.0722  0.1577 -0.1284
  818loPI   C4B12420  15.832   0.403   8.154  0.3413  0.2186 -0.1012
  819loPI    C112421  13.252   7.843   5.654  0.2591 -0.2341 -0.0751
  819loPI    C212422  12.890   8.012   5.663  0.2366 -0.2954  0.3514
  819loPI    C312423  12.986   7.761   5.367  0.0127 -0.1062  0.1135
  819loPI   PO412424  13.344   7.917   5.997  0.0046  0.1519  0.0272
  819loPI   GL112425  13.432   8.056   6.363 -0.1683  0.0453  0.1525
  819loPI   GL212426  13.686   7.929   6.511  0.2327  0.1037  0.4239
  819loPI   C1A12427  13.225   8.176   6.741  0.1879 -0.0788  0.2043
  819loPI   C2A12428  13.242   8.190   7.197  0.0393 -0.1916  0.1887
  819loPI   C3A12429  13.256   8.331   7.626  0.2055  0.1328 -0.0895
  819loPI   C4A12430  13.245   8.403   8.074 -0.0882 -0.0091 -0.2216
  819loPI   C5A12431  13.286   8.347   8.451  0.0088 -0.2165 -0.2145
  819loPI   C6A12432  13.376   8.198   8.831 -0.1217  0.0768 -0.2303
  819loPI   C1B12433  13.605   7.890   6.943  0.0468  0.2855  0.0280
  819loPI   C2B12434  13.669   7.931   7.412 -0.1116  0.3875  0.0103
  819loPI   C3B12435  13.703   7.995   7.844  0.3086 -0.0708  0.1632
  819loPI   C4B12436  13.637   8.142   8.233  0.3949  0.1006 -0.0735
  820loPI    C112437   0.027  14.401   5.704 -0.0230 -0.3173 -0.1792
  820loPI    C212438  -0.032  14.583   5.353  0.0497  0.2115  0.0741
  820loPI    C312439  -0.208  14.232   5.428 -0.0385  0.1359 -0.4526
  820loPI   PO412440   0.054  14.551   5.881 -0.0959 -0.1995  0.0723
  820loPI   GL112441   0.027  14.758   6.241 -0.0436  0.0543 -0.1536
  820loPI   GL212442   0.113  14.473   6.476 -0.0204 -0.1738 -0.2806
  820loPI   C1A12443  -0.076  14.917   6.575  0.0790 -0.0838 -0.0061
  820loPI   C2A12444  -0.085  14.941   7.007  0.1498  0.0778  0.1022
  820loPI   C3A12445  -0.182  14.924   7.476  0.3483  0.4626 -0.0146
  820loPI   C4A12446  -0.038  15.027   7.869  0.1820 -0.1357  0.1785
  820loPI   C5A12447  -0.053  14.963   8.270 -0.3633  0.0114  0.0676
  820loPI   C6A12448  -0.137  14.836   8.678 -0.0615 -0.2767  0.5622
  820loPI   C1B12449  -0.051  14.407   6.978 -0.3435  0.2446 -0.0580
  820loPI   C2B12450  -0.044  14.396   7.469  0.0925  0.1924  0.2000
  820loPI   C3B12451  -0.079  14.509   7.779  0.1273 -0.2956  0.3377
  820loPI   C4B12452  -0.190  14.481   8.151  0.1631 -0.1101  0.1941
  821loPI    C112453  16.531   5.100   5.774 -0.1197  0.1685 -0.0371
  821loPI    C212454  16.510   4.703   5.725  0.0132  0.1357  0.1560
  821loPI    C312455  16.612   4.938   5.418  0.0383  0.0113  0.0684
  821loPI   PO412456  16.439   5.105   6.013  0.0255  0.4344 -0.2011
  821loPI   GL112457  16.552   5.422   6.375 -0.0439 -0.0650  0.5434
  821loPI   GL212458  16.820   5.211   6.381  0.0452 -0.0205 -0.0793
  821loPI   C1A12459  16.648   5.532   6.866  0.1724 -0.0002 -0.1940
  821loPI   C2A12460  16.678   5.493   7.349 -0.1506 -0.0839 -0.0215
  821loPI   C3A12461  16.748   5.614   7.751  0.1545 -0.3602  0.1342
  821loPI   C4A12462  16.816   5.601   8.158  0.2636  0.1151 -0.2387
  821loPI   C5A12463  16.849   5.691   8.540  0.1342 -0.2494 -0.0506
  821loPI   C6A12464  16.716   6.026   8.879 -0.0405  0.1054  0.1285
  821loPI   C1B12465  16.687   5.009   6.710 -0.1662  0.0548  0.0465
  821loPI   C2B12466  16.717   5.014   7.102 -0.1530  0.0640 -0.0636
  821loPI   C3B12467  16.774   5.008   7.533  0.0901  0.0216  0.3748
  821loPI   C4B12468  16.795   5.037   7.951 -0.2394 -0.0112 -0.3175
  822loPI    C112469   3.150   6.298   5.928  0.2392 -0.2530 -0.0302
  822loPI    C212470   3.251   6.415   5.559 -0.2332  0.0891 -0.0588
  822loPI    C312471   3.079   6.058   5.615 -0.0141 -0.0318 -0.1465
  822loPI   PO412472   3.052   6.427   6.080 -0.0696 -0.0950  0.1069
  822loPI   GL112473   3.200   6.390   6.450 -0.0052 -0.1191 -0.0396
  822loPI   GL212474   3.561   6.496   6.529  0.2277  0.1192  0.1931
  822loPI   C1A12475   3.241   6.431   6.894 -0.1127 -0.1327 -0.0110
  822loPI   C2A12476   3.228   6.515   7.397  0.1252 -0.3736  0.0716
  822loPI   C3A12477   3.257   6.540   7.795 -0.2772 -0.1995  0.0578
  822loPI   C4A12478   3.236   6.551   8.300  0.0440  0.3561 -0.1418
  822loPI   C5A12479   3.596   6.506   8.641 -0.1724 -0.0599 -0.0105
  822loPI   C6A12480   3.721   6.441   9.017 -0.2714 -0.1617  0.1285
  822loPI   C1B12481   3.793   6.744   6.861  0.1105 -0.0164  0.0791
  822loPI   C2B12482   3.690   6.770   7.229  0.0777  0.2237  0.0839
  822loPI   C3B12483   3.799   6.785   7.648  0.1621 -0.0092  0.1066
  822loPI   C4B12484   3.691   6.728   7.941  0.2887 -0.0419 -0.3482
  823loPI    C112485  11.841   7.219   5.761  0.1405 -0.0530  0.1473
  823loPI    C212486  12.058   7.508   5.590  0.0853 -0.1356 -0.0660
  823loPI    C312487  11.668   7.476   5.508  0.0343 -0.1099  0.1613
  823loPI   PO412488  11.858   7.211   5.964 -0.0634  0.0642  0.0839
  823loPI   GL112489  12.167   7.124   6.394 -0.2125 -0.4058 -0.0130
  823loPI   GL212490  12.028   7.404   6.389 -0.1776 -0.2958 -0.3826
  823loPI   C1A12491  12.271   7.185   6.829 -0.1302  0.1827 -0.0055
  823loPI   C2A12492  12.323   7.234   7.246 -0.2564 -0.0633 -0.1412
  823loPI   C3A12493  12.289   7.169   7.659 -0.0346 -0.1081 -0.0482
  823loPI   C4A12494  12.407   7.232   8.098  0.2591  0.0158  0.1314
  823loPI   C5A12495  12.576   7.238   8.517 -0.2658 -0.1434 -0.0645
  823loPI   C6A12496  12.728   7.234   8.943 -0.1405 -0.2217  0.3303
  823loPI   C1B12497  11.848   7.520   6.760 -0.1757  0.0343  0.0656
  823loPI   C2B12498  11.799   7.554   7.113  0.2721 -0.0601  0.1431
  823loPI   C3B12499  11.835   7.567   7.540  0.1221  0.2402  0.1765
  823loPI   C4B12500  11.895   7.406   7.884  0.0273  0.2281  0.0314
  824loPI    C112501   0.810  13.124   5.855 -0.0529 -0.1261 -0.0339
  824loPI    C212502   0.628  12.950   5.544 -0.1878  0.0573 -0.0590
  824loPI    C312503   1.028  12.961   5.562 -0.1767 -0.2650 -0.0500
  824loPI   PO412504   0.747  13.051   6.047 -0.0724  0.0458  0.1501
  824loPI   GL112505   0.877  13.165   6.399 -0.0235  0.1556  0.3184
  824loPI   GL212506   0.781  13.444   6.525 -0.0742  0.0053 -0.1156
  824loPI   C1A12507   0.797  12.862   6.723 -0.0221  0.1797  0.1567
  824loPI   C2A12508   0.936  12.777   7.140 -0.2260  0.5350  0.4236
  824loPI   C3A12509   0.865  12.863   7.505  0.0976  0.0880  0.0571
  824loPI   C4A12510   0.835  12.954   7.983 -0.1060 -0.0000  0.0678
  824loPI   C5A12511   0.873  12.998   8.368 -0.2836 -0.0113 -0.2079
  824loPI   C6A12512   1.242  13.236   8.597  0.2944  0.0895  0.0278
  824loPI   C1B12513   0.858  13.277   7.015 -0.3896 -0.0192  0.0424
  824loPI   C2B12514   0.848  13.381   7.404 -0.1987  0.0628  0.1034
  824loPI   C3B12515   0.822  13.475   7.861 -0.1812 -0.0261  0.4092
  824loPI   C4B12516   0.875  13.485   8.258 -0.0583  0.2669  0.1914
  825loPI    C112517   4.295  16.236   5.967  0.1415  0.0060 -0.1313
  825loPI    C212518   4.328  16.608   5.826 -0.2682  0.0019 -0.2497
  825loPI    C312519   4.607  16.336   5.738  0.0225  0.2721 -0.1805
  825loPI   PO412520   4.202  16.301   6.275  0.1311 -0.0061 -0.1085
  825loPI   GL112521   4.291  16.010   6.664 -0.0327 -0.2267  0.0440
  825loPI   GL212522   3.987  15.857   6.647 -0.3047  0.0430 -0.0905
  825loPI   C1A12523   4.394  15.960   7.149 -0.2203  0.0287  0.1211
  825loPI   C2A12524   4.426  16.132   7.572  0.2705  0.2723  0.0079
  825loPI   C3A12525   4.496  15.993   8.007  0.0389 -0.0813 -0.1775
  825loPI   C4A12526   4.576  16.157   8.474 -0.0589 -0.2084  0.1107
  825loPI   C5A12527   4.769  16.107   8.892 -0.0247  0.1093 -0.3156
  825loPI   C6A12528   5.115  16.358   9.133  0.2822  0.1373 -0.1878
  825loPI   C1B12529   3.963  15.714   7.034  0.0477 -0.0206 -0.2057
  825loPI   C2B12530   4.045  15.742   7.461 -0.1737  0.0739  0.1340
  825loPI   C3B12531   4.024  15.757   7.820 -0.0639  0.0741  0.0481
  825loPI   C4B12532   4.094  15.831   8.266 -0.0275 -0.1393  0.0179
  826loPI    C112533   3.135  10.967   5.722 -0.0114 -0.1600 -0.0484
  826loPI    C212534   3.211  10.657   5.482 -0.0559  0.0337 -0.3178
  826loPI    C312535   2.885  10.881   5.421 -0.2674 -0.1334  0.1531
  826loPI   PO412536   3.404  10.992   5.947 -0.0731  0.1765  0.1550
  826loPI   GL112537   3.255  11.056   6.438 -0.2165  0.1087 -0.2395
  826loPI   GL212538   3.461  10.943   6.562 -0.3194 -0.0341 -0.4143
  826loPI   C1A12539   3.106  11.033   6.820  0.0108 -0.1466  0.2827
  826loPI   C2A12540   3.214  11.093   7.263  0.0722 -0.0373  0.1306
  826loPI   C3A12541   3.204  11.166   7.763 -0.3518  0.0430  0.0048
  826loPI   C4A12542   3.194  11.088   8.168  0.0672 -0.4840  0.1304
  826loPI   C5A12543   3.093  11.091   8.605 -0.1366 -0.0567 -0.1194
  826loPI   C6A12544   2.970  11.292   9.028 -0.2376 -0.3011  0.2976
  826loPI   C1B12545   3.585  10.883   7.024  0.3083 -0.3549 -0.1425
  826loPI   C2B12546   3.674  10.941   7.478  0.1137  0.1498 -0.2962
  826loPI   C3B12547   3.601  10.860   7.917  0.2042 -0.0536  0.0171
  826loPI   C4B12548   3.529  10.797   8.315  0.0747 -0.3247 -0.1653
  827loPI    C112549  12.329   7.403   5.990  0.1918 -0.0257  0.2183
  827loPI    C212550  12.543   7.653   5.763  0.1073 -0.0530  0.1080
  827loPI    C312551  12.501   7.270   5.654 -0.0447 -0.0345  0.0987
  827loPI   PO412552  12.502   7.442   6.193  0.1359  0.0014  0.0174
  827loPI   GL112553  12.731   7.350   6.524  0.4422  0.2139  0.1190
  827loPI   GL212554  12.919   7.744   6.600 -0.1541  0.0701 -0.0906
  827loPI   C1A12555  12.721   7.483   6.987 -0.0076  0.0542  0.0127
  827loPI   C2A12556  12.771   7.394   7.419  0.0471 -0.1286 -0.2783
  827loPI   C3A12557  12.785   7.452   7.893 -0.0062  0.0659  0.4819
  827loPI   C4A12558  12.781   7.648   8.197  0.0164  0.0396 -0.1666
  827loPI   C5A12559  12.538   7.778   8.570  0.2405  0.0381 -0.0654
  827loPI   C6A12560  12.376   8.148   8.967  0.1335 -0.0905  0.1146
  827loPI   C1B12561  13.178   7.684   6.916  0.3372 -0.1282 -0.0929
  827loPI   C2B12562  13.217   7.613   7.326  0.0142  0.1181  0.0930
  827loPI   C3B12563  13.185   7.704   7.755  0.0215 -0.2853 -0.0841
  827loPI   C4B12564  13.265   7.816   8.207  0.4330  0.3057  0.0731
  828loPI    C112565   1.371   2.227   5.543 -0.0132  0.0560  0.0450
  828loPI    C212566   1.667   2.493   5.507 -0.1193  0.1494 -0.1525
  828loPI    C312567   1.386   2.467   5.223 -0.1612 -0.1106 -0.0894
  828loPI   PO412568   1.339   2.287   5.884  0.2676 -0.0418  0.0027
  828loPI   GL112569   1.622   2.142   6.257 -0.0057 -0.0049 -0.1521
  828loPI   GL212570   1.376   1.936   6.299  0.0732  0.0680  0.2012
  828loPI   C1A12571   1.728   2.247   6.657  0.0615  0.1383  0.2715
  828loPI   C2A12572   1.659   2.381   7.031 -0.0686  0.0722 -0.3067
  828loPI   C3A12573   1.711   2.296   7.416 -0.2330 -0.1235  0.0769
  828loPI   C4A12574   1.668   2.227   7.828 -0.0856 -0.0648 -0.2207
  828loPI   C5A12575   1.578   2.295   8.197 -0.2564  0.3382 -0.1586
  828loPI   C6A12576   1.175   2.442   8.431  0.1086  0.0076  0.2374
  828loPI   C1B12577   1.211   2.031   6.707 -0.0637  0.2845 -0.2206
  828loPI   C2B12578   1.151   2.048   7.164  0.0005 -0.0497  0.3446
  828loPI   C3B12579   1.229   1.925   7.607 -0.0052 -0.1337 -0.1190
  828loPI   C4B12580   1.187   2.047   8.042 -0.2581  0.2461 -0.2565
  829loPI    C112581  16.031  10.278   5.922  0.0675  0.0035 -0.1700
  829loPI    C212582  16.224   9.929   5.948  0.2478  0.1125 -0.0263
  829loPI    C312583  16.283  10.167   5.632  0.1301  0.0173 -0.1209
  829loPI   PO412584  15.803  10.163   6.053  0.1844  0.1928  0.0659
  829loPI   GL112585  15.945  10.084   6.441  0.2054 -0.0889  0.1565
  829loPI   GL212586  16.165  10.273   6.513  0.3412  0.0439 -0.3039
  829loPI   C1A12587  16.010   9.841   6.805 -0.0216  0.4314 -0.3330
  829loPI   C2A12588  15.972   9.860   7.234 -0.1226 -0.1293 -0.1972
  829loPI   C3A12589  16.011   9.882   7.698  0.0790  0.0286  0.1093
  829loPI   C4A12590  15.994  10.024   8.129  0.0978 -0.1998  0.0568
  829loPI   C5A12591  16.082  10.212   8.442  0.2097  0.0641 -0.2361
  829loPI   C6A12592  16.403  10.272   8.705 -0.2324  0.0254  0.0025
  829loPI   C1B12593  15.940  10.404   6.852  0.0924 -0.0620  0.0162
  829loPI   C2B12594  15.916  10.384   7.271 -0.0414  0.1319  0.0399
  829loPI   C3B12595  15.900  10.392   7.642  0.2996 -0.0855 -0.0247
  829loPI   C4B12596  16.002  10.598   8.004 -0.0914 -0.0714 -0.3551
  830loPI    C112597   3.355  11.614   5.795  0.2172 -0.1492  0.1205
  830loPI    C212598   3.155  11.426   5.502  0.0948 -0.0513  0.1405
  830loPI    C312599   3.246  11.814   5.466  0.3661 -0.1171  0.0900
  830loPI   PO412600   3.421  11.484   5.941 -0.0583  0.1452  0.0165
  830loPI   GL112601   3.329  11.576   6.353  0.2995  0.2073  0.3437
  830loPI   GL212602   3.034  11.570   6.582 -0.0079 -0.0709  0.0419
  830loPI   C1A12603   3.510  11.388   6.776  0.2102 -0.1195 -0.2633
  830loPI   C2A12604   3.590  11.421   7.178 -0.0453  0.1888 -0.2132
  830loPI   C3A12605   3.603  11.434   7.650  0.0827 -0.2551  0.0519
  830loPI   C4A12606   3.621  11.440   8.030 -0.2613  0.0218  0.1440
  830loPI   C5A12607   3.501  11.434   8.438 -0.1425  0.0977 -0.0651
  830loPI   C6A12608   3.445  11.461   8.863  0.1043 -0.0592 -0.0906
  830loPI   C1B12609   3.085  11.516   6.982  0.0402  0.1595  0.0703
  830loPI   C2B12610   3.190  11.585   7.433 -0.2055  0.2029 -0.1609
  830loPI   C3B12611   3.177  11.752   7.902  0.0168  0.0573  0.0028
  830loPI   C4B12612   3.564  11.949   8.201  0.0624 -0.1053  0.0054
  831loPI    C112613   7.934   6.437   5.827 -0.1428 -0.1649  0.0702
  831loPI    C212614   7.553   6.411   5.707 -0.2501  0.2684  0.2974
  831loPI    C312615   7.779   6.719   5.589  0.0637 -0.0340  0.0887
  831loPI   PO412616   7.819   6.330   6.120  0.0853 -0.1666 -0.0172
  831loPI   GL112617   8.010   6.215   6.479 -0.2400  0.1206 -0.0726
  831loPI   GL212618   7.908   6.569   6.491  0.0086  0.3121 -0.2465
  831loPI   C1A12619   8.312   6.342   6.923 -0.3735  0.0617  0.1454
  831loPI   C2A12620   8.293   6.387   7.339 -0.2144 -0.3481 -0.1925
  831loPI   C3A12621   8.240   6.380   7.759  0.1564  0.0705  0.0627
  831loPI   C4A12622   8.312   6.377   8.110  0.2033  0.0504  0.0346
  831loPI   C5A12623   8.325   6.492   8.543  0.0741 -0.1323  0.0369
  831loPI   C6A12624   8.207   6.528   8.970 -0.2732 -0.0166  0.2406
  831loPI   C1B12625   7.945   6.668   6.967 -0.0831  0.2233 -0.0211
  831loPI   C2B12626   7.816   6.563   7.475 -0.0307  0.2547  0.0047
  831loPI   C3B12627   7.836   6.677   7.851  0.0259 -0.0243  0.0008
  831loPI   C4B12628   7.836   6.693   8.172 -0.2210  0.0415  0.1432
  832loPI    C112629   6.936  11.276   5.979 -0.0249 -0.0343  0.0253
  832loPI    C212630   6.595  11.311   5.771 -0.0011 -0.2782 -0.0578
  832loPI    C312631   6.919  11.517   5.660 -0.0961 -0.1131 -0.0312
  832loPI   PO412632   6.876  11.214   6.218 -0.0986 -0.1679  0.2940
  832loPI   GL112633   6.847  11.340   6.504 -0.0747 -0.0029 -0.0663
  832loPI   GL212634   6.602  11.275   6.623  0.3431 -0.0720 -0.0103
  832loPI   C1A12635   7.087  11.446   6.850 -0.1827  0.0165 -0.1767
  832loPI   C2A12636   6.952  11.482   7.343  0.0140  0.0990 -0.0199
  832loPI   C3A12637   6.920  11.319   7.796 -0.1707 -0.0409  0.2193
  832loPI   C4A12638   6.654  11.160   8.120  0.0377  0.0165  0.2374
  832loPI   C5A12639   6.474  10.944   8.548 -0.3223 -0.1441  0.0722
  832loPI   C6A12640   6.681  10.786   8.976 -0.0141 -0.0485 -0.0577
  832loPI   C1B12641   6.575  11.256   6.981  0.0917  0.1700  0.1545
  832loPI   C2B12642   6.563  11.095   7.304  0.2257 -0.1877 -0.2577
  832loPI   C3B12643   6.379  10.917   7.613  0.0560  0.0296  0.0848
  832loPI   C4B12644   6.218  10.936   8.057 -0.0643 -0.2393  0.1880
  833loPI    C112645   0.163   7.909   6.234 -0.1550 -0.0818  0.0688
  833loPI    C212646   0.381   7.793   5.918 -0.0100 -0.2004  0.2106
  833loPI    C312647   0.144   8.115   5.891  0.0666 -0.1598  0.0079
  833loPI   PO412648   0.383   7.856   6.458 -0.0649  0.3891 -0.0439
  833loPI   GL112649   0.543   7.839   6.808  0.0454 -0.1208 -0.5219
  833loPI   GL212650   0.594   8.208   6.672  0.1415 -0.0478  0.1108
  833loPI   C1A12651   0.494   7.880   7.226  0.2038 -0.0057  0.0629
  833loPI   C2A12652   0.565   7.888   7.675 -0.0000 -0.0252  0.0940
  833loPI   C3A12653   0.612   7.983   8.095  0.1646  0.1197 -0.1988
  833loPI   C4A12654   0.597   8.030   8.555  0.1289  0.0715 -0.1083
  833loPI   C5A12655   0.327   8.264   8.888 -0.1782 -0.2963  0.0666
  833loPI   C6A12656   0.084   8.172   9.249 -0.2970 -0.1016 -0.1651
  833loPI   C1B12657   0.485   8.479   7.168  0.0136  0.0193  0.0473
  833loPI   C2B12658   0.522   8.443   7.653 -0.0881  0.2604  0.1987
  833loPI   C3B12659   0.581   8.515   7.982  0.0703  0.2156 -0.1472
  833loPI   C4B12660   0.686   8.491   8.503 -0.4203 -0.2205  0.0531
  834loPI    C112661  15.447   9.809   5.976  0.1356  0.0690  0.0264
  834loPI    C212662  15.423  10.130   5.739  0.0806 -0.0730 -0.1621
  834loPI    C312663  15.199   9.807   5.662 -0.3181  0.0613  0.3736
  834loPI   PO412664  15.401   9.869   6.264 -0.2038  0.0181 -0.1203
  834loPI   GL112665  15.559   9.719   6.580 -0.0520  0.0615  0.3117
  834loPI   GL212666  15.431  10.053   6.751 -0.0810  0.1250 -0.0316
  834loPI   C1A12667  15.590   9.617   6.959 -0.1599  0.0107 -0.1392
  834loPI   C2A12668  15.515   9.559   7.429 -0.1558 -0.1581 -0.2328
  834loPI   C3A12669  15.521   9.704   7.834 -0.1636  0.2419 -0.1615
  834loPI   C4A12670  15.560   9.771   8.297 -0.1806  0.3098 -0.0876
  834loPI   C5A12671  15.568   9.854   8.709  0.2460  0.1482  0.1377
  834loPI   C6A12672  15.736   9.833   9.060 -0.1033  0.2721 -0.2805
  834loPI   C1B12673  15.558  10.113   7.062  0.1896 -0.1085 -0.2543
  834loPI   C2B12674  15.520  10.061   7.484  0.1038  0.1768  0.0037
  834loPI   C3B12675  15.504  10.162   7.953  0.1501 -0.1772 -0.1233
  834loPI   C4B12676  15.618  10.277   8.326  0.0712 -0.2524  0.0079
  835loPI    C112677   8.324   4.706   6.232  0.0711  0.0575  0.1457
  835loPI    C212678   7.924   4.725   6.232  0.0629 -0.0988  0.1707
  835loPI    C312679   8.111   4.444   6.017  0.1750  0.2417 -0.1902
  835loPI   PO412680   8.442   4.658   6.484  0.1634 -0.3113  0.0276
  835loPI   GL112681   8.426   4.326   6.791 -0.3071  0.0558 -0.3158
  835loPI   GL212682   8.296   4.105   6.902  0.0269 -0.0699 -0.0473
  835loPI   C1A12683   8.391   4.583   7.086  0.0268 -0.0039 -0.1505
  835loPI   C2A12684   8.263   4.722   7.420 -0.0885 -0.1586  0.0561
  835loPI   C3A12685   8.278   4.745   7.809  0.0760 -0.1435  0.1976
  835loPI   C4A12686   8.414   4.871   8.291 -0.0864 -0.1862 -0.0513
  835loPI   C5A12687   8.490   4.805   8.708 -0.2734  0.0649 -0.0443
  835loPI   C6A12688   8.872   4.776   9.034 -0.2272 -0.0692 -0.3381
  835loPI   C1B12689   8.323   4.137   7.314 -0.0429  0.1409 -0.1410
  835loPI   C2B12690   8.286   4.264   7.787 -0.1286 -0.3398  0.0025
  835loPI   C3B12691   8.379   4.347   8.196  0.0543  0.2292  0.1398
  835loPI   C4B12692   8.455   4.222   8.616  0.1591  0.2781 -0.1432
  836loPI    C112693  12.387   0.426   5.497  0.0792 -0.1888  0.0926
  836loPI    C212694  12.123   0.565   5.231  0.0941 -0.0888  0.1298
  836loPI    C312695  12.407   0.309   5.115  0.0570 -0.1002  0.0640
  836loPI   PO412696  12.249   0.495   5.736 -0.1503 -0.0976 -0.0081
  836loPI   GL112697  12.259   0.346   6.110 -0.1905 -0.0910 -0.1354
  836loPI   GL212698  12.393   0.659   6.342  0.1876 -0.1645 -0.0176
  836loPI   C1A12699  12.292   0.231   6.601  0.4020  0.2006  0.0524
  836loPI   C2A12700  12.312   0.360   7.020 -0.0596 -0.3481  0.0367
  836loPI   C3A12701  12.255   0.411   7.371 -0.1254  0.1325  0.1984
  836loPI   C4A12702  12.374   0.425   7.805 -0.0580 -0.0563  0.0238
  836loPI   C5A12703  12.471   0.367   8.245  0.2293 -0.1596 -0.0997
  836loPI   C6A12704  12.688   0.215   8.553  0.1095 -0.2574 -0.0137
  836loPI   C1B12705  12.245   0.757   6.697 -0.2434  0.0860 -0.1617
  836loPI   C2B12706  12.236   1.003   7.091 -0.1090  0.3734  0.0651
  836loPI   C3B12707  12.370   0.909   7.490 -0.0308  0.0070  0.1774
  836loPI   C4B12708  12.427   0.896   7.915  0.1909  0.0317  0.1450
  837loPI    C112709   9.823  13.463   5.481 -0.0520 -0.4362  0.0194
  837loPI    C212710  10.112  13.186   5.491  0.0758 -0.3129 -0.1731
  837loPI    C312711  10.108  13.459   5.199  0.0734  0.0203  0.1317
  837loPI   PO412712   9.755  13.612   5.770  0.1826 -0.1722  0.0164
  837loPI   GL112713   9.800  13.823   6.188  0.1144 -0.2820  0.0747
  837loPI   GL212714   9.675  13.494   6.259  0.0573  0.1371 -0.2761
  837loPI   C1A12715   9.726  13.978   6.580 -0.4428 -0.0086 -0.2996
  837loPI   C2A12716   9.686  13.984   6.930 -0.1581  0.2278 -0.2170
  837loPI   C3A12717   9.721  14.060   7.338  0.0963 -0.2737  0.1756
  837loPI   C4A12718   9.742  14.008   7.838 -0.0424  0.1595  0.0399
  837loPI   C5A12719   9.761  14.083   8.275  0.0807  0.0545  0.4720
  837loPI   C6A12720   9.866  14.175   8.808 -0.0651 -0.0922  0.0421
  837loPI   C1B12721   9.671  13.456   6.656  0.1126 -0.1135  0.1871
  837loPI   C2B12722   9.666  13.476   7.113 -0.1053 -0.1069 -0.1443
  837loPI   C3B12723   9.711  13.581   7.531  0.1463 -0.2443  0.3199
  837loPI   C4B12724   9.713  13.432   7.982 -0.0035  0.0695 -0.1658
  838loPI    C112725   6.522   1.545   5.943 -0.1992  0.0640 -0.0075
  838loPI    C212726   6.572   1.170   5.813 -0.3120 -0.1354  0.4996
  838loPI    C312727   6.442   1.453   5.562 -0.2035 -0.4264  0.1051
  838loPI   PO412728   6.415   1.516   6.137 -0.1973  0.0068 -0.3130
  838loPI   GL112729   6.490   1.711   6.498  0.0074  0.3624 -0.0312
  838loPI   GL212730   6.596   2.007   6.580 -0.0083 -0.0481 -0.0782
  838loPI   C1A12731   6.514   1.646   6.968 -0.0729  0.0551  0.0584
  838loPI   C2A12732   6.500   1.601   7.449 -0.2954 -0.1971 -0.0781
  838loPI   C3A12733   6.541   1.672   7.920  0.2091 -0.0238 -0.0923
  838loPI   C4A12734   6.560   1.704   8.327  0.1188 -0.0175 -0.1887
  838loPI   C5A12735   6.449   1.457   8.683  0.2616  0.1095 -0.2944
  838loPI   C6A12736   6.720   1.055   8.766 -0.0662  0.0082  0.1294
  838loPI   C1B12737   6.512   2.114   6.998  0.1060 -0.1476 -0.0262
  838loPI   C2B12738   6.570   2.143   7.441 -0.0805 -0.1075 -0.1089
  838loPI   C3B12739   6.638   2.182   7.936  0.0245 -0.3845 -0.2243
  838loPI   C4B12740   6.673   2.254   8.368 -0.0372 -0.0454  0.1502
  839loPI    C112741   8.461   1.874   5.794 -0.0070 -0.0989  0.0193
  839loPI    C212742   8.164   2.050   5.591 -0.1220 -0.1290  0.1601
  839loPI    C312743   8.514   1.977   5.411 -0.1031  0.1624  0.0741
  839loPI   PO412744   8.444   1.938   6.011 -0.3108 -0.2936  0.1205
  839loPI   GL112745   8.431   1.860   6.392  0.2866  0.2990 -0.2120
  839loPI   GL212746   8.392   2.129   6.492 -0.0016  0.1216 -0.0273
  839loPI   C1A12747   8.786   1.910   6.755  0.0540  0.1258 -0.2026
  839loPI   C2A12748   8.839   1.876   7.184  0.1233 -0.1236 -0.2856
  839loPI   C3A12749   8.792   1.922   7.609 -0.0238  0.3992  0.1028
  839loPI   C4A12750   8.912   1.997   8.073 -0.1180 -0.0195  0.0383
  839loPI   C5A12751   9.181   2.211   8.386  0.2729 -0.0455  0.0334
  839loPI   C6A12752   9.606   2.344   8.464 -0.1635  0.1241  0.1356
  839loPI   C1B12753   8.378   2.133   6.976 -0.2305  0.0393 -0.1291
  839loPI   C2B12754   8.346   2.185   7.395 -0.5551  0.2789  0.2645
  839loPI   C3B12755   8.357   2.272   7.813  0.2793 -0.1835  0.2524
  839loPI   C4B12756   8.417   2.247   8.263 -0.0614  0.0606 -0.1122
  840loPI    C112757  10.893   4.965   5.781 -0.0427 -0.0644  0.1422
  840loPI    C212758  11.132   5.207   5.570  0.2091 -0.2693  0.1862
  840loPI    C312759  10.777   5.096   5.422  0.2912 -0.2405 -0.0349
  840loPI   PO412760  11.001   5.023   6.016  0.4943  0.0401 -0.3919
  840loPI   GL112761  11.137   5.045   6.470 -0.1300  0.0091  0.1981
  840loPI   GL212762  10.967   5.222   6.522 -0.3016 -0.1852 -0.3891
  840loPI   C1A12763  11.327   5.076   6.856  0.0142  0.0551  0.3452
  840loPI   C2A12764  11.434   5.134   7.216  0.1253  0.1528  0.0663
  840loPI   C3A12765  11.411   5.229   7.692  0.0473  0.1862  0.0606
  840loPI   C4A12766  11.443   5.175   8.112  0.1018 -0.3719 -0.1292
  840loPI   C5A12767  11.483   5.276   8.543  0.0294  0.3752  0.1089
  840loPI   C6A12768  11.765   5.214   8.911  0.0499  0.1408  0.0726
  840loPI   C1B12769  10.934   5.380   6.952 -0.1837 -0.1331 -0.1176
  840loPI   C2B12770  11.012   5.454   7.421  0.0042  0.1333  0.2387
  840loPI   C3B12771  10.959   5.414   7.917 -0.3976 -0.2677 -0.1755
  840loPI   C4B12772  11.048   5.482   8.337 -0.4114 -0.0937 -0.3697
  841loPI    C112773  17.185  12.498   5.899  0.1594 -0.0139 -0.1619
  841loPI    C212774  16.869  12.659   5.715 -0.0593 -0.0869  0.1416
  841loPI    C312775  17.197  12.568   5.506 -0.1003  0.3257 -0.1141
  841loPI   PO412776  17.182  12.551   6.166 -0.0588 -0.1019  0.0303
  841loPI   GL112777  17.435  12.747   6.430  0.0443 -0.1841  0.2495
  841loPI   GL212778  17.697  12.916   6.400  0.0263 -0.0772 -0.2012
  841loPI   C1A12779  17.374  12.762   6.761 -0.0299 -0.1442 -0.1106
  841loPI   C2A12780  17.335  12.867   7.175 -0.3289  0.0179 -0.1561
  841loPI   C3A12781  17.393  12.846   7.618  0.1880 -0.1943 -0.1049
  841loPI   C4A12782  17.382  12.907   8.131  0.2747  0.1015  0.4047
  841loPI   C5A12783  17.166  13.116   8.529 -0.2467 -0.3121  0.2707
  841loPI   C6A12784  17.245  12.963   8.883 -0.1935 -0.0053  0.0817
  841loPI   C1B12785  17.697  13.074   6.783 -0.0511 -0.2353 -0.1271
  841loPI   C2B12786  17.762  13.103   7.280 -0.0296 -0.0045  0.0542
  841loPI   C3B12787  17.793  13.137   7.716  0.0858 -0.0674  0.2408
  841loPI   C4B12788  17.749  13.236   8.155  0.1032  0.0787 -0.0587
  842loPI    C112789  14.292   2.911   5.783  0.1837 -0.2493 -0.0033
  842loPI    C212790  14.484   2.773   5.461  0.1020 -0.0515 -0.1390
  842loPI    C312791  14.127   2.948   5.421  0.2173  0.2279  0.0234
  842loPI   PO412792  14.479   2.964   5.918  0.1043 -0.0619  0.1265
  842loPI   GL112793  14.883   2.822   6.244  0.1709 -0.2288  0.0701
  842loPI   GL212794  15.143   2.998   6.322 -0.0900 -0.0872 -0.1237
  842loPI   C1A12795  14.550   2.713   6.655  0.1506  0.2899 -0.1481
  842loPI   C2A12796  14.495   2.721   7.073 -0.1973  0.0899 -0.0294
  842loPI   C3A12797  14.517   2.697   7.497 -0.0102 -0.1244 -0.0193
  842loPI   C4A12798  14.587   2.749   7.920 -0.0714 -0.2061  0.0340
  842loPI   C5A12799  14.616   2.945   8.291 -0.0813  0.1849  0.1149
  842loPI   C6A12800  14.354   2.845   8.657 -0.0270 -0.2058  0.2109
  842loPI   C1B12801  14.958   2.946   6.767  0.1539 -0.0232  0.1164
  842loPI   C2B12802  14.937   2.976   7.315 -0.2096 -0.0545  0.0746
  842loPI   C3B12803  15.002   3.020   7.684 -0.0457  0.2634  0.0210
  842loPI   C4B12804  15.041   2.947   8.075  0.2107 -0.0685 -0.1836
  843loPI    C112805  12.800   6.498   5.772 -0.0958 -0.3595  0.0693
  843loPI    C212806  12.632   6.809   5.585  0.0532 -0.2894  0.0510
  843loPI    C312807  12.894   6.576   5.392  0.1060 -0.2967  0.1309
  843loPI   PO412808  12.839   6.640   6.033 -0.1170 -0.0456 -0.1176
  843loPI   GL112809  13.027   6.498   6.333  0.3114 -0.1041  0.1182
  843loPI   GL212810  13.052   6.703   6.655 -0.3272 -0.0185 -0.0597
  843loPI   C1A12811  13.213   6.118   6.586 -0.1148  0.1077  0.0983
  843loPI   C2A12812  13.160   6.091   7.039  0.2694  0.0525  0.0510
  843loPI   C3A12813  13.161   6.062   7.512 -0.1602 -0.1696  0.2607
  843loPI   C4A12814  13.316   6.240   7.872  0.3289 -0.1108  0.0377
  843loPI   C5A12815  13.378   6.382   8.308  0.3809 -0.0256 -0.0627
  843loPI   C6A12816  13.571   6.209   8.775  0.1730 -0.3743  0.1602
  843loPI   C1B12817  13.143   6.650   7.119  0.0826 -0.3255 -0.1979
  843loPI   C2B12818  13.173   6.673   7.557  0.2638  0.2161 -0.0692
  843loPI   C3B12819  13.368   6.800   7.998  0.2306 -0.1932 -0.0801
  843loPI   C4B12820  13.255   6.855   8.397  0.1502 -0.1446  0.1663
  844loPI    C112821   9.869  10.964   5.839  0.2298 -0.1832 -0.3430
  844loPI    C212822   9.719  11.333   5.879  0.0772 -0.2868  0.0833
  844loPI    C312823   9.565  11.082   5.608  0.0160 -0.1220 -0.0355
  844loPI   PO412824   9.848  10.850   6.025  0.0606  0.3023  0.1103
  844loPI   GL112825   9.926  10.771   6.461  0.0537  0.1003  0.1856
  844loPI   GL212826  10.098  10.583   6.731 -0.1568  0.1378  0.1421
  844loPI   C1A12827   9.670  10.921   6.818  0.1900 -0.2597 -0.1398
  844loPI   C2A12828   9.668  10.954   7.218  0.0326 -0.0836 -0.2981
  844loPI   C3A12829   9.726  10.883   7.633 -0.0868  0.0228  0.0432
  844loPI   C4A12830   9.483  10.903   8.087 -0.3772  0.2786  0.1590
  844loPI   C5A12831   9.486  10.967   8.496  0.0469  0.0027 -0.1982
  844loPI   C6A12832   9.356  11.152   8.792 -0.2411  0.0225  0.1552
  844loPI   C1B12833  10.051  10.664   7.153  0.0918 -0.1451 -0.0163
  844loPI   C2B12834  10.111  10.618   7.542 -0.1734  0.1519  0.0274
  844loPI   C3B12835  10.088  10.649   7.928 -0.3451  0.2328  0.2272
  844loPI   C4B12836   9.904  10.741   8.291 -0.1542 -0.4142  0.2572
  845loPI    C112837   7.053  16.004   5.733 -0.0554  0.1561 -0.0626
  845loPI    C212838   7.441  16.100   5.739 -0.0694  0.2079  0.0517
  845loPI    C312839   7.234  16.126   5.397  0.1235 -0.2119 -0.1042
  845loPI   PO412840   7.008  16.109   5.984 -0.1138 -0.0452 -0.0448
  845loPI   GL112841   7.082  16.033   6.425 -0.0975  0.0511 -0.0820
  845loPI   GL212842   7.233  16.257   6.578  0.3313  0.0240  0.0877
  845loPI   C1A12843   7.096  15.729   6.739 -0.0280  0.0950  0.0106
  845loPI   C2A12844   6.995  15.596   7.097  0.0938 -0.1310  0.1109
  845loPI   C3A12845   7.020  15.587   7.490  0.1426 -0.0247 -0.1392
  845loPI   C4A12846   7.073  15.713   7.918  0.1157 -0.2648 -0.0263
  845loPI   C5A12847   6.929  16.147   8.016 -0.0903  0.0813  0.1738
  845loPI   C6A12848   6.563  16.365   8.223 -0.0918 -0.0309  0.2988
  845loPI   C1B12849   7.217  16.180   6.992 -0.1527 -0.1471  0.0417
  845loPI   C2B12850   7.407  15.898   7.372  0.2891 -0.0099  0.1280
  845loPI   C3B12851   7.496  15.931   7.804 -0.3130 -0.0340 -0.0872
  845loPI   C4B12852   7.537  15.974   8.179  0.2005 -0.0611  0.2546
  846loPI    C112853   8.935   7.800   5.939  0.0085 -0.0782 -0.1295
  846loPI    C212854   8.590   7.794   5.737  0.0314  0.0391 -0.1730
  846loPI    C312855   8.931   7.882   5.548  0.0411  0.2370 -0.0660
  846loPI   PO412856   8.858   7.894   6.135  0.1917 -0.0586 -0.1148
  846loPI   GL112857   8.689   7.976   6.541 -0.0455 -0.0831  0.1444
  846loPI   GL212858   8.664   7.776   6.661  0.3157 -0.1061 -0.0664
  846loPI   C1A12859   8.733   8.228   6.859  0.1790  0.1159  0.4487
  846loPI   C2A12860   8.727   8.372   7.260 -0.0021 -0.0419  0.2082
  846loPI   C3A12861   8.672   8.151   7.635  0.0717  0.1789 -0.1385
  846loPI   C4A12862   8.680   8.176   8.111 -0.5642 -0.1538  0.2563
  846loPI   C5A12863   8.741   8.307   8.553  0.0255 -0.0759  0.1997
  846loPI   C6A12864   9.006   8.746   8.611 -0.0311  0.0173 -0.1117
  846loPI   C1B12865   8.813   7.671   7.034 -0.0108 -0.1057  0.0195
  846loPI   C2B12866   8.752   7.614   7.431 -0.1500 -0.2350 -0.0827
  846loPI   C3B12867   8.710   7.669   7.895 -0.2432 -0.2440  0.1094
  846loPI   C4B12868   8.824   7.763   8.324  0.1199 -0.0920 -0.1499
  847loPI    C112869  15.939  14.430   5.726  0.0669 -0.1402 -0.1202
  847loPI    C212870  16.213  14.703   5.624 -0.2152  0.2205  0.0612
  847loPI    C312871  16.117  14.410   5.369  0.1235  0.2618 -0.1191
  847loPI   PO412872  16.033  14.490   5.995  0.0274 -0.0372  0.0276
  847loPI   GL112873  16.147  14.444   6.376  0.0664  0.1503  0.1441
  847loPI   GL212874  16.450  14.261   6.404  0.0661 -0.2028  0.1538
  847loPI   C1A12875  15.985  14.605   6.807 -0.1991  0.2124 -0.0359
  847loPI   C2A12876  15.935  14.618   7.270  0.2265  0.2327 -0.1765
  847loPI   C3A12877  15.969  14.711   7.716  0.2258  0.1459  0.1557
  847loPI   C4A12878  15.858  14.748   8.166  0.0268 -0.0781  0.2089
  847loPI   C5A12879  15.731  14.946   8.553 -0.0910  0.0651 -0.0037
  847loPI   C6A12880  15.704  15.305   8.734  0.1936 -0.0665 -0.3115
  847loPI   C1B12881  16.464  14.331   6.776  0.2268 -0.4444  0.1472
  847loPI   C2B12882  16.405  14.434   7.219  0.1487  0.1113 -0.1542
  847loPI   C3B12883  16.355  14.459   7.588 -0.0104 -0.0209 -0.0253
  847loPI   C4B12884  16.267  14.466   8.044 -0.1687 -0.1500 -0.0239
  848loPI    C112885   0.979   8.566   6.043  0.0905  0.4060 -0.0882
  848loPI    C212886   1.091   8.462   5.674 -0.0252 -0.2434  0.0466
  848loPI    C312887   0.743   8.650   5.732 -0.1062 -0.3285 -0.1549
  848loPI   PO412888   1.253   8.673   6.178 -0.0443  0.1719  0.0343
  848loPI   GL112889   1.351   8.907   6.532  0.4364  0.0679 -0.0316
  848loPI   GL212890   1.606   8.794   6.512  0.1994  0.0053 -0.1720
  848loPI   C1A12891   1.293   8.969   6.949  0.2564  0.3235 -0.0648
  848loPI   C2A12892   1.336   8.976   7.376  0.0698 -0.0807 -0.1229
  848loPI   C3A12893   1.437   9.086   7.821  0.1207  0.3317  0.1082
  848loPI   C4A12894   1.404   9.073   8.163 -0.0454  0.1457  0.1987
  848loPI   C5A12895   1.448   9.106   8.617 -0.2406 -0.1997 -0.0933
  848loPI   C6A12896   1.664   9.167   8.954 -0.0050  0.0230 -0.0037
  848loPI   C1B12897   1.782   8.768   6.825  0.1224 -0.1713 -0.1842
  848loPI   C2B12898   1.880   8.755   7.210  0.1489 -0.2467  0.1500
  848loPI   C3B12899   1.833   8.699   7.636 -0.1277  0.1507  0.1655
  848loPI   C4B12900   1.922   8.771   8.038 -0.1088  0.0786  0.1603
  849loPI    C112901   1.280   7.458   6.158 -0.2232  0.0498  0.1524
  849loPI    C212902   1.418   7.652   5.836  0.1007  0.0538  0.2899
  849loPI    C312903   1.135   7.372   5.795  0.0626  0.1295  0.0161
  849loPI   PO412904   1.301   7.711   6.397  0.2895  0.1735 -0.1149
  849loPI   GL112905   1.002   7.712   6.746  0.1082 -0.1250  0.0942
  849loPI   GL212906   1.302   7.863   6.887 -0.3295 -0.1377 -0.2027
  849loPI   C1A12907   0.925   7.685   7.171  0.1098 -0.1449  0.3423
  849loPI   C2A12908   1.022   7.627   7.583  0.0981 -0.1486  0.2758
  849loPI   C3A12909   1.091   7.734   7.985  0.0143 -0.1218 -0.0929
  849loPI   C4A12910   1.053   7.725   8.517 -0.0330 -0.1148 -0.0572
  849loPI   C5A12911   0.817   7.551   8.727 -0.1354  0.1302 -0.0322
  849loPI   C6A12912   0.860   7.503   9.175  0.2238 -0.2356 -0.0948
  849loPI   C1B12913   1.504   8.016   7.269  0.2387  0.2186  0.3033
  849loPI   C2B12914   1.419   7.984   7.678 -0.0403  0.4866 -0.0336
  849loPI   C3B12915   1.493   8.061   8.102  0.0336 -0.5697  0.3666
  849loPI   C4B12916   1.479   7.990   8.477  0.1336  0.3278  0.1882
  850loPI    C112917  11.584  11.998   5.786  0.2092  0.1290  0.1360
  850loPI    C212918  11.873  12.268   5.725  0.0787  0.2300 -0.0450
  850loPI    C312919  11.763  12.023   5.429  0.1281  0.0440  0.0892
  850loPI   PO412920  11.565  12.073   6.093 -0.0696  0.1884  0.0718
  850loPI   GL112921  11.710  11.987   6.519 -0.0357  0.1388 -0.0769
  850loPI   GL212922  11.444  11.749   6.419  0.1209 -0.0108 -0.0041
  850loPI   C1A12923  11.900  12.145   6.904  0.1994  0.3470  0.1547
  850loPI   C2A12924  11.972  12.239   7.372  0.1957  0.0010 -0.0078
  850loPI   C3A12925  11.916  12.258   7.711  0.0421  0.0307 -0.4605
  850loPI   C4A12926  11.947  12.218   8.125 -0.1246  0.0456 -0.0795
  850loPI   C5A12927  11.745  12.116   8.583 -0.2427 -0.0469  0.0958
  850loPI   C6A12928  11.728  11.701   8.761 -0.0768 -0.0728  0.0964
  850loPI   C1B12929  11.422  11.887   6.911  0.2109  0.1655 -0.1357
  850loPI   C2B12930  11.489  11.980   7.423  0.0810  0.1691 -0.0589
  850loPI   C3B12931  11.478  12.034   7.822  0.0900  0.1761  0.0899
  850loPI   C4B12932  11.473  12.000   8.182  0.0920  0.2475 -0.0130
  851loPI    C112933   0.131  17.328   5.635 -0.0590 -0.2483  0.0454
  851loPI    C212934   0.498  17.318   5.474 -0.0813 -0.1699 -0.0110
  851loPI    C312935   0.187  17.443   5.256 -0.0430  0.3552  0.2199
  851loPI   PO412936   0.161  17.169   5.848 -0.1581  0.0259  0.1624
  851loPI   GL112937   0.024  17.029   6.230  0.1293  0.2157 -0.3264
  851loPI   GL212938  -0.277  17.201   6.145  0.1589  0.0335  0.0654
  851loPI   C1A12939  -0.160  16.872   6.615  0.3348  0.1666 -0.3430
  851loPI   C2A12940  -0.157  16.969   7.032  0.2872  0.1481  0.1970
  851loPI   C3A12941  -0.221  16.936   7.481  0.1148  0.0710 -0.0033
  851loPI   C4A12942  -0.111  16.968   7.894  0.1137 -0.3268  0.2297
  851loPI   C5A12943  -0.085  17.114   8.306  0.0871  0.0602 -0.1308
  851loPI   C6A12944  -0.006  17.218   8.799  0.2007 -0.1096 -0.1983
  851loPI   C1B12945  -0.581  17.200   6.601 -0.1877 -0.0180  0.2773
  851loPI   C2B12946  -0.578  17.183   6.992  0.0432 -0.1165 -0.2253
  851loPI   C3B12947  -0.623  17.263   7.383 -0.0869 -0.4813 -0.1367
  851loPI   C4B12948  -0.663  17.240   7.846 -0.3986  0.0288  0.0730
  852loPI    C112949   8.967   5.850   6.387  0.0268  0.0457  0.1540
  852loPI    C212950   9.332   5.718   6.289 -0.0160  0.0065  0.0456
  852loPI    C312951   9.153   5.996   6.064 -0.0911 -0.0415  0.0457
  852loPI   PO412952   8.983   5.854   6.586 -0.2252 -0.1856 -0.1433
  852loPI   GL112953   9.220   5.993   6.959 -0.1776 -0.2991 -0.0999
  852loPI   GL212954   9.383   5.699   6.798 -0.3792 -0.3779  0.1295
  852loPI   C1A12955   9.216   5.850   7.368  0.0942 -0.1304  0.0493
  852loPI   C2A12956   9.275   5.892   7.850 -0.0414 -0.0722  0.0964
  852loPI   C3A12957   9.257   5.881   8.284  0.0034  0.0656 -0.2725
  852loPI   C4A12958   9.331   5.940   8.638  0.1338  0.3595  0.0139
  852loPI   C5A12959   9.454   6.099   9.054  0.1670  0.0669 -0.0920
  852loPI   C6A12960   9.359   6.420   9.313 -0.4196  0.0510  0.0729
  852loPI   C1B12961   9.566   5.560   7.130  0.0583  0.0817 -0.0215
  852loPI   C2B12962   9.661   5.540   7.623 -0.1424 -0.0713  0.2275
  852loPI   C3B12963   9.685   5.687   8.032 -0.2610  0.1531 -0.1842
  852loPI   C4B12964   9.721   5.636   8.443 -0.1452 -0.2781  0.1140
  853loPI    C112965   1.048  14.673   5.845 -0.0272 -0.0744  0.1990
  853loPI    C212966   0.855  14.454   5.572  0.0478 -0.0008  0.0859
  853loPI    C312967   1.253  14.490   5.555  0.0336  0.1651  0.0878
  853loPI   PO412968   0.959  14.666   6.010 -0.1271 -0.1296 -0.3893
  853loPI   GL112969   0.864  14.580   6.362  0.2480  0.1149 -0.0531
  853loPI   GL212970   0.940  14.509   6.667  0.0181  0.0892 -0.1418
  853loPI   C1A12971   0.464  14.637   6.736  0.3517 -0.0156  0.0735
  853loPI   C2A12972   0.396  14.713   7.105  0.0382  0.2238 -0.1070
  853loPI   C3A12973   0.326  14.708   7.538  0.1211  0.0017  0.1377
  853loPI   C4A12974   0.407  14.668   7.989  0.2493  0.0093 -0.1699
  853loPI   C5A12975   0.253  14.610   8.442 -0.3610  0.2078 -0.2369
  853loPI   C6A12976   0.345  14.637   8.791 -0.3082  0.0116  0.1698
  853loPI   C1B12977   0.866  14.444   7.138 -0.3434  0.0816 -0.3068
  853loPI   C2B12978   0.807  14.431   7.641 -0.1446  0.2453 -0.0423
  853loPI   C3B12979   0.876  14.482   8.101 -0.0406  0.2081 -0.0378
  853loPI   C4B12980   0.949  14.490   8.551  0.0853 -0.0337 -0.0520
  854loPI    C112981   3.583   9.769   5.816 -0.1007 -0.1355 -0.1027
  854loPI    C212982   3.844   9.998   5.618  0.0342 -0.0471  0.1724
  854loPI    C312983   3.553   9.809   5.419  0.2301 -0.0461 -0.1216
  854loPI   PO412984   3.678   9.717   6.007  0.2538  0.1206  0.2393
  854loPI   GL112985   3.567   9.807   6.323 -0.0128  0.0102 -0.0813
  854loPI   GL212986   3.346  10.072   6.339 -0.1686  0.2046  0.2850
  854loPI   C1A12987   3.636   9.866   6.743 -0.1040 -0.1327 -0.4092
  854loPI   C2A12988   3.654   9.786   7.144 -0.1245 -0.0577  0.1211
  854loPI   C3A12989   3.675   9.742   7.547 -0.1209 -0.0634  0.0516
  854loPI   C4A12990   3.678   9.872   7.899 -0.1701  0.1187  0.1021
  854loPI   C5A12991   3.538   9.879   8.325 -0.1531  0.1267 -0.0407
  854loPI   C6A12992   3.231  10.052   8.626 -0.0647 -0.0316  0.0165
  854loPI   C1B12993   3.181  10.103   6.764 -0.2384  0.0771  0.3268
  854loPI   C2B12994   3.165  10.025   7.174 -0.0058 -0.1097  0.1252
  854loPI   C3B12995   3.219  10.018   7.675 -0.1328 -0.3865 -0.2449
  854loPI   C4B12996   3.204  10.084   8.095 -0.0416 -0.0380  0.1640
  855loPI    C112997   0.835  15.345   5.729 -0.0395 -0.0471  0.0805
  855loPI    C212998   0.619  15.221   5.416 -0.0140 -0.0321  0.0568
  855loPI    C312999   0.939  15.454   5.358  0.0481 -0.1092  0.0865
  855loPI   PO413000   0.622  15.452   5.935  0.1359  0.2574 -0.2349
  855loPI   GL113001   0.502  15.496   6.428  0.3378  0.0729 -0.0704
  855loPI   GL213002   0.707  15.441   6.751 -0.0667 -0.0048  0.2749
  855loPI   C1A13003   0.254  15.657   6.904 -0.1369 -0.1330 -0.1993
  855loPI   C2A13004   0.331  15.707   7.308  0.2707  0.1018  0.3215
  855loPI   C3A13005   0.369  15.679   7.647 -0.1380  0.0749 -0.0240
  855loPI   C4A13006   0.324  15.726   8.116  0.2040 -0.0635  0.1890
  855loPI   C5A13007   0.201  15.799   8.499 -0.0123  0.1646 -0.2861
  855loPI   C6A13008  -0.257  15.785   8.732  0.1359  0.1854 -0.0515
  855loPI   C1B13009   0.778  15.459   7.160 -0.3688  0.0442  0.1225
  855loPI   C2B13010   0.870  15.515   7.643 -0.0379 -0.0082  0.3121
  855loPI   C3B13011   0.842  15.561   8.078 -0.1147 -0.0038  0.1275
  855loPI   C4B13012   0.711  15.554   8.474  0.0873 -0.0857  0.1031
  856loPI    C113013   7.192  15.216   5.710 -0.1077  0.1226  0.0126
  856loPI    C213014   7.271  15.585   5.577 -0.1837  0.1865  0.1428
  856loPI    C313015   7.105  15.315   5.332  0.1220  0.1541 -0.0332
  856loPI   PO413016   7.053  15.281   6.023 -0.0533  0.2835  0.2623
  856loPI   GL113017   7.240  15.079   6.441 -0.0472  0.0352  0.1149
  856loPI   GL213018   7.391  15.393   6.518 -0.0362  0.3403 -0.0290
  856loPI   C1A13019   6.955  15.051   6.871  0.0038 -0.0666  0.3200
  856loPI   C2A13020   7.034  15.085   7.279 -0.1499  0.1246  0.2275
  856loPI   C3A13021   7.032  15.135   7.619 -0.2325  0.1146  0.2183
  856loPI   C4A13022   7.070  15.076   8.094 -0.0231  0.1564  0.3063
  856loPI   C5A13023   6.749  15.077   8.528 -0.1029 -0.2181  0.1579
  856loPI   C6A13024   6.268  14.887   8.671 -0.0213 -0.1249  0.1664
  856loPI   C1B13025   7.400  15.319   6.924  0.1239  0.1735  0.1404
  856loPI   C2B13026   7.479  15.314   7.371  0.1908  0.0243 -0.0625
  856loPI   C3B13027   7.441  15.412   7.790  0.1487  0.1858 -0.2861
  856loPI   C4B13028   7.448  15.451   8.222  0.0562 -0.0892  0.3533
  857loPI    C113029   2.249  11.866   5.678 -0.1036 -0.0206 -0.1278
  857loPI    C213030   2.122  12.037   5.340  0.2184  0.1002 -0.1914
  857loPI    C313031   2.351  11.710   5.325  0.0231 -0.0445 -0.0811
  857loPI   PO413032   2.036  11.936   5.866  0.3670 -0.2381 -0.1170
  857loPI   GL113033   2.010  12.088   6.381  0.1461 -0.1895 -0.1684
  857loPI   GL213034   2.133  11.775   6.305  0.0095  0.0403  0.0176
  857loPI   C1A13035   2.110  12.086   6.762  0.0008 -0.1958  0.0347
  857loPI   C2A13036   2.227  12.167   7.190  0.1398  0.0449  0.1780
  857loPI   C3A13037   2.297  12.184   7.701  0.4525 -0.0028  0.2495
  857loPI   C4A13038   2.269  12.232   8.078  0.0364 -0.2948  0.0137
  857loPI   C5A13039   2.130  12.322   8.490 -0.1096 -0.1894 -0.2089
  857loPI   C6A13040   2.305  12.601   8.766 -0.3439 -0.1173  0.0021
  857loPI   C1B13041   2.150  11.522   6.653 -0.1624 -0.2057  0.1650
  857loPI   C2B13042   2.196  11.620   7.005  0.0415  0.2138  0.1780
  857loPI   C3B13043   2.242  11.583   7.460  0.0770 -0.0953  0.0867
  857loPI   C4B13044   2.326  11.706   7.891  0.1839  0.2737  0.2257
  858loPI    C113045   4.099  12.622   5.822  0.1669  0.1798 -0.0957
  858loPI    C213046   3.843  12.335   5.933  0.1288  0.2998  0.1309
  858loPI    C313047   4.009  12.325   5.569  0.0893  0.0187  0.1188
  858loPI   PO413048   4.289  12.556   6.059  0.0162 -0.4711  0.0832
  858loPI   GL113049   4.558  12.775   6.484 -0.1235 -0.1629 -0.1942
  858loPI   GL213050   4.897  12.691   6.696  0.0342 -0.2991 -0.1065
  858loPI   C1A13051   4.395  13.014   6.867  0.1297  0.0011 -0.0623
  858loPI   C2A13052   4.453  12.977   7.322 -0.1490 -0.2531  0.0006
  858loPI   C3A13053   4.471  12.922   7.708 -0.0194 -0.1498 -0.1808
  858loPI   C4A13054   4.473  13.025   8.141  0.0589 -0.0175 -0.0184
  858loPI   C5A13055   4.331  12.995   8.551 -0.0943  0.3989 -0.1868
  858loPI   C6A13056   4.021  12.680   8.705 -0.0258  0.1335 -0.0400
  858loPI   C1B13057   4.792  12.746   7.070  0.3179 -0.1387 -0.1815
  858loPI   C2B13058   4.897  12.747   7.532 -0.0949 -0.1018 -0.2956
  858loPI   C3B13059   4.886  12.745   8.009  0.1732 -0.2995  0.2374
  858loPI   C4B13060   4.922  12.790   8.474 -0.0567  0.4528  0.4229
  859loPI    C113061   3.957   8.546   5.543 -0.2330 -0.2125  0.0804
  859loPI    C213062   3.954   8.271   5.253 -0.0512 -0.0653 -0.0637
  859loPI    C313063   3.962   8.660   5.160  0.0908 -0.0183  0.1382
  859loPI   PO413064   4.162   8.382   5.758 -0.0581  0.2864  0.0242
  859loPI   GL113065   4.079   8.327   6.291 -0.0710  0.2966 -0.4482
  859loPI   GL213066   4.120   8.058   6.445 -0.0921  0.0945  0.0895
  859loPI   C1A13067   4.169   8.554   6.555 -0.1015 -0.2324 -0.1333
  859loPI   C2A13068   4.130   8.610   6.941  0.2948  0.0044  0.0081
  859loPI   C3A13069   4.167   8.564   7.342 -0.2261  0.1835 -0.3335
  859loPI   C4A13070   4.162   8.569   7.790  0.1349 -0.1668 -0.0423
  859loPI   C5A13071   4.202   8.627   8.272 -0.3942  0.1816  0.1555
  859loPI   C6A13072   4.187   8.595   8.780  0.0049  0.0568 -0.0373
  859loPI   C1B13073   4.174   8.027   6.946  0.0602  0.0284 -0.0575
  859loPI   C2B13074   4.156   8.033   7.269 -0.0955 -0.1592  0.3019
  859loPI   C3B13075   4.188   8.088   7.660 -0.1282  0.1967  0.0290
  859loPI   C4B13076   4.150   8.144   8.138  0.1413  0.0444  0.3710
  860loPI    C113077   4.290   2.180   6.121 -0.0774 -0.2879  0.0734
  860loPI    C213078   4.665   2.218   6.255 -0.0156 -0.2773 -0.1009
  860loPI    C313079   4.598   2.133   5.870 -0.1982  0.0639 -0.1485
  860loPI   PO413080   4.103   2.316   6.371 -0.1227 -0.0972 -0.2529
  860loPI   GL113081   4.014   2.486   6.808 -0.1864 -0.1606 -0.2025
  860loPI   GL213082   4.335   2.669   6.943 -0.0516 -0.0268 -0.2349
  860loPI   C1A13083   3.920   2.488   7.131  0.0862  0.1269  0.2428
  860loPI   C2A13084   3.869   2.534   7.506 -0.3599  0.2717  0.1228
  860loPI   C3A13085   3.840   2.646   7.940  0.0187 -0.1715  0.1563
  860loPI   C4A13086   3.928   2.680   8.314  0.3251 -0.0541 -0.1263
  860loPI   C5A13087   4.317   2.522   8.492  0.1469 -0.1742  0.2434
  860loPI   C6A13088   4.621   2.202   8.308 -0.1009 -0.4492 -0.1587
  860loPI   C1B13089   4.360   2.498   7.360  0.2715 -0.0054 -0.3733
  860loPI   C2B13090   4.295   2.579   7.767  0.2584 -0.1642 -0.3163
  860loPI   C3B13091   4.325   2.878   8.074  0.1554  0.1341 -0.0471
  860loPI   C4B13092   4.399   3.069   8.558 -0.0053  0.0740  0.1378
  861loPI    C113093   8.401   8.130   5.984 -0.0222 -0.1440  0.0549
  861loPI    C213094   8.114   7.851   5.962 -0.1777  0.0119  0.0809
  861loPI    C313095   8.117   8.158   5.704 -0.0680  0.0432  0.1184
  861loPI   PO413096   8.410   8.174   6.219  0.3280 -0.2311  0.3359
  861loPI   GL113097   8.148   7.914   6.452  0.2798 -0.0613 -0.2610
  861loPI   GL213098   7.842   7.777   6.556  0.2430 -0.0317 -0.2026
  861loPI   C1A13099   8.227   8.020   6.818 -0.1951 -0.1549 -0.3505
  861loPI   C2A13100   8.358   7.969   7.227  0.0185 -0.0713  0.3036
  861loPI   C3A13101   8.239   7.920   7.636  0.1591 -0.0743 -0.3704
  861loPI   C4A13102   8.279   7.890   8.001 -0.0938  0.1453  0.1925
  861loPI   C5A13103   8.260   7.919   8.412 -0.1254  0.0724  0.3270
  861loPI   C6A13104   8.583   7.887   8.755 -0.1138  0.2815 -0.2792
  861loPI   C1B13105   7.825   7.756   7.042 -0.1161 -0.2565 -0.0609
  861loPI   C2B13106   7.802   7.667   7.578  0.1165  0.1082 -0.0472
  861loPI   C3B13107   7.838   7.788   8.083 -0.3603  0.3155 -0.0756
  861loPI   C4B13108   7.874   7.645   8.478 -0.1880 -0.0272 -0.0359
  862loPI    C113109  14.799   6.725   5.846  0.0603 -0.0002 -0.0374
  862loPI    C213110  14.859   6.330   5.839  0.1267  0.0101 -0.0495
  862loPI    C313111  14.625   6.501   5.563  0.3379  0.0183 -0.2265
  862loPI   PO413112  14.805   6.706   6.136  0.0086 -0.0835  0.1234
  862loPI   GL113113  14.714   6.382   6.360  0.2051 -0.0664 -0.0153
  862loPI   GL213114  14.818   6.001   6.525  0.1071  0.1650  0.1198
  862loPI   C1A13115  14.581   6.397   6.766  0.4015  0.1167  0.1165
  862loPI   C2A13116  14.644   6.344   7.199 -0.0249 -0.0601  0.0918
  862loPI   C3A13117  14.672   6.318   7.520  0.5855 -0.1779  0.3730
  862loPI   C4A13118  14.563   6.349   7.879  0.0450 -0.2711  0.3388
  862loPI   C5A13119  14.595   6.348   8.326 -0.1508 -0.1338  0.2235
  862loPI   C6A13120  14.384   6.399   8.826  0.0665  0.1522  0.0956
  862loPI   C1B13121  14.925   6.019   6.926  0.2659  0.0858 -0.2222
  862loPI   C2B13122  15.018   6.039   7.352 -0.2108  0.2468 -0.0309
  862loPI   C3B13123  15.147   6.259   7.743 -0.3135 -0.0760 -0.1716
  862loPI   C4B13124  15.237   6.294   8.088 -0.1998 -0.1288  0.0793
  863loPI    C113125  17.062   2.063   5.848  0.1667  0.3512 -0.2326
  863loPI    C213126  17.291   1.857   5.594  0.1025 -0.0676  0.0384
  863loPI    C313127  16.901   1.903   5.519  0.1049 -0.0977  0.0077
  863loPI   PO413128  17.009   1.888   6.039 -0.1326  0.0611  0.0627
  863loPI   GL113129  16.912   1.942   6.480 -0.0176  0.0074  0.2705
  863loPI   GL213130  17.224   1.800   6.497 -0.0009  0.2310  0.2136
  863loPI   C1A13131  16.758   2.007   6.781  0.0461  0.0666  0.3754
  863loPI   C2A13132  16.825   1.958   7.222 -0.0843 -0.1466 -0.0662
  863loPI   C3A13133  16.755   1.988   7.637 -0.0117 -0.3246  0.2177
  863loPI   C4A13134  16.770   1.991   8.086 -0.1377  0.3306 -0.2099
  863loPI   C5A13135  16.886   1.856   8.466  0.0256  0.2355 -0.1084
  863loPI   C6A13136  16.789   1.663   8.904 -0.1939  0.2154  0.1482
  863loPI   C1B13137  17.180   1.744   6.899 -0.1335 -0.2535 -0.0974
  863loPI   C2B13138  17.240   1.734   7.397 -0.2516  0.0083 -0.2841
  863loPI   C3B13139  17.201   1.761   7.720  0.0454  0.0688 -0.0018
  863loPI   C4B13140  17.248   1.712   8.141 -0.0246 -0.0555  0.0985
  864loPI    C113141   9.140   1.590   5.686 -0.1289  0.0916  0.2205
  864loPI    C213142   8.744   1.556   5.636 -0.1096  0.1224  0.0383
  864loPI    C313143   8.993   1.330   5.420 -0.0213  0.2866 -0.0331
  864loPI   PO413144   9.310   1.740   5.898 -0.1888 -0.1695 -0.2907
  864loPI   GL113145   9.410   1.776   6.353 -0.0346 -0.1341 -0.1291
  864loPI   GL213146   9.195   1.612   6.543 -0.2263 -0.2873 -0.0537
  864loPI   C1A13147   9.685   1.868   6.655 -0.3500 -0.1680 -0.1580
  864loPI   C2A13148   9.673   1.960   7.127  0.1633 -0.0201 -0.3105
  864loPI   C3A13149   9.626   2.019   7.559  0.0815  0.0642  0.0264
  864loPI   C4A13150   9.685   2.079   7.992  0.2757  0.1043  0.1222
  864loPI   C5A13151   9.789   1.881   8.389  0.1853 -0.2458 -0.1449
  864loPI   C6A13152  10.179   2.038   8.703  0.1109  0.1845 -0.0248
  864loPI   C1B13153   9.309   1.657   6.911 -0.1573 -0.0692  0.0752
  864loPI   C2B13154   9.235   1.695   7.369 -0.0577 -0.0159  0.1912
  864loPI   C3B13155   9.255   1.703   7.827  0.1648  0.1775  0.0974
  864loPI   C4B13156   9.294   1.732   8.223 -0.2049 -0.3056 -0.3288
  865loPI    C113157  13.411  15.822   5.657  0.0042 -0.1373 -0.2157
  865loPI    C213158  13.661  16.070   5.467 -0.0626 -0.0746 -0.2219
  865loPI    C313159  13.472  15.782   5.263 -0.1087 -0.0285 -0.2447
  865loPI   PO413160  13.538  15.753   5.896  0.0646  0.0410  0.2173
  865loPI   GL113161  13.416  15.491   6.210  0.1870 -0.3566 -0.1305
  865loPI   GL213162  13.297  15.238   6.283  0.2023 -0.1994 -0.1618
  865loPI   C1A13163  13.341  15.633   6.665  0.1398  0.1014 -0.4092
  865loPI   C2A13164  13.224  15.519   7.080  0.0717 -0.0341  0.0181
  865loPI   C3A13165  13.202  15.591   7.529  0.1644 -0.1911 -0.0393
  865loPI   C4A13166  13.166  15.560   8.026 -0.0759  0.0515 -0.1825
  865loPI   C5A13167  13.207  15.681   8.373 -0.4104  0.0968  0.1799
  865loPI   C6A13168  13.212  15.798   8.751 -0.0253  0.2231  0.0690
  865loPI   C1B13169  13.264  15.134   6.669  0.0070 -0.0983 -0.0239
  865loPI   C2B13170  13.279  15.018   6.984  0.2694 -0.0821 -0.4605
  865loPI   C3B13171  13.215  15.067   7.447  0.3286  0.1637 -0.1239
  865loPI   C4B13172  13.266  15.064   7.856  0.0370  0.1007  0.1339
  866loPI    C113173   2.585  14.672   5.644 -0.2327  0.2266  0.0235
  866loPI    C213174   2.299  14.786   5.389 -0.3602 -0.1244  0.0049
  866loPI    C313175   2.570  14.514   5.277  0.0945  0.3320 -0.0391
  866loPI   PO413176   2.476  14.774   5.985  0.0910 -0.0948 -0.4439
  866loPI   GL113177   2.487  14.662   6.398  0.3196 -0.0129 -0.0219
  866loPI   GL213178   2.198  14.821   6.374  0.1420  0.1696 -0.1215
  866loPI   C1A13179   2.588  14.954   6.755  0.3153 -0.2510 -0.2025
  866loPI   C2A13180   2.673  15.031   7.193  0.0665  0.0611  0.0258
  866loPI   C3A13181   2.559  14.949   7.667 -0.1367 -0.0306 -0.3563
  866loPI   C4A13182   2.669  15.048   8.110 -0.0336 -0.2225  0.0403
  866loPI   C5A13183   2.421  14.890   8.334  0.0032 -0.0801 -0.0824
  866loPI   C6A13184   2.179  14.687   8.434 -0.0055  0.0035 -0.1516
  866loPI   C1B13185   2.125  14.645   6.743 -0.0520  0.1922 -0.0502
  866loPI   C2B13186   2.116  14.601   7.118  0.1361  0.1581 -0.2050
  866loPI   C3B13187   2.125  14.666   7.474 -0.2368  0.0680  0.0974
  866loPI   C4B13188   2.174  14.681   7.922 -0.2215  0.1921  0.0824
  867loPI    C113189   7.771   0.436   5.833  0.0594  0.0638  0.1710
  867loPI    C213190   7.976   0.098   5.771 -0.2126 -0.0585 -0.0888
  867loPI    C313191   8.037   0.416   5.535 -0.1813 -0.0292 -0.0414
  867loPI   PO413192   7.833   0.529   6.152 -0.1018  0.3471  0.1080
  867loPI   GL113193   7.997   0.771   6.435 -0.1695  0.3379  0.3042
  867loPI   GL213194   8.313   0.557   6.579 -0.0254 -0.1582 -0.0980
  867loPI   C1A13195   7.877   0.822   6.774  0.1531 -0.0594  0.5990
  867loPI   C2A13196   8.019   0.958   7.228 -0.1316 -0.2312 -0.0783
  867loPI   C3A13197   7.946   1.032   7.634 -0.0343 -0.0341  0.1755
  867loPI   C4A13198   7.898   0.926   8.060  0.3141  0.1937 -0.0786
  867loPI   C5A13199   7.711   0.980   8.545 -0.0784  0.0006 -0.1170
  867loPI   C6A13200   7.628   1.405   8.583 -0.1040 -0.4175 -0.1959
  867loPI   C1B13201   8.385   0.672   6.964 -0.1384  0.0264 -0.0402
  867loPI   C2B13202   8.422   0.635   7.381  0.0934 -0.1381 -0.1688
  867loPI   C3B13203   8.302   0.689   7.836 -0.2238 -0.1976 -0.1390
  867loPI   C4B13204   8.281   0.806   8.323  0.1452 -0.0669 -0.0210
  868loPI    C113205   9.030   3.284   5.884  0.1192 -0.3152 -0.0146
  868loPI    C213206   8.927   3.219   5.503 -0.0478 -0.0133 -0.0238
  868loPI    C313207   9.309   3.186   5.616  0.0030 -0.0991 -0.2180
  868loPI   PO413208   8.937   3.142   6.138 -0.1907 -0.3046  0.1119
  868loPI   GL113209   9.018   3.119   6.482  0.1710  0.0113  0.2926
  868loPI   GL213210   9.099   2.728   6.452 -0.0040  0.1723 -0.0460
  868loPI   C1A13211   8.666   2.963   6.804 -0.1495  0.0474 -0.2666
  868loPI   C2A13212   8.686   2.931   7.272  0.0292  0.0081  0.1702
  868loPI   C3A13213   8.777   3.024   7.785 -0.4084  0.1657  0.2746
  868loPI   C4A13214   8.734   2.995   8.242  0.0311 -0.0628 -0.0314
  868loPI   C5A13215   8.870   3.084   8.620 -0.0888  0.0081  0.2069
  868loPI   C6A13216   8.855   3.253   8.990 -0.0867 -0.0740  0.1187
  868loPI   C1B13217   9.209   2.607   6.846 -0.1148  0.2112 -0.3590
  868loPI   C2B13218   9.189   2.666   7.240  0.1796  0.0637 -0.1527
  868loPI   C3B13219   9.162   2.741   7.711 -0.0806 -0.1227  0.0325
  868loPI   C4B13220   9.193   2.812   8.132  0.1078  0.1574 -0.2021
  869loPI    C113221   4.184   4.654   6.010  0.1428 -0.4205  0.0552
  869loPI    C213222   3.838   4.780   5.853  0.1751 -0.2727  0.1007
  869loPI    C313223   4.147   4.696   5.613  0.2645  0.0742  0.0897
  869loPI   PO413224   4.045   4.685   6.304 -0.0037  0.1485  0.1322
  869loPI   GL113225   4.145   4.502   6.648  0.4155 -0.2596 -0.1486
  869loPI   GL213226   4.339   4.387   6.934 -0.1775 -0.1590 -0.1470
  869loPI   C1A13227   3.854   4.652   6.982 -0.1040  0.0430  0.2285
  869loPI   C2A13228   3.810   4.656   7.356  0.0433 -0.2652 -0.2392
  869loPI   C3A13229   3.826   4.688   7.808  0.2163  0.2268  0.1850
  869loPI   C4A13230   3.840   4.747   8.280  0.2778 -0.0604 -0.1962
  869loPI   C5A13231   3.748   4.816   8.697  0.0925 -0.1930 -0.1126
  869loPI   C6A13232   3.803   5.171   8.953  0.0048  0.3685  0.1617
  869loPI   C1B13233   4.268   4.316   7.298 -0.0101 -0.2361 -0.0523
  869loPI   C2B13234   4.281   4.402   7.768 -0.0558 -0.1120  0.0420
  869loPI   C3B13235   4.311   4.444   8.189  0.2320 -0.1123  0.1034
  869loPI   C4B13236   4.073   4.346   8.486 -0.1270 -0.0852 -0.1290
  870loPI    C113237  14.079   2.449   5.728  0.1010 -0.3778  0.0679
  870loPI    C213238  13.863   2.408   5.393 -0.0055 -0.3348  0.1308
  870loPI    C313239  13.754   2.675   5.670  0.2322 -0.1834  0.0819
  870loPI   PO413240  14.154   2.189   5.846  0.1356 -0.0374 -0.0408
  870loPI   GL113241  14.189   2.195   6.344  0.0760  0.1158  0.2471
  870loPI   GL213242  14.160   1.953   6.511 -0.1334  0.0526 -0.2872
  870loPI   C1A13243  14.071   2.461   6.665  0.2005  0.1749 -0.3821
  870loPI   C2A13244  14.106   2.445   7.109  0.2747  0.2616 -0.2234
  870loPI   C3A13245  14.102   2.371   7.537  0.2509  0.0710 -0.0309
  870loPI   C4A13246  14.075   2.530   7.878 -0.1329  0.1509  0.1826
  870loPI   C5A13247  14.280   2.453   8.264  0.0811 -0.0763 -0.1448
  870loPI   C6A13248  14.436   2.117   8.333 -0.0657 -0.2158 -0.3379
  870loPI   C1B13249  14.180   1.928   6.868 -0.0147 -0.1228 -0.1664
  870loPI   C2B13250  14.070   1.920   7.223 -0.2121  0.3368  0.1745
  870loPI   C3B13251  14.125   1.882   7.597 -0.0259 -0.0153 -0.2007
  870loPI   C4B13252  14.075   1.950   8.009  0.1482 -0.1523  0.0991
  871loPI    C113253   2.853   7.248   5.872 -0.1175  0.0105 -0.1026
  871loPI    C213254   2.671   7.473   5.596  0.0392  0.1183 -0.1192
  871loPI    C313255   3.003   7.606   5.775  0.0871 -0.0652 -0.0702
  871loPI   PO413256   2.776   7.217   6.061  0.1267 -0.0137  0.2344
  871loPI   GL113257   2.801   7.300   6.550  0.2260 -0.1197  0.3834
  871loPI   GL213258   2.830   7.582   6.365 -0.0016  0.1329 -0.0991
  871loPI   C1A13259   2.861   7.207   7.028  0.2501 -0.2291  0.0775
  871loPI   C2A13260   2.773   7.261   7.440 -0.3373 -0.1833 -0.0310
  871loPI   C3A13261   2.880   7.252   7.863 -0.1058 -0.1719 -0.1058
  871loPI   C4A13262   2.839   7.279   8.261  0.0332 -0.2793  0.0664
  871loPI   C5A13263   2.889   7.455   8.576 -0.5739 -0.1130  0.0411
  871loPI   C6A13264   2.979   7.987   8.611 -0.1159 -0.2120 -0.2798
  871loPI   C1B13265   2.822   7.777   6.811  0.1347  0.5513 -0.1383
  871loPI   C2B13266   2.834   7.828   7.238 -0.2944  0.1738  0.1821
  871loPI   C3B13267   2.849   7.735   7.672  0.1059  0.2006  0.2474
  871loPI   C4B13268   2.888   7.818   8.136 -0.0317  0.0879 -0.0459
  872loPI    C113269   8.526   5.535   6.199 -0.0088  0.1763  0.1935
  872loPI    C213270   8.871   5.420   6.033 -0.2677 -0.0307 -0.2185
  872loPI    C313271   8.715   5.778   5.943 -0.1680  0.0594 -0.0389
  872loPI   PO413272   8.573   5.543   6.422  0.0759  0.1115 -0.1564
  872loPI   GL113273   8.558   5.273   6.725  0.2810 -0.1539  0.0643
  872loPI   GL213274   8.648   4.968   6.825  0.2088  0.0823  0.0324
  872loPI   C1A13275   8.390   5.211   7.115  0.0844  0.3081 -0.1671
  872loPI   C2A13276   8.287   5.225   7.537 -0.0870 -0.1866  0.1101
  872loPI   C3A13277   8.305   5.284   7.978 -0.2615 -0.2391  0.0543
  872loPI   C4A13278   8.481   5.358   8.379  0.1505  0.1861 -0.0307
  872loPI   C5A13279   8.401   5.611   8.752 -0.0801 -0.1979  0.0410
  872loPI   C6A13280   8.675   5.756   9.102  0.0493 -0.1769 -0.3357
  872loPI   C1B13281   8.802   4.889   7.215  0.1951 -0.0326 -0.0536
  872loPI   C2B13282   8.710   4.952   7.585  0.1766  0.0294 -0.0294
  872loPI   C3B13283   8.806   5.026   8.029 -0.1630  0.1340 -0.1101
  872loPI   C4B13284   8.866   5.130   8.415  0.0286  0.0409  0.0722
  873loPI    C113285  10.464   1.445   5.941 -0.0563 -0.0442 -0.0834
  873loPI    C213286  10.130   1.233   6.005 -0.1422  0.0587 -0.1863
  873loPI    C313287  10.160   1.468   5.682  0.0744 -0.0369 -0.2378
  873loPI   PO413288  10.554   1.418   6.221 -0.1705  0.1045  0.2685
  873loPI   GL113289  10.513   1.230   6.616 -0.1814 -0.2215 -0.1664
  873loPI   GL213290  10.188   1.095   6.671  0.1259  0.2256 -0.1368
  873loPI   C1A13291  10.562   1.388   6.998 -0.2441 -0.0324 -0.2450
  873loPI   C2A13292  10.543   1.477   7.413 -0.0517 -0.0957 -0.0779
  873loPI   C3A13293  10.533   1.521   7.779 -0.0506  0.3436 -0.0684
  873loPI   C4A13294  10.648   1.403   8.101  0.0088 -0.1469  0.0152
  873loPI   C5A13295  10.933   1.461   8.465  0.1365  0.0757 -0.0201
  873loPI   C6A13296  10.869   1.427   8.902  0.0778 -0.0552 -0.2745
  873loPI   C1B13297  10.117   1.075   7.024  0.0303 -0.1647 -0.3421
  873loPI   C2B13298  10.143   1.203   7.499 -0.0434 -0.3226 -0.0064
  873loPI   C3B13299  10.116   1.255   7.956 -0.2513  0.1551  0.0230
  873loPI   C4B13300  10.034   1.315   8.355 -0.2060 -0.0379  0.1464
  874loPI    C113301   5.872  15.144   5.649  0.1115  0.3015 -0.1132
  874loPI    C213302   5.826  14.983   5.286  0.0247 -0.0344  0.0422
  874loPI    C313303   6.192  15.030   5.439  0.0619  0.1156 -0.0897
  874loPI   PO413304   5.781  14.971   5.864 -0.1480  0.0226  0.3273
  874loPI   GL113305   5.706  14.907   6.287 -0.3663 -0.3620  0.1678
  874loPI   GL213306   6.069  14.993   6.457 -0.0734  0.0122  0.1543
  874loPI   C1A13307   5.632  14.862   6.735 -0.0253  0.2383  0.1461
  874loPI   C2A13308   5.692  14.766   7.177 -0.2840  0.2770  0.0936
  874loPI   C3A13309   5.757  14.728   7.596  0.1133 -0.2597 -0.1245
  874loPI   C4A13310   5.738  14.815   8.003 -0.1848  0.0773  0.1170
  874loPI   C5A13311   5.763  14.863   8.456  0.0680  0.1634  0.1121
  874loPI   C6A13312   5.675  14.634   8.745 -0.3602  0.2467  0.0086
  874loPI   C1B13313   6.088  14.983   6.920 -0.1963 -0.3966  0.1204
  874loPI   C2B13314   6.169  14.973   7.359 -0.0536  0.0721  0.0906
  874loPI   C3B13315   6.140  15.068   7.810  0.2580  0.0664 -0.1107
  874loPI   C4B13316   6.228  15.206   8.157  0.0314 -0.3678 -0.0351
  875loPI    C113317   7.640   4.216   6.080  0.0885 -0.0506  0.0427
  875loPI    C213318   7.632   4.505   5.804  0.0727 -0.0050  0.0908
  875loPI    C313319   7.507   4.137   5.712 -0.1549  0.0673  0.1033
  875loPI   PO413320   7.682   4.297   6.411  0.2408  0.1407  0.0562
  875loPI   GL113321   7.485   4.514   6.749  0.2101 -0.0528 -0.0955
  875loPI   GL213322   7.337   4.245   6.781  0.1855 -0.0671  0.0622
  875loPI   C1A13323   7.524   4.759   7.005 -0.2671  0.5705  0.3612
  875loPI   C2A13324   7.425   4.772   7.363 -0.1500 -0.1918 -0.2483
  875loPI   C3A13325   7.424   4.723   7.729 -0.0579 -0.0132 -0.1201
  875loPI   C4A13326   7.406   4.824   8.160 -0.0653  0.3582  0.0102
  875loPI   C5A13327   7.524   4.898   8.585  0.1941  0.1065  0.1168
  875loPI   C6A13328   7.660   5.099   8.883 -0.1423 -0.2929  0.3040
  875loPI   C1B13329   7.423   4.191   7.202  0.1872 -0.3012  0.0049
  875loPI   C2B13330   7.417   4.245   7.636  0.0370  0.3183  0.2095
  875loPI   C3B13331   7.472   4.319   8.049 -0.1646  0.3424 -0.0090
  875loPI   C4B13332   7.519   4.408   8.495  0.1627 -0.2059  0.0487
  876loPI    C113333   2.540   9.965   6.023 -0.1091 -0.0208  0.0512
  876loPI    C213334   2.355  10.239   5.797 -0.0414  0.1280  0.1738
  876loPI    C313335   2.542   9.930   5.624 -0.2527  0.0715  0.0415
  876loPI   PO413336   2.412   9.992   6.251 -0.0713 -0.0019  0.1223
  876loPI   GL113337   2.201   9.866   6.556 -0.0751  0.1788 -0.1415
  876loPI   GL213338   1.993   9.692   6.493  0.0429 -0.0023  0.2051
  876loPI   C1A13339   2.273  10.067   6.937  0.1176  0.0868  0.0102
  876loPI   C2A13340   2.246  10.144   7.339  0.1317  0.0635 -0.1226
  876loPI   C3A13341   2.366  10.111   7.836 -0.1464  0.1395 -0.0360
  876loPI   C4A13342   2.333  10.158   8.270  0.0302 -0.1269  0.0105
  876loPI   C5A13343   2.204  10.136   8.735  0.1777 -0.0313  0.2428
  876loPI   C6A13344   2.442  10.315   9.032  0.0005  0.0346  0.0515
  876loPI   C1B13345   1.804   9.783   6.891 -0.1863 -0.2010  0.0138
  876loPI   C2B13346   1.808   9.834   7.390 -0.0537 -0.2480 -0.1758
  876loPI   C3B13347   1.868   9.880   7.842 -0.0780  0.1213 -0.1305
  876loPI   C4B13348   1.911   9.881   8.357 -0.2059 -0.2645 -0.3547
  877loPI    C113349  16.816   1.076   5.636  0.0349  0.1994  0.2030
  877loPI    C213350  16.494   1.263   5.488  0.0864  0.1437  0.0182
  877loPI    C313351  16.744   1.070   5.242  0.1307 -0.0173  0.1874
  877loPI   PO413352  16.645   1.091   5.988 -0.1416 -0.0067 -0.0277
  877loPI   GL113353  16.456   1.082   6.408 -0.0739 -0.0241  0.1619
  877loPI   GL213354  16.846   0.919   6.466  0.0786 -0.0893  0.2017
  877loPI   C1A13355  16.332   1.202   6.793 -0.1549  0.2673  0.0950
  877loPI   C2A13356  16.322   1.150   7.240  0.0576  0.0668 -0.0482
  877loPI   C3A13357  16.290   1.199   7.647 -0.0328 -0.0499 -0.1221
  877loPI   C4A13358  16.318   1.218   8.048 -0.0345 -0.0454 -0.1792
  877loPI   C5A13359  16.298   1.130   8.471  0.1546 -0.2607 -0.2305
  877loPI   C6A13360  16.164   1.015   8.849  0.2153  0.0837  0.2365
  877loPI   C1B13361  16.833   0.874   6.885  0.0518 -0.2185 -0.2307
  877loPI   C2B13362  16.769   0.907   7.364  0.1528 -0.4769 -0.1428
  877loPI   C3B13363  16.786   0.987   7.830 -0.0428 -0.0178  0.0908
  877loPI   C4B13364  16.631   0.854   8.145  0.1173 -0.3696  0.1563
  878loPI    C113365  16.508   6.415   5.939 -0.1452  0.1783  0.0514
  878loPI    C213366  16.445   6.098   5.703  0.1289 -0.0167  0.2341
  878loPI    C313367  16.158   6.372   5.751 -0.0862 -0.2004  0.0196
  878loPI   PO413368  16.522   6.351   6.250  0.2113 -0.0499 -0.1662
  878loPI   GL113369  16.383   6.247   6.632  0.0544  0.2192  0.2671
  878loPI   GL213370  16.452   5.954   6.564  0.0213  0.1372 -0.1314
  878loPI   C1A13371  16.290   6.314   7.008  0.1175 -0.1461 -0.2291
  878loPI   C2A13372  16.227   6.268   7.469  0.0431 -0.2874  0.1659
  878loPI   C3A13373  16.277   6.325   7.878  0.0197 -0.0993  0.2893
  878loPI   C4A13374  16.276   6.240   8.203 -0.2575 -0.0429 -0.1973
  878loPI   C5A13375  16.239   6.325   8.628  0.2911 -0.1282  0.1176
  878loPI   C6A13376  16.525   6.429   9.028 -0.1666  0.0381 -0.3647
  878loPI   C1B13377  16.253   5.843   7.092  0.1581  0.0009  0.2857
  878loPI   C2B13378  16.323   5.809   7.539  0.4044 -0.1756 -0.1992
  878loPI   C3B13379  16.329   5.810   7.975 -0.0352 -0.2200 -0.1254
  878loPI   C4B13380  16.372   5.812   8.442 -0.0460 -0.0077 -0.0745
  879loPI    C113381  12.497   8.130   5.912 -0.0899  0.0405  0.3003
  879loPI    C213382  12.110   8.216   5.859 -0.1113 -0.0868  0.2464
  879loPI    C313383  12.390   8.428   5.667 -0.1676 -0.2043  0.0319
  879loPI   PO413384  12.537   8.092   6.134 -0.0620  0.0539 -0.1482
  879loPI   GL113385  12.301   7.877   6.369  0.1439  0.0443  0.1725
  879loPI   GL213386  12.160   8.244   6.469 -0.0718  0.1328 -0.0379
  879loPI   C1A13387  12.334   7.724   6.754  0.0456  0.0650 -0.0420
  879loPI   C2A13388  12.411   7.819   7.174  0.3668  0.0099 -0.1690
  879loPI   C3A13389  12.443   7.714   7.585  0.0180 -0.0618 -0.0369
  879loPI   C4A13390  12.338   7.744   8.008 -0.0812 -0.1000 -0.2534
  879loPI   C5A13391  12.065   7.512   8.330 -0.0456  0.0955  0.0735
  879loPI   C6A13392  11.712   7.513   8.714 -0.0144 -0.3021 -0.1922
  879loPI   C1B13393  12.281   8.189   6.902  0.2185 -0.2962 -0.3796
  879loPI   C2B13394  12.397   8.250   7.378  0.1155 -0.2529  0.1346
  879loPI   C3B13395  12.365   8.287   7.892 -0.1913 -0.1950  0.0122
  879loPI   C4B13396  12.357   8.151   8.345  0.0444  0.1653  0.1092
  880loPI    C113397  15.240  11.895   5.832 -0.2230 -0.1754 -0.0235
  880loPI    C213398  15.348  11.555   5.651 -0.1166 -0.1205 -0.0639
  880loPI    C313399  15.523  11.901   5.549 -0.1099 -0.0776  0.0900
  880loPI   PO413400  15.229  11.770   6.147 -0.3678 -0.1547  0.1117
  880loPI   GL113401  15.201  11.573   6.443  0.0415  0.0550 -0.0202
  880loPI   GL213402  15.192  11.276   6.543  0.2700 -0.2849  0.0432
  880loPI   C1A13403  15.144  11.840   6.826 -0.0105  0.0087  0.1516
  880loPI   C2A13404  15.088  11.961   7.205 -0.0557 -0.2088 -0.2653
  880loPI   C3A13405  15.082  12.025   7.619 -0.1722  0.3079  0.0831
  880loPI   C4A13406  15.061  12.114   8.004 -0.1955  0.0257 -0.4019
  880loPI   C5A13407  15.093  12.371   8.416 -0.3117 -0.1249 -0.1930
  880loPI   C6A13408  15.273  12.541   8.746  0.0765 -0.1813 -0.2726
  880loPI   C1B13409  15.039  11.338   6.993  0.4246 -0.0865 -0.0118
  880loPI   C2B13410  15.043  11.461   7.378  0.0567 -0.1612 -0.0644
  880loPI   C3B13411  15.104  11.573   7.779  0.2366  0.1998 -0.2898
  880loPI   C4B13412  15.149  11.479   8.212 -0.0051 -0.1015 -0.2872
  881loPI    C113413  10.094   2.604   5.918 -0.0855  0.1725  0.0016
  881loPI    C213414  10.422   2.703   5.712 -0.0995 -0.0559 -0.1351
  881loPI    C313415  10.066   2.698   5.530 -0.1355 -0.1026 -0.0642
  881loPI   PO413416  10.128   2.390   6.022  0.0469  0.2585  0.1452
  881loPI   GL113417  10.071   2.247   6.415  0.2112 -0.1347  0.0310
  881loPI   GL213418  10.446   2.388   6.398  0.1938  0.0620 -0.1134
  881loPI   C1A13419  10.067   2.192   6.871 -0.1614  0.1188 -0.1149
  881loPI   C2A13420  10.153   2.267   7.361 -0.1035  0.0878 -0.0967
  881loPI   C3A13421  10.134   2.266   7.770 -0.1715  0.3233 -0.4334
  881loPI   C4A13422  10.153   2.259   8.231  0.1824 -0.2358  0.0263
  881loPI   C5A13423  10.098   2.576   8.528  0.0788  0.3311  0.0382
  881loPI   C6A13424  10.201   2.790   8.862 -0.0939 -0.1282 -0.0565
  881loPI   C1B13425  10.448   2.530   6.763  0.3655 -0.2400 -0.1712
  881loPI   C2B13426  10.582   2.539   7.195 -0.2476 -0.0625 -0.2097
  881loPI   C3B13427  10.653   2.538   7.586 -0.2944  0.1544  0.0551
  881loPI   C4B13428  10.634   2.456   7.982 -0.2396 -0.0000 -0.0084
  882loPI    C113429  15.622  13.329   5.422 -0.0962 -0.1397 -0.1339
  882loPI    C213430  15.287  13.120   5.359 -0.2423  0.0978 -0.1582
  882loPI    C313431  15.362  13.447   5.142 -0.0204  0.0770 -0.1147
  882loPI   PO413432  15.619  13.342   5.670 -0.0132 -0.0245 -0.3812
  882loPI   GL113433  15.316  13.329   6.052  0.0243 -0.0400 -0.0909
  882loPI   GL213434  14.949  13.528   6.144  0.3161 -0.1551 -0.0076
  882loPI   C1A13435  15.554  13.365   6.472 -0.0192 -0.0445 -0.2836
  882loPI   C2A13436  15.592  13.380   6.877 -0.1440 -0.2644 -0.1079
  882loPI   C3A13437  15.611  13.319   7.288  0.0497  0.2243  0.0797
  882loPI   C4A13438  15.602  13.357   7.631  0.1805  0.0010  0.2002
  882loPI   C5A13439  15.645  13.361   8.096 -0.3192  0.4216  0.2938
  882loPI   C6A13440  15.673  13.379   8.534 -0.0551  0.2085  0.0011
  882loPI   C1B13441  14.992  13.557   6.589 -0.1064 -0.1328 -0.0160
  882loPI   C2B13442  15.107  13.625   7.011 -0.1851  0.1691 -0.0358
  882loPI   C3B13443  15.152  13.575   7.445 -0.0787  0.1335 -0.0224
  882loPI   C4B13444  15.199  13.599   7.855 -0.3314  0.2174 -0.0527
  883loPI    C113445  11.452   1.138   5.692  0.2048 -0.2224 -0.0846
  883loPI    C213446  11.579   1.308   5.353  0.0904 -0.0223 -0.0287
  883loPI    C313447  11.197   1.345   5.464  0.0352 -0.4147 -0.0724
  883loPI   PO413448  11.652   1.159   5.810 -0.0553  0.1437 -0.1015
  883loPI   GL113449  11.894   1.105   6.287  0.1855 -0.0281  0.1652
  883loPI   GL213450  11.565   1.307   6.309  0.0465 -0.0681 -0.0156
  883loPI   C1A13451  11.948   1.115   6.684 -0.0045 -0.1708 -0.2806
  883loPI   C2A13452  11.780   1.189   7.084 -0.1599 -0.1305 -0.0482
  883loPI   C3A13453  11.910   1.156   7.444  0.0899  0.0185  0.1720
  883loPI   C4A13454  11.886   1.211   7.879  0.1395 -0.0751  0.0496
  883loPI   C5A13455  11.889   1.277   8.319  0.2177  0.1171 -0.0453
  883loPI   C6A13456  11.798   1.095   8.703 -0.0620 -0.1417 -0.0148
  883loPI   C1B13457  11.452   1.360   6.741  0.1484 -0.1048 -0.3754
  883loPI   C2B13458  11.465   1.537   7.124 -0.0113 -0.1295  0.0760
  883loPI   C3B13459  11.449   1.479   7.596 -0.0409 -0.0775 -0.1306
  883loPI   C4B13460  11.435   1.467   8.026 -0.0961 -0.0880  0.0821
  884loPI    C113461   3.711   2.021   5.719 -0.1419 -0.0985  0.0848
  884loPI    C213462   3.315   2.071   5.687 -0.1276  0.0119  0.0743
  884loPI    C313463   3.497   1.778   5.484 -0.2019 -0.0301  0.0681
  884loPI   PO413464   3.755   2.078   6.065 -0.0543 -0.0294 -0.1558
  884loPI   GL113465   3.632   2.035   6.416  0.1571 -0.2759 -0.0667
  884loPI   GL213466   3.581   2.291   6.507  0.1002  0.0904 -0.0780
  884loPI   C1A13467   3.495   1.764   6.747  0.0995 -0.1530  0.1059
  884loPI   C2A13468   3.438   1.779   7.173 -0.0461  0.0574  0.1256
  884loPI   C3A13469   3.479   1.783   7.618  0.0209 -0.0080 -0.1919
  884loPI   C4A13470   3.468   1.667   8.064  0.0510  0.0555  0.2237
  884loPI   C5A13471   3.303   1.877   8.420  0.1753  0.1134 -0.3669
  884loPI   C6A13472   3.437   2.061   8.729 -0.1910  0.0161 -0.1249
  884loPI   C1B13473   3.537   2.290   6.902  0.0781 -0.1305 -0.2465
  884loPI   C2B13474   3.437   2.276   7.349  0.2950 -0.2009  0.1504
  884loPI   C3B13475   3.401   2.268   7.808 -0.0174  0.0587 -0.1360
  884loPI   C4B13476   3.540   2.347   8.264  0.2069  0.2532  0.2130
  885loPI    C113477   1.603  16.323   5.851 -0.0857  0.3189  0.0883
  885loPI    C213478   2.001  16.355   5.827 -0.0470 -0.0730  0.1329
  885loPI    C313479   1.776  16.409   5.500  0.0559 -0.0298  0.0685
  885loPI   PO413480   1.570  16.360   6.061  0.0362 -0.0753 -0.3640
  885loPI   GL113481   1.958  16.289   6.314 -0.2497 -0.3679  0.0630
  885loPI   GL213482   1.674  16.062   6.427 -0.1946  0.0323  0.0131
  885loPI   C1A13483   2.132  16.188   6.715 -0.1003  0.3051 -0.0158
  885loPI   C2A13484   2.195  16.183   7.124  0.1602  0.0439  0.1278
  885loPI   C3A13485   2.162  16.336   7.561 -0.0578 -0.0191 -0.1402
  885loPI   C4A13486   2.114  16.256   7.950  0.1784  0.3207  0.0545
  885loPI   C5A13487   2.323  16.311   8.402  0.1636 -0.0208  0.0236
  885loPI   C6A13488   2.135  16.379   8.858  0.2416 -0.2704  0.0638
  885loPI   C1B13489   1.648  16.015   6.859 -0.1683  0.0487  0.2182
  885loPI   C2B13490   1.735  16.015   7.268  0.2344  0.0300  0.1524
  885loPI   C3B13491   1.739  16.088   7.716 -0.1522 -0.0385  0.0504
  885loPI   C4B13492   1.749  16.055   8.135 -0.0330  0.0068 -0.3673
  886loPI    C113493   6.599  12.967   5.755  0.0431  0.0084 -0.2132
  886loPI    C213494   6.682  12.808   5.398  0.1361 -0.0970 -0.1454
  886loPI    C313495   6.968  12.998   5.604  0.0856 -0.0463 -0.1218
  886loPI   PO413496   6.519  12.827   5.918  0.2155 -0.0078 -0.2188
  886loPI   GL113497   6.496  12.927   6.324 -0.2276  0.1026  0.1927
  886loPI   GL213498   6.392  13.229   6.259  0.1140  0.1471 -0.2035
  886loPI   C1A13499   6.681  12.682   6.617  0.0089 -0.0250  0.0219
  886loPI   C2A13500   6.536  12.711   7.080  0.0523  0.0573  0.3162
  886loPI   C3A13501   6.509  12.815   7.439 -0.1822 -0.0915  0.2063
  886loPI   C4A13502   6.621  12.774   7.859 -0.2710 -0.2727 -0.0303
  886loPI   C5A13503   6.674  12.759   8.310 -0.0957  0.1055  0.0896
  886loPI   C6A13504   6.690  12.539   8.738  0.0008  0.0534  0.1541
  886loPI   C1B13505   6.218  13.471   6.552 -0.0323  0.0019 -0.2527
  886loPI   C2B13506   6.079  13.538   6.999 -0.1852 -0.1149  0.1037
  886loPI   C3B13507   6.208  13.506   7.431 -0.0108  0.1277 -0.4471
  886loPI   C4B13508   6.187  13.514   7.973 -0.0084 -0.0216  0.0785
  887loPI    C113509   2.643   8.125   5.903 -0.2456 -0.0175  0.1958
  887loPI    C213510   2.432   7.925   5.628 -0.2362  0.0966  0.1046
  887loPI    C313511   2.420   8.325   5.637  0.3060  0.1285 -0.1753
  887loPI   PO413512   2.601   7.982   6.158 -0.0900 -0.2149 -0.1643
  887loPI   GL113513   2.413   8.086   6.566 -0.0279 -0.3828 -0.0652
  887loPI   GL213514   2.412   8.379   6.623 -0.2168 -0.0708  0.2160
  887loPI   C1A13515   2.364   7.981   6.913  0.1026  0.1308  0.4228
  887loPI   C2A13516   2.322   8.024   7.239 -0.2035 -0.1498 -0.1525
  887loPI   C3A13517   2.357   8.050   7.667 -0.1981 -0.0335 -0.2023
  887loPI   C4A13518   2.420   8.045   8.097  0.2048  0.1560  0.1403
  887loPI   C5A13519   2.477   7.726   8.493  0.2529 -0.0284  0.1812
  887loPI   C6A13520   2.385   7.478   8.813  0.2075 -0.1226 -0.0333
  887loPI   C1B13521   2.392   8.501   7.066 -0.0857 -0.0352 -0.2079
  887loPI   C2B13522   2.260   8.518   7.511  0.0419  0.1707 -0.1551
  887loPI   C3B13523   2.378   8.580   7.914  0.0729 -0.0168  0.0954
  887loPI   C4B13524   2.269   8.580   8.370  0.1413 -0.1297  0.3257
  888loPI    C113525   5.472   2.652   5.806 -0.2127  0.1228 -0.0021
  888loPI    C213526   5.452   2.257   5.747 -0.1732  0.1479 -0.1910
  888loPI    C313527   5.670   2.484   5.501 -0.1819  0.2855 -0.0727
  888loPI   PO413528   5.533   2.682   6.104 -0.0228 -0.2201 -0.1754
  888loPI   GL113529   5.389   2.897   6.491 -0.1266  0.0409  0.2275
  888loPI   GL213530   5.119   3.111   6.461 -0.1261  0.4489  0.1075
  888loPI   C1A13531   5.319   2.928   6.961  0.1253 -0.1097 -0.0939
  888loPI   C2A13532   5.284   2.768   7.302  0.1168  0.1129  0.1833
  888loPI   C3A13533   5.210   2.849   7.756  0.1168 -0.0141 -0.3253
  888loPI   C4A13534   5.265   2.911   8.186  0.3266  0.1201 -0.1231
  888loPI   C5A13535   5.343   2.776   8.564 -0.1544  0.1029  0.2681
  888loPI   C6A13536   5.301   2.440   8.830  0.0297  0.1062  0.1098
  888loPI   C1B13537   5.209   3.374   6.894 -0.1546 -0.0651  0.0047
  888loPI   C2B13538   5.217   3.329   7.318 -0.1023 -0.0370  0.2452
  888loPI   C3B13539   5.142   3.351   7.763  0.1103  0.0011  0.0870
  888loPI   C4B13540   5.248   3.459   8.100  0.3093 -0.1953 -0.0428
  889loPI    C113541  14.189  10.523   6.030 -0.0585 -0.2069  0.1020
  889loPI    C213542  14.396  10.289   5.781 -0.1729 -0.0140 -0.1806
  889loPI    C313543  14.028  10.183   5.896 -0.2236  0.0243 -0.3063
  889loPI   PO413544  14.293  10.700   6.216  0.3761  0.3360 -0.0806
  889loPI   GL113545  14.366  10.881   6.508 -0.0500  0.1697 -0.0734
  889loPI   GL213546  14.594  10.747   6.588 -0.4000 -0.1332 -0.4123
  889loPI   C1A13547  14.220  10.848   6.914  0.1998  0.2548 -0.0909
  889loPI   C2A13548  14.213  10.794   7.382  0.4022  0.0756  0.1066
  889loPI   C3A13549  14.147  10.991   7.802  0.1450  0.0508  0.0947
  889loPI   C4A13550  14.254  11.069   8.177  0.1893 -0.3614  0.2045
  889loPI   C5A13551  14.222  10.913   8.471  0.2603  0.0767  0.1983
  889loPI   C6A13552  14.402  10.716   8.738 -0.0924  0.2406  0.1614
  889loPI   C1B13553  14.673  10.596   6.996 -0.2008  0.1496 -0.1053
  889loPI   C2B13554  14.657  10.613   7.487  0.1308  0.1812  0.1027
  889loPI   C3B13555  14.558  10.750   7.857  0.0120  0.2483  0.2519
  889loPI   C4B13556  14.660  10.733   8.201 -0.1424 -0.1033 -0.0389
  890loPI    C113557   5.910   2.144   5.859 -0.0044 -0.0891 -0.1800
  890loPI    C213558   6.229   1.909   5.806  0.0094 -0.0752 -0.1588
  890loPI    C313559   6.200   2.255   5.606 -0.0048 -0.0889 -0.1805
  890loPI   PO413560   5.777   2.207   6.122  0.0092 -0.3265  0.1002
  890loPI   GL113561   5.750   2.429   6.517 -0.0701  0.0963  0.2006
  890loPI   GL213562   5.627   2.204   6.638  0.1118 -0.0323  0.0551
  890loPI   C1A13563   5.719   2.737   6.793 -0.0786 -0.2217 -0.1592
  890loPI   C2A13564   5.728   2.648   7.194  0.1920 -0.0276 -0.1824
  890loPI   C3A13565   5.766   2.635   7.583  0.1405  0.2199 -0.0736
  890loPI   C4A13566   5.762   2.615   8.077  0.0178  0.2524 -0.1918
  890loPI   C5A13567   5.758   2.511   8.481  0.0680  0.0128 -0.1427
  890loPI   C6A13568   5.781   2.188   8.738 -0.0461  0.1840 -0.2206
  890loPI   C1B13569   5.676   2.172   7.097 -0.1755  0.2412  0.0262
  890loPI   C2B13570   5.731   2.168   7.530  0.1982  0.3970 -0.0477
  890loPI   C3B13571   5.756   2.135   7.978 -0.0893  0.2422 -0.3113
  890loPI   C4B13572   5.601   2.018   8.349 -0.0718  0.0917  0.0799
  891loPI    C113573  16.168  13.903   5.455  0.0295  0.0291 -0.1168
  891loPI    C213574  16.084  13.512   5.434 -0.0366  0.0214  0.2383
  891loPI    C313575  16.316  13.682   5.156 -0.0487 -0.2585  0.0534
  891loPI   PO413576  15.977  13.929   5.743 -0.0290  0.1022 -0.0003
  891loPI   GL113577  16.117  13.975   6.162 -0.2560  0.2410  0.4225
  891loPI   GL213578  16.491  13.778   6.234 -0.0360  0.2895  0.3651
  891loPI   C1A13579  16.006  14.028   6.546  0.0423  0.0075 -0.1649
  891loPI   C2A13580  15.985  14.112   6.963 -0.0648 -0.2069  0.0116
  891loPI   C3A13581  16.052  14.066   7.376 -0.1380 -0.0108 -0.2360
  891loPI   C4A13582  15.966  14.145   7.727 -0.0295  0.2073  0.1418
  891loPI   C5A13583  16.021  14.097   8.197  0.0038  0.0409  0.3542
  891loPI   C6A13584  15.942  14.150   8.589 -0.0296 -0.0712  0.0402
  891loPI   C1B13585  16.512  13.863   6.651 -0.1550 -0.0734  0.1094
  891loPI   C2B13586  16.466  13.918   7.089  0.1982  0.1102  0.1575
  891loPI   C3B13587  16.429  13.889   7.528  0.1950  0.1554 -0.0766
  891loPI   C4B13588  16.409  13.926   7.933  0.2947 -0.3604  0.4216
  892loPI    C113589  14.918  10.209   5.853  0.0313  0.0598 -0.2248
  892loPI    C213590  15.040  10.557   6.006  0.1619 -0.1698  0.2109
  892loPI    C313591  15.042  10.501   5.610  0.4829  0.1951  0.1542
  892loPI   PO413592  15.000  10.045   6.071  0.0043  0.1162 -0.2021
  892loPI   GL113593  15.001   9.938   6.519 -0.3220  0.1391 -0.2821
  892loPI   GL213594  14.662  10.049   6.668  0.4329 -0.0301  0.4266
  892loPI   C1A13595  15.076   9.896   7.050  0.1001  0.4044 -0.1634
  892loPI   C2A13596  15.041   9.817   7.551  0.0666 -0.2184  0.0775
  892loPI   C3A13597  14.985   9.962   7.934  0.0686 -0.0263 -0.1038
  892loPI   C4A13598  15.074   9.809   8.340  0.0380  0.1479  0.0445
  892loPI   C5A13599  15.008   9.783   8.792 -0.3894  0.1559  0.0154
  892loPI   C6A13600  15.271  10.094   9.055  0.0838 -0.2153  0.0623
  892loPI   C1B13601  14.636  10.108   7.128 -0.1321  0.3242 -0.0024
  892loPI   C2B13602  14.588  10.103   7.601 -0.0699  0.0030 -0.2570
  892loPI   C3B13603  14.573  10.251   8.082  0.1882 -0.0631  0.0720
  892loPI   C4B13604  14.488  10.331   8.489  0.0931 -0.1909 -0.2682
  893loPI    C113605   0.249   6.896   5.944 -0.0677 -0.2738 -0.2103
  893loPI    C213606   0.546   6.796   5.695  0.2036  0.0826 -0.0391
  893loPI    C313607   0.225   6.992   5.557  0.0314 -0.3228 -0.2288
  893loPI   PO413608   0.382   6.918   6.191  0.1090 -0.2424  0.0887
  893loPI   GL113609   0.628   6.840   6.492 -0.1854  0.1319 -0.0304
  893loPI   GL213610   0.804   6.596   6.462 -0.0220  0.0209 -0.1275
  893loPI   C1A13611   0.586   6.875   6.914 -0.0319  0.0783 -0.1284
  893loPI   C2A13612   0.667   6.940   7.294  0.0919  0.1298  0.0492
  893loPI   C3A13613   0.584   6.859   7.693 -0.1582 -0.0920  0.0770
  893loPI   C4A13614   0.721   6.887   8.020  0.2094  0.0856  0.0078
  893loPI   C5A13615   0.620   7.091   8.452 -0.2161 -0.1132 -0.2141
  893loPI   C6A13616   0.467   7.012   8.834 -0.0307  0.0100 -0.1770
  893loPI   C1B13617   0.771   6.376   6.913  0.0274 -0.1631  0.0710
  893loPI   C2B13618   0.682   6.407   7.413 -0.4014  0.1671  0.2795
  893loPI   C3B13619   0.670   6.386   7.799 -0.0202 -0.0057 -0.1620
  893loPI   C4B13620   0.645   6.482   8.265 -0.1730 -0.1972  0.5868
  894loPI    C113621   2.530   1.234   5.814  0.0199 -0.0715 -0.0024
  894loPI    C213622   2.697   0.964   5.570 -0.2712 -0.0803 -0.1972
  894loPI    C313623   2.349   0.883   5.750 -0.0864 -0.0515  0.1823
  894loPI   PO413624   2.700   1.323   6.061 -0.2277 -0.3106 -0.0130
  894loPI   GL113625   2.653   1.302   6.535 -0.0163 -0.0230  0.1164
  894loPI   GL213626   2.890   1.068   6.492 -0.2875  0.2274  0.2197
  894loPI   C1A13627   2.581   1.326   7.006 -0.1639 -0.2355 -0.2142
  894loPI   C2A13628   2.506   1.258   7.428 -0.0142  0.1907  0.1939
  894loPI   C3A13629   2.540   1.285   7.965  0.0627 -0.2166 -0.0911
  894loPI   C4A13630   2.440   1.287   8.231 -0.1990 -0.0984  0.1280
  894loPI   C5A13631   2.301   1.642   8.551  0.0253  0.0216  0.1288
  894loPI   C6A13632   1.978   1.715   8.903  0.1623  0.0384  0.1231
  894loPI   C1B13633   2.947   1.025   6.921 -0.0493  0.1259 -0.1359
  894loPI   C2B13634   2.918   1.054   7.345 -0.0685  0.0510  0.0296
  894loPI   C3B13635   2.910   1.039   7.710  0.1530 -0.0848 -0.0456
  894loPI   C4B13636   3.002   1.035   8.212  0.1363  0.1135 -0.1062
  895loPI    C113637   9.237  10.200   5.909  0.0379  0.1159 -0.2837
  895loPI    C213638   8.923  10.436   5.981  0.1528  0.1810  0.0204
  895loPI    C313639   9.000  10.314   5.608 -0.1726  0.2468 -0.0719
  895loPI   PO413640   9.254  10.117   6.236  0.0316  0.2331 -0.0258
  895loPI   GL113641   8.989   9.964   6.596 -0.0060  0.1189  0.2001
  895loPI   GL213642   9.224  10.111   6.760 -0.1033  0.1005 -0.2483
  895loPI   C1A13643   8.810   9.789   6.857  0.2589 -0.0391  0.1101
  895loPI   C2A13644   8.753   9.723   7.241 -0.1335 -0.2193  0.2362
  895loPI   C3A13645   8.860   9.818   7.586  0.2250 -0.2869  0.1144
  895loPI   C4A13646   8.759   9.722   7.966  0.0100 -0.0054  0.0829
  895loPI   C5A13647   8.679   9.798   8.391  0.1900  0.0671 -0.1692
  895loPI   C6A13648   8.512  10.122   8.693  0.0548  0.0572  0.0055
  895loPI   C1B13649   9.204  10.095   7.149 -0.0133  0.0360  0.0606
  895loPI   C2B13650   9.282  10.149   7.587  0.1644 -0.0943  0.2618
  895loPI   C3B13651   9.223  10.045   8.018  0.0989 -0.2935  0.1584
  895loPI   C4B13652   9.111  10.170   8.426  0.0459 -0.0192 -0.1145
  896loPI    C113653  10.536  13.218   5.755  0.0761 -0.2841 -0.0859
  896loPI    C213654  10.671  13.162   5.382  0.2678 -0.0570 -0.0532
  896loPI    C313655  10.796  13.476   5.595  0.0362 -0.0968  0.1467
  896loPI   PO413656  10.539  12.957   5.874  0.0483  0.1325  0.1178
  896loPI   GL113657  10.478  12.877   6.280  0.0051  0.0393 -0.2804
  896loPI   GL213658  10.168  12.807   6.157  0.0203 -0.2368  0.0829
  896loPI   C1A13659  10.650  12.954   6.670 -0.0759  0.0384  0.0241
  896loPI   C2A13660  10.633  12.991   7.054 -0.0009  0.1117  0.0234
  896loPI   C3A13661  10.609  13.003   7.507  0.1410  0.0789 -0.0596
  896loPI   C4A13662  10.610  13.032   7.959 -0.1268  0.1945  0.0893
  896loPI   C5A13663  10.549  12.866   8.426  0.2933 -0.0079  0.2473
  896loPI   C6A13664  10.675  12.916   8.806  0.2760 -0.0069  0.0503
  896loPI   C1B13665  10.046  12.650   6.559  0.0515  0.4592  0.0280
  896loPI   C2B13666  10.178  12.688   6.936  0.0902 -0.1052 -0.0202
  896loPI   C3B13667  10.122  12.739   7.350  0.0673  0.1930 -0.0143
  896loPI   C4B13668  10.151  12.695   7.817 -0.2296  0.1615  0.2267
  897loPI    C113669  11.006   3.563   6.151  0.0177 -0.1155 -0.1417
  897loPI    C213670  11.314   3.755   6.319 -0.0994 -0.0803  0.0359
  897loPI    C313671  11.331   3.649   5.934  0.1230 -0.0554  0.0371
  897loPI   PO413672  10.990   3.365   6.372 -0.0521  0.1790 -0.0193
  897loPI   GL113673  10.936   3.464   6.723 -0.0212  0.0253 -0.0525
  897loPI   GL213674  11.019   3.200   6.904  0.1146 -0.3154 -0.0441
  897loPI   C1A13675  10.947   3.723   7.025 -0.0854 -0.1922  0.3478
  897loPI   C2A13676  11.057   3.858   7.365  0.1037 -0.2889  0.2180
  897loPI   C3A13677  10.983   3.829   7.729 -0.1442  0.0509  0.2630
  897loPI   C4A13678  11.048   3.782   8.089  0.0173 -0.1350  0.2687
  897loPI   C5A13679  11.061   3.711   8.565  0.2913  0.0573  0.1012
  897loPI   C6A13680  11.234   3.899   8.952  0.0840  0.2005 -0.1517
  897loPI   C1B13681  10.992   3.291   7.387  0.0801  0.3633 -0.0525
  897loPI   C2B13682  11.011   3.303   7.746 -0.1964 -0.2361 -0.0892
  897loPI   C3B13683  10.997   3.301   8.266  0.0020  0.0813  0.0740
  897loPI   C4B13684  10.984   3.237   8.680 -0.0193  0.0991  0.1182
  898loPI    C113685  15.842  11.656   5.901  0.1831  0.2077 -0.2136
  898loPI    C213686  15.760  11.292   5.757  0.0169  0.1336  0.0620
  898loPI    C313687  15.892  11.578   5.512 -0.0717 -0.0454 -0.1992
  898loPI   PO413688  15.690  11.594   6.161  0.1255  0.0076 -0.1722
  898loPI   GL113689  16.061  11.708   6.417  0.0168 -0.2079 -0.1042
  898loPI   GL213690  16.331  11.764   6.545  0.2083  0.1270 -0.1767
  898loPI   C1A13691  16.065  11.978   6.840  0.2095  0.1073  0.0375
  898loPI   C2A13692  16.040  12.017   7.292  0.0376 -0.0835 -0.1294
  898loPI   C3A13693  15.956  12.074   7.777 -0.2079 -0.4238 -0.0576
  898loPI   C4A13694  15.879  12.122   8.227  0.2299  0.1406  0.2280
  898loPI   C5A13695  15.633  11.989   8.609  0.1660  0.0469 -0.0637
  898loPI   C6A13696  15.252  11.838   8.540  0.0906 -0.2806 -0.5521
  898loPI   C1B13697  16.463  11.774   7.018  0.4144  0.0186  0.3707
  898loPI   C2B13698  16.521  11.883   7.410  0.2422 -0.2063 -0.2733
  898loPI   C3B13699  16.462  11.833   7.767  0.1450 -0.2276  0.1476
  898loPI   C4B13700  16.456  11.846   8.133 -0.0731 -0.0807 -0.1210
  899loPI    C113701   2.551  12.224   5.934 -0.0983 -0.0044 -0.1038
  899loPI    C213702   2.345  12.396   5.637  0.0044  0.0880 -0.1225
  899loPI    C313703   2.706  12.536   5.736  0.0228 -0.0203 -0.0348
  899loPI   PO413704   2.462  12.193   6.139  0.3954 -0.0207 -0.1447
  899loPI   GL113705   2.372  12.482   6.432 -0.0134  0.0397  0.1099
  899loPI   GL213706   2.126  12.682   6.518  0.1717  0.1581 -0.0710
  899loPI   C1A13707   2.649  12.337   6.801  0.1597  0.0976 -0.2162
  899loPI   C2A13708   2.671  12.422   7.210  0.1330 -0.0724  0.2305
  899loPI   C3A13709   2.783  12.411   7.588  0.2210  0.1167  0.0362
  899loPI   C4A13710   2.664  12.497   7.945 -0.0045  0.1051 -0.0874
  899loPI   C5A13711   2.704  12.364   8.349  0.1110  0.2553  0.2357
  899loPI   C6A13712   2.589  12.095   8.613  0.0388 -0.0966  0.1475
  899loPI   C1B13713   2.147  12.607   7.000  0.0115  0.4034  0.2934
  899loPI   C2B13714   2.199  12.588   7.449  0.1867  0.1287 -0.0193
  899loPI   C3B13715   2.185  12.659   7.881 -0.5840  0.0563 -0.2933
  899loPI   C4B13716   2.210  12.784   8.276  0.1097  0.1204 -0.2178
  900loPI    C113717   5.567  15.863   5.934  0.0183  0.2120  0.0904
  900loPI    C213718   5.761  16.077   5.658  0.0539 -0.0199 -0.0679
  900loPI    C313719   5.848  15.690   5.708 -0.1130 -0.0358  0.1128
  900loPI   PO413720   5.571  15.884   6.174  0.2605  0.1221  0.1250
  900loPI   GL113721   5.443  15.975   6.507  0.1032  0.0691  0.1669
  900loPI   GL213722   5.655  16.226   6.545 -0.0528  0.3530  0.1106
  900loPI   C1A13723   5.251  16.056   6.803 -0.1260  0.0899 -0.2771
  900loPI   C2A13724   5.298  16.076   7.207 -0.0643 -0.0301  0.0268
  900loPI   C3A13725   5.304  16.076   7.700  0.1711  0.2164 -0.1206
  900loPI   C4A13726   5.255  16.075   8.196 -0.1623 -0.1481  0.1292
  900loPI   C5A13727   5.006  16.415   8.584  0.2277  0.0611 -0.1391
  900loPI   C6A13728   4.799  16.639   8.930 -0.1202  0.0331  0.3507
  900loPI   C1B13729   5.757  15.907   6.982  0.1588 -0.0354  0.1402
  900loPI   C2B13730   5.774  15.796   7.396  0.0941 -0.0582  0.1762
  900loPI   C3B13731   5.674  15.844   7.881  0.1853 -0.2663  0.1053
  900loPI   C4B13732   5.582  15.797   8.381 -0.0923  0.2506 -0.1804
  901loPI    C113733  12.874   7.130   5.968 -0.0651 -0.0465 -0.0275
  901loPI    C213734  13.088   6.894   5.725  0.1197  0.0945 -0.0037
  901loPI    C313735  12.961   7.251   5.597 -0.0394  0.0425  0.0073
  901loPI   PO413736  13.068   7.094   6.260  0.0448 -0.2184  0.0873
  901loPI   GL113737  13.437   6.968   6.624 -0.1467  0.1503 -0.0209
  901loPI   GL213738  13.146   7.197   6.775 -0.0006  0.0734  0.0152
  901loPI   C1A13739  13.604   6.950   6.997 -0.2093 -0.0549 -0.0603
  901loPI   C2A13740  13.636   6.941   7.416  0.1601 -0.2525 -0.1687
  901loPI   C3A13741  13.784   7.029   7.847  0.0575 -0.0087  0.3454
  901loPI   C4A13742  13.751   6.999   8.345  0.0814  0.0771  0.0252
  901loPI   C5A13743  13.587   7.325   8.582 -0.1612 -0.0727  0.3167
  901loPI   C6A13744  13.445   7.753   8.656  0.0555  0.1136  0.0393
  901loPI   C1B13745  13.249   7.163   7.198  0.0660  0.1181  0.1151
  901loPI   C2B13746  13.243   7.172   7.642 -0.0437  0.0675  0.2024
  901loPI   C3B13747  13.219   7.311   8.113  0.0018 -0.0843  0.1641
  901loPI   C4B13748  13.056   7.469   8.572 -0.3321  0.0051 -0.2788
  902loPI    C113749   2.449  17.027   5.986 -0.0587 -0.1441  0.0901
  902loPI    C213750   2.142  16.909   5.759 -0.0641 -0.1057  0.0775
  902loPI    C313751   2.454  17.095   5.592 -0.0936 -0.0267  0.1095
  902loPI   PO413752   2.328  17.133   6.174  0.3081  0.1160 -0.0119
  902loPI   GL113753   2.192  17.071   6.648  0.0001 -0.0766  0.0259
  902loPI   GL213754   2.222  16.728   6.508 -0.6586 -0.1301 -0.1345
  902loPI   C1A13755   2.105  17.210   7.062 -0.2846 -0.0131  0.0565
  902loPI   C2A13756   2.027  17.291   7.452 -0.1192  0.1771  0.0185
  902loPI   C3A13757   2.124  17.306   7.808  0.0151 -0.0107  0.0870
  902loPI   C4A13758   2.272  17.234   8.230 -0.0926  0.3553 -0.4838
  902loPI   C5A13759   2.311  17.194   8.635  0.0396 -0.3598 -0.2582
  902loPI   C6A13760   2.055  16.926   8.852  0.0776  0.0829 -0.2763
  902loPI   C1B13761   2.138  16.657   6.946 -0.0150 -0.0439 -0.0808
  902loPI   C2B13762   2.032  16.730   7.325  0.0895 -0.1350  0.1298
  902loPI   C3B13763   2.057  16.796   7.725 -0.0895  0.1633 -0.4543
  902loPI   C4B13764   2.263  16.716   8.147 -0.1083  0.1906  0.2556
  903loPI    C113765   7.876  15.944   5.958 -0.1105 -0.2752 -0.1425
  903loPI    C213766   8.122  15.703   5.755  0.1061 -0.0504 -0.1518
  903loPI    C313767   8.035  16.066   5.612 -0.1533 -0.0895 -0.0978
  903loPI   PO413768   7.971  16.048   6.279 -0.3091 -0.2573  0.0340
  903loPI   GL113769   7.819  16.289   6.631 -0.0796 -0.0648 -0.2380
  903loPI   GL213770   7.834  16.599   6.511  0.1737  0.1015  0.1915
  903loPI   C1A13771   7.841  16.130   7.093  0.3435 -0.1061  0.0682
  903loPI   C2A13772   7.946  16.150   7.553  0.0163  0.2494  0.1105
  903loPI   C3A13773   8.026  16.106   7.946 -0.3790  0.1069  0.0304
  903loPI   C4A13774   8.171  16.113   8.337 -0.0421 -0.2784  0.0767
  903loPI   C5A13775   8.328  16.440   8.571  0.0364 -0.1287  0.0044
  903loPI   C6A13776   8.706  16.619   8.583  0.2722  0.1371 -0.1090
  903loPI   C1B13777   8.090  16.702   6.911  0.1957  0.1308  0.2573
  903loPI   C2B13778   8.084  16.621   7.314  0.1856  0.1154  0.0400
  903loPI   C3B13779   7.991  16.706   7.654 -0.0453 -0.0477 -0.1853
  903loPI   C4B13780   7.975  16.655   8.088  0.0398 -0.0517 -0.0097
  904loPI    C113781   9.203  14.433   5.579  0.1893  0.0562  0.0623
  904loPI    C213782   9.421  14.214   5.325  0.1250  0.1229 -0.0512
  904loPI    C313783   9.053  14.332   5.222 -0.0751 -0.2211  0.2471
  904loPI   PO413784   9.357  14.712   5.719  0.2600 -0.0019 -0.0811
  904loPI   GL113785   9.364  14.687   6.218  0.0869  0.0587  0.1289
  904loPI   GL213786   9.234  14.971   6.267 -0.2094  0.0053 -0.0295
  904loPI   C1A13787   9.756  14.536   6.560 -0.2413 -0.2733 -0.3005
  904loPI   C2A13788   9.699  14.500   7.001 -0.0301  0.1695  0.0656
  904loPI   C3A13789   9.711  14.603   7.408 -0.0819  0.3738 -0.1309
  904loPI   C4A13790   9.741  14.663   7.806 -0.0029  0.0723 -0.0510
  904loPI   C5A13791   9.815  14.643   8.219  0.3607  0.1921 -0.0251
  904loPI   C6A13792   9.518  14.466   8.531 -0.1650  0.1330  0.0133
  904loPI   C1B13793   9.227  14.857   6.709  0.0382 -0.1559 -0.2293
  904loPI   C2B13794   9.293  14.788   7.208 -0.1727 -0.3449 -0.0568
  904loPI   C3B13795   9.315  14.839   7.627 -0.1381 -0.0521 -0.2868
  904loPI   C4B13796   9.325  14.850   8.053  0.0587 -0.1270  0.0937
  905loPI    C113797  17.282   2.529   5.682  0.0789  0.0063  0.0311
  905loPI    C213798  16.897   2.457   5.600  0.0888 -0.1202  0.0939
  905loPI    C313799  17.182   2.326   5.352  0.0692  0.4600 -0.2541
  905loPI   PO413800  17.301   2.489   5.993  0.2068  0.1394 -0.3404
  905loPI   GL113801  17.338   2.359   6.460  0.0648 -0.2336  0.2664
  905loPI   GL213802  17.672   2.422   6.443  0.0352 -0.0830 -0.2248
  905loPI   C1A13803  17.202   2.280   6.831 -0.2392  0.0562  0.0548
  905loPI   C2A13804  17.252   2.232   7.296  0.1124 -0.1756  0.1139
  905loPI   C3A13805  17.272   2.278   7.767  0.0353  0.3635  0.0981
  905loPI   C4A13806  17.240   2.192   8.303 -0.0648  0.1065  0.1030
  905loPI   C5A13807  17.405   2.129   8.630  0.2153 -0.1727 -0.0980
  905loPI   C6A13808  17.330   2.318   9.034  0.0329 -0.0923  0.3323
  905loPI   C1B13809  17.653   2.480   6.960  0.0147  0.1446 -0.0611
  905loPI   C2B13810  17.639   2.605   7.370 -0.2791  0.2021 -0.3115
  905loPI   C3B13811  17.744   2.434   7.775 -0.1939  0.0781 -0.0798
  905loPI   C4B13812  17.667   2.458   8.271  0.0054  0.0086 -0.1376
  906loPI    C113813  15.860   2.744   5.604  0.0788 -0.1501  0.1562
  906loPI    C213814  15.919   2.381   5.446 -0.0790 -0.1204  0.0262
  906loPI    C313815  15.717   2.659   5.241 -0.0835 -0.0048  0.1846
  906loPI   PO413816  15.844   2.704   5.821 -0.1295  0.2006  0.0856
  906loPI   GL113817  15.698   2.714   6.236 -0.1860 -0.0488  0.0926
  906loPI   GL213818  15.890   2.449   6.382 -0.0605  0.0985 -0.2670
  906loPI   C1A13819  15.398   2.667   6.596 -0.3472  0.2287 -0.0529
  906loPI   C2A13820  15.345   2.723   6.954 -0.0195 -0.1746 -0.0773
  906loPI   C3A13821  15.390   2.735   7.417  0.0681  0.0171  0.0349
  906loPI   C4A13822  15.462   2.751   7.849 -0.0970  0.0462  0.2293
  906loPI   C5A13823  15.454   2.851   8.237 -0.1549 -0.0408  0.0223
  906loPI   C6A13824  15.601   2.847   8.703  0.4725 -0.1275  0.1156
  906loPI   C1B13825  15.854   2.446   6.829  0.0173  0.2288  0.1165
  906loPI   C2B13826  15.887   2.537   7.272 -0.1826 -0.3858  0.0024
  906loPI   C3B13827  15.927   2.513   7.678 -0.1765 -0.2641  0.0856
  906loPI   C4B13828  15.911   2.559   8.163  0.1148 -0.0405 -0.0760
  907loPI    C113829   1.361   4.565   5.793  0.1783  0.0206  0.0012
  907loPI    C213830   1.705   4.686   5.626  0.1544 -0.0235 -0.0806
  907loPI    C313831   1.411   4.541   5.396  0.0450  0.1020 -0.0210
  907loPI   PO413832   1.508   4.394   5.976  0.1898 -0.1950 -0.0951
  907loPI   GL113833   1.443   4.154   6.415  0.3467  0.1367  0.1650
  907loPI   GL213834   1.160   4.048   6.477  0.1123  0.2227  0.3040
  907loPI   C1A13835   1.658   4.181   6.632  0.0054  0.2347 -0.1615
  907loPI   C2A13836   1.610   4.316   6.998  0.0812 -0.2951 -0.3229
  907loPI   C3A13837   1.608   4.340   7.447  0.2844 -0.0533  0.1681
  907loPI   C4A13838   1.596   4.400   7.892  0.4417 -0.2784 -0.3037
  907loPI   C5A13839   1.706   4.391   8.253 -0.0925 -0.0636  0.0217
  907loPI   C6A13840   1.591   4.625   8.688 -0.3410  0.4414  0.1010
  907loPI   C1B13841   1.182   3.973   6.905  0.0752  0.0883 -0.1040
  907loPI   C2B13842   1.228   3.981   7.292  0.1522  0.0123 -0.2238
  907loPI   C3B13843   1.234   4.112   7.721 -0.0735 -0.3622  0.0956
  907loPI   C4B13844   1.278   4.042   8.217 -0.0329 -0.2235 -0.2986
  908loPI    C113845  12.738   8.957   5.730 -0.1207 -0.0035 -0.1247
  908loPI    C213846  12.860   8.576   5.726  0.0166  0.0335  0.2382
  908loPI    C313847  13.121   8.870   5.654 -0.0885  0.0618 -0.0382
  908loPI   PO413848  12.588   8.971   5.940  0.1786 -0.0619  0.2860
  908loPI   GL113849  12.574   9.039   6.366 -0.0071 -0.1201  0.2205
  908loPI   GL213850  12.428   8.810   6.566  0.0175  0.1142  0.4486
  908loPI   C1A13851  12.787   9.149   6.784  0.2860 -0.3843 -0.0529
  908loPI   C2A13852  12.708   9.061   7.169 -0.2165  0.3942 -0.0311
  908loPI   C3A13853  12.759   9.041   7.537  0.0137  0.0637  0.1752
  908loPI   C4A13854  12.860   9.088   7.963 -0.0226 -0.1628  0.3290
  908loPI   C5A13855  12.801   9.118   8.405 -0.1514 -0.0174  0.0388
  908loPI   C6A13856  12.890   9.348   8.813 -0.2568  0.2807  0.0098
  908loPI   C1B13857  12.310   8.772   7.036  0.4079  0.0548 -0.1238
  908loPI   C2B13858  12.379   8.753   7.465 -0.3632  0.0183  0.0345
  908loPI   C3B13859  12.393   8.817   7.825  0.1120 -0.0423 -0.0883
  908loPI   C4B13860  12.393   8.713   8.285 -0.1626 -0.1838 -0.0383
  909loPI    C113861  14.870  15.801   5.587  0.1730 -0.1596  0.1899
  909loPI    C213862  14.526  15.995   5.649  0.1395 -0.2584  0.3198
  909loPI    C313863  14.737  16.062   5.315  0.0462 -0.1219  0.2872
  909loPI   PO413864  14.960  15.753   5.894  0.1589 -0.2810  0.3696
  909loPI   GL113865  14.704  15.933   6.239  0.0663  0.2543 -0.4119
  909loPI   GL213866  14.409  16.022   6.160 -0.1716  0.0174 -0.0229
  909loPI   C1A13867  14.628  15.858   6.595 -0.1850 -0.0755  0.3871
  909loPI   C2A13868  14.554  15.917   7.035  0.4113  0.2746 -0.2435
  909loPI   C3A13869  14.521  15.836   7.458 -0.0911 -0.0041 -0.3243
  909loPI   C4A13870  14.597  15.930   7.910  0.1471 -0.2517  0.1671
  909loPI   C5A13871  14.491  15.772   8.339  0.0383  0.2398 -0.0744
  909loPI   C6A13872  14.731  15.496   8.605  0.0582  0.1017  0.3601
  909loPI   C1B13873  14.178  16.099   6.462  0.1312 -0.2885 -0.0065
  909loPI   C2B13874  14.118  16.136   6.887 -0.3940  0.1164  0.1499
  909loPI   C3B13875  14.138  16.125   7.334  0.0480 -0.1351  0.2275
  909loPI   C4B13876  14.122  16.148   7.763 -0.2025  0.3387  0.0281
  910loPI    C113877   8.516  12.557   5.684 -0.0556 -0.1005 -0.1211
  910loPI    C213878   8.144  12.425   5.747 -0.1850  0.3068 -0.0054
  910loPI    C313879   8.245  12.574   5.390 -0.1644  0.2981 -0.0032
  910loPI   PO413880   8.572  12.731   5.903  0.1809  0.0513  0.0451
  910loPI   GL113881   8.701  12.910   6.253  0.0584 -0.2341  0.3896
  910loPI   GL213882   8.739  12.603   6.399  0.2811  0.0760 -0.1347
  910loPI   C1A13883   8.776  13.056   6.652 -0.5879  0.0684  0.1353
  910loPI   C2A13884   8.911  12.899   7.030  0.0435  0.1451 -0.0273
  910loPI   C3A13885   8.832  12.993   7.475  0.1293  0.0539 -0.0135
  910loPI   C4A13886   8.795  13.037   7.999 -0.0193 -0.0139 -0.0566
  910loPI   C5A13887   9.080  12.945   8.331 -0.1204  0.3095 -0.1360
  910loPI   C6A13888   9.345  13.110   8.752  0.2006 -0.0589 -0.3103
  910loPI   C1B13889   8.745  12.504   6.774 -0.0968  0.0222  0.3207
  910loPI   C2B13890   8.830  12.443   7.225  0.0776  0.1049  0.0229
  910loPI   C3B13891   8.810  12.457   7.675 -0.0560  0.2417  0.0130
  910loPI   C4B13892   8.662  12.407   8.138 -0.0441 -0.2446 -0.1495
  911loPI    C113893   8.059  16.983   5.972  0.0110  0.3010 -0.1455
  911loPI    C213894   7.665  16.919   5.942  0.0207  0.0581  0.1881
  911loPI    C313895   7.887  16.963   5.612 -0.1884 -0.4184 -0.0253
  911loPI   PO413896   8.104  16.960   6.222  0.0555  0.0679 -0.1732
  911loPI   GL113897   8.244  17.113   6.578  0.3238 -0.2288 -0.1815
  911loPI   GL213898   8.460  17.393   6.672 -0.0865  0.4589 -0.3522
  911loPI   C1A13899   8.373  17.063   7.032  0.0461 -0.0270 -0.3329
  911loPI   C2A13900   8.416  16.976   7.587  0.2536  0.2123  0.1116
  911loPI   C3A13901   8.463  17.033   7.958  0.1460  0.1120  0.0594
  911loPI   C4A13902   8.335  16.881   8.340  0.0023 -0.2792 -0.0385
  911loPI   C5A13903   7.932  16.794   8.621 -0.0509 -0.2656  0.4612
  911loPI   C6A13904   7.486  16.716   8.737  0.6066 -0.0631  0.1356
  911loPI   C1B13905   8.416  17.552   7.094 -0.0008  0.0163  0.1936
  911loPI   C2B13906   8.491  17.465   7.454 -0.0423  0.2282 -0.0136
  911loPI   C3B13907   8.332  17.486   7.898  0.0304 -0.3991  0.4406
  911loPI   C4B13908   8.367  17.522   8.290 -0.0035  0.3283 -0.3155
  912loPI    C113909  12.809  15.410   5.810  0.2891 -0.3002  0.2359
  912loPI    C213910  12.936  15.196   5.497  0.0585 -0.1473  0.0335
  912loPI    C313911  12.996  15.591   5.506  0.0114 -0.1425  0.1546
  912loPI   PO413912  12.919  15.376   5.980 -0.3242 -0.1658 -0.0978
  912loPI   GL113913  12.789  15.294   6.419 -0.4389  0.0397 -0.3216
  912loPI   GL213914  12.767  15.596   6.395 -0.4311 -0.1733 -0.0193
  912loPI   C1A13915  12.782  15.281   6.819  0.0148 -0.0905  0.2717
  912loPI   C2A13916  12.746  15.321   7.268 -0.2025  0.1996 -0.2520
  912loPI   C3A13917  12.742  15.296   7.756 -0.1074  0.2868 -0.1377
  912loPI   C4A13918  12.888  15.183   8.176 -0.1564  0.0725  0.0674
  912loPI   C5A13919  13.028  14.697   8.362 -0.1452 -0.2791  0.1838
  912loPI   C6A13920  13.199  14.371   8.372 -0.1432  0.2188 -0.2642
  912loPI   C1B13921  12.847  15.775   6.781 -0.0168  0.0293 -0.3052
  912loPI   C2B13922  12.809  15.808   7.223 -0.0688 -0.1854 -0.2018
  912loPI   C3B13923  12.772  15.792   7.695 -0.0110 -0.1451 -0.3397
  912loPI   C4B13924  12.742  15.862   8.106  0.1036 -0.0068 -0.0910
  913loPI    C113925   5.934  10.157   5.736 -0.0356 -0.0264  0.1702
  913loPI    C213926   5.540  10.197   5.789 -0.0953 -0.1748 -0.1395
  913loPI    C313927   5.716  10.359   5.469  0.0807 -0.1893 -0.0514
  913loPI   PO413928   6.040  10.254   6.000 -0.1143  0.0534  0.3557
  913loPI   GL113929   6.035  10.013   6.447  0.0986 -0.0437  0.0592
  913loPI   GL213930   6.029  10.425   6.561 -0.1132 -0.0089  0.0268
  913loPI   C1A13931   6.051   9.963   6.814  0.1110  0.0169  0.1856
  913loPI   C2A13932   5.933  10.034   7.247  0.0483  0.0976 -0.2457
  913loPI   C3A13933   5.868  10.111   7.683 -0.1242 -0.1025 -0.1875
  913loPI   C4A13934   5.857  10.098   8.097 -0.0887 -0.4469 -0.0495
  913loPI   C5A13935   5.905  10.206   8.502 -0.1353  0.0125 -0.2607
  913loPI   C6A13936   5.627  10.543   8.807  0.1935 -0.0850 -0.1563
  913loPI   C1B13937   6.105  10.460   6.941  0.1409  0.2763 -0.1473
  913loPI   C2B13938   6.173  10.412   7.401  0.0205  0.2874  0.0393
  913loPI   C3B13939   6.268  10.381   7.784  0.1995 -0.0787 -0.1922
  913loPI   C4B13940   6.282  10.420   8.154  0.3406 -0.0391  0.1089
  914loPI    C113941   4.307   7.394   6.185 -0.1213  0.0126 -0.0917
  914loPI    C213942   4.223   7.261   5.817  0.1081  0.1014 -0.1780
  914loPI    C313943   4.131   7.038   6.135 -0.0376 -0.0026 -0.2915
  914loPI   PO413944   4.203   7.576   6.223 -0.0333 -0.1999 -0.2366
  914loPI   GL113945   3.996   7.608   6.594  0.1153 -0.1497 -0.0163
  914loPI   GL213946   4.101   7.260   6.623  0.0095 -0.1361 -0.1456
  914loPI   C1A13947   3.760   7.746   6.947 -0.0003  0.4149  0.0656
  914loPI   C2A13948   3.672   7.772   7.333 -0.0473  0.2123  0.2824
  914loPI   C3A13949   3.786   7.840   7.821  0.0570  0.1563  0.2539
  914loPI   C4A13950   3.848   7.778   8.265 -0.1242  0.0697  0.0320
  914loPI   C5A13951   4.004   8.007   8.670 -0.0907  0.1395 -0.1794
  914loPI   C6A13952   4.169   7.738   9.088 -0.2904 -0.0194 -0.0452
  914loPI   C1B13953   4.181   7.482   7.042 -0.0685  0.0100  0.0800
  914loPI   C2B13954   4.119   7.587   7.495  0.3569 -0.1039 -0.2110
  914loPI   C3B13955   4.189   7.561   7.988 -0.0533  0.0347  0.2508
  914loPI   C4B13956   4.341   7.693   8.412 -0.0683 -0.2109 -0.1377
  915loPI    C113957  14.900   5.658   5.565 -0.4658 -0.0785  0.0762
  915loPI    C213958  14.983   5.429   5.248  0.2073  0.0633  0.1357
  915loPI    C313959  14.754   5.754   5.205 -0.4542 -0.4047 -0.0180
  915loPI   PO413960  14.805   5.435   5.804  0.1147  0.1285  0.1848
  915loPI   GL113961  14.801   5.455   6.202 -0.2716  0.0672  0.0126
  915loPI   GL213962  15.066   5.658   6.345  0.2337 -0.2957  0.1781
  915loPI   C1A13963  14.819   5.097   6.425  0.0177  0.3149  0.0613
  915loPI   C2A13964  14.860   5.035   6.827 -0.5089 -0.0597 -0.1320
  915loPI   C3A13965  14.839   5.078   7.258  0.0075 -0.1954  0.0461
  915loPI   C4A13966  14.965   5.077   7.756  0.0905 -0.1289 -0.0281
  915loPI   C5A13967  15.080   5.171   8.147 -0.2707  0.1019 -0.0215
  915loPI   C6A13968  15.051   5.472   8.413 -0.1510  0.2552 -0.0635
  915loPI   C1B13969  14.887   5.533   6.707  0.1070  0.3315  0.2669
  915loPI   C2B13970  14.958   5.532   7.153 -0.0566  0.0094 -0.1448
  915loPI   C3B13971  14.904   5.578   7.544  0.1401 -0.0371 -0.1044
  915loPI   C4B13972  15.013   5.616   7.905 -0.3716 -0.1964  0.2341
  916loPI    C113973   4.993   1.020   6.347  0.2045 -0.0503  0.1670
  916loPI    C213974   4.610   0.989   6.459  0.1227 -0.1932 -0.1411
  916loPI    C313975   4.797   1.342   6.481  0.0623 -0.1828  0.2820
  916loPI   PO413976   5.061   0.696   6.454 -0.0875 -0.1225 -0.0768
  916loPI   GL113977   5.006   0.593   6.840 -0.2646  0.1434 -0.1077
  916loPI   GL213978   4.728   0.693   6.841  0.1193  0.1324 -0.0042
  916loPI   C1A13979   5.075   0.667   7.221 -0.0114  0.1559 -0.2614
  916loPI   C2A13980   5.139   0.705   7.629  0.2833  0.1227 -0.1165
  916loPI   C3A13981   5.173   0.814   8.069 -0.1102  0.2454 -0.0671
  916loPI   C4A13982   5.217   0.952   8.548  0.0440 -0.2268  0.2037
  916loPI   C5A13983   5.073   1.165   8.916 -0.0220 -0.1487 -0.0539
  916loPI   C6A13984   4.906   1.551   9.066  0.1496 -0.0782 -0.0591
  916loPI   C1B13985   4.584   0.671   7.250 -0.1871 -0.1643  0.2320
  916loPI   C2B13986   4.605   0.655   7.633  0.2428 -0.2356  0.1579
  916loPI   C3B13987   4.808   0.528   7.988 -0.0346  0.0599 -0.1849
  916loPI   C4B13988   5.244   0.336   7.892  0.3318 -0.2146  0.1144
  917loPI    C113989   4.057   6.430   5.922 -0.0895 -0.1244  0.0281
  917loPI    C213990   3.954   6.785   5.770  0.1163 -0.0608  0.0340
  917loPI    C313991   3.801   6.449   5.615 -0.1220  0.0317  0.0641
  917loPI   PO413992   4.011   6.531   6.223  0.0485  0.1078  0.0322
  917loPI   GL113993   4.164   6.730   6.540 -0.1135  0.0366  0.2208
  917loPI   GL213994   4.376   6.413   6.583  0.0227 -0.2756 -0.0717
  917loPI   C1A13995   4.326   6.914   6.855 -0.0071  0.2564 -0.1680
  917loPI   C2A13996   4.122   7.030   7.214 -0.0222  0.0734 -0.3934
  917loPI   C3A13997   4.236   7.076   7.628  0.0455 -0.0250 -0.1603
  917loPI   C4A13998   4.143   7.002   8.049 -0.1029 -0.0950  0.3205
  917loPI   C5A13999   3.944   6.841   8.360  0.1927  0.1865 -0.0197
  917loPI   C6A14000   4.158   6.605   8.715  0.1119 -0.0389 -0.0612
  917loPI   C1B14001   4.292   6.460   7.034 -0.0590 -0.0075 -0.1192
  917loPI   C2B14002   4.230   6.532   7.498 -0.0345 -0.0733 -0.0050
  917loPI   C3B14003   4.236   6.491   7.894  0.0711 -0.2822  0.1470
  917loPI   C4B14004   4.288   6.428   8.266 -0.0517 -0.0527  0.0764
  918loPI    C114005   7.483   7.119   5.853  0.0298  0.0820  0.0536
  918loPI    C214006   7.422   7.478   5.686  0.0781  0.0221 -0.0943
  918loPI    C314007   7.715   7.241   5.551  0.0053 -0.1000 -0.0403
  918loPI   PO414008   7.330   7.186   6.141  0.2937  0.0924 -0.0210
  918loPI   GL114009   7.186   6.940   6.414 -0.1230 -0.0366  0.0828
  918loPI   GL214010   6.876   7.168   6.438 -0.1601 -0.0307 -0.0595
  918loPI   C1A14011   7.471   6.887   6.700  0.2405  0.0837 -0.0296
  918loPI   C2A14012   7.425   6.825   7.103  0.0951  0.0407  0.0608
  918loPI   C3A14013   7.405   6.907   7.547  0.1587  0.3026 -0.0401
  918loPI   C4A14014   7.375   6.887   7.920  0.1048 -0.1537 -0.0749
  918loPI   C5A14015   7.465   7.008   8.311  0.1837 -0.1094 -0.0449
  918loPI   C6A14016   7.613   7.252   8.705  0.0147 -0.1006 -0.0724
  918loPI   C1B14017   6.947   7.085   6.883  0.2069  0.0657 -0.2598
  918loPI   C2B14018   6.965   7.076   7.334  0.1137 -0.1180 -0.1443
  918loPI   C3B14019   6.887   7.062   7.720 -0.0102  0.0073  0.2542
  918loPI   C4B14020   6.880   7.095   8.110 -0.3269 -0.2452 -0.3042
  919loPI    C114021  10.230   9.988   5.936  0.1507 -0.1306 -0.0914
  919loPI    C214022  10.593  10.126   6.032  0.2524 -0.3319 -0.1801
  919loPI    C314023  10.481  10.108   5.648 -0.0505  0.2161 -0.1283
  919loPI   PO414024  10.162   9.923   6.227 -0.0307 -0.0947  0.2015
  919loPI   GL114025  10.457  10.048   6.508 -0.3901 -0.1422  0.0174
  919loPI   GL214026  10.595   9.769   6.344  0.1183 -0.2856 -0.1357
  919loPI   C1A14027  10.444   9.892   6.940  0.1534  0.3663 -0.1495
  919loPI   C2A14028  10.463   9.749   7.392 -0.1230  0.0109  0.0948
  919loPI   C3A14029  10.508   9.841   7.759 -0.1045 -0.0675 -0.0756
  919loPI   C4A14030  10.500   9.749   8.185 -0.0749 -0.0399  0.0207
  919loPI   C5A14031  10.828   9.474   8.401  0.1780  0.0199  0.1096
  919loPI   C6A14032  11.166   9.305   8.628  0.0076 -0.0278  0.3269
  919loPI   C1B14033  10.443   9.436   6.654  0.0961  0.1722 -0.0912
  919loPI   C2B14034  10.528   9.260   7.055 -0.1945 -0.0122 -0.0608
  919loPI   C3B14035  10.520   9.217   7.494 -0.0332  0.0503 -0.0153
  919loPI   C4B14036  10.619   9.342   7.886 -0.1794 -0.1016 -0.1205
  920loPI    C114037  11.878  16.593   5.738  0.0490  0.1069 -0.0797
  920loPI    C214038  12.107  16.645   5.414 -0.0619  0.2151 -0.1415
  920loPI    C314039  11.912  16.956   5.574  0.0780  0.1839  0.0943
  920loPI   PO414040  11.951  16.501   5.945 -0.1440  0.0828  0.1582
  920loPI   GL114041  12.016  16.534   6.269  0.2589  0.0410 -0.0216
  920loPI   GL214042  11.944  16.216   6.401  0.1051 -0.0926 -0.1440
  920loPI   C1A14043  11.927  16.799   6.731  0.1783  0.2846 -0.1412
  920loPI   C2A14044  11.918  16.917   7.135 -0.0274  0.1143  0.1912
  920loPI   C3A14045  11.833  16.953   7.612  0.0328 -0.0627  0.2394
  920loPI   C4A14046  11.972  16.874   8.025  0.0871  0.2639 -0.2143
  920loPI   C5A14047  12.070  16.939   8.512 -0.0936  0.1882  0.0379
  920loPI   C6A14048  12.185  17.365   8.697  0.0252  0.1522 -0.1982
  920loPI   C1B14049  11.978  16.260   6.861  0.2704 -0.0465  0.1211
  920loPI   C2B14050  11.930  16.334   7.221  0.0568  0.0299  0.0038
  920loPI   C3B14051  11.858  16.421   7.656 -0.0397  0.3987 -0.0170
  920loPI   C4B14052  11.889  16.351   8.027  0.1597 -0.2595 -0.2580
  921loPI    C114053  11.396   8.057   5.796  0.0428  0.0980 -0.1250
  921loPI    C214054  11.748   7.979   5.623  0.0906  0.0561 -0.0100
  921loPI    C314055  11.445   8.122   5.404  0.1015 -0.1443 -0.1595
  921loPI   PO414056  11.568   8.087   6.072  0.3347  0.1703  0.0683
  921loPI   GL114057  11.670   7.784   6.402  0.0109  0.0595 -0.3489
  921loPI   GL214058  11.438   7.746   6.555 -0.0258 -0.0821  0.2694
  921loPI   C1A14059  11.829   7.984   6.832  0.0149  0.0491 -0.4029
  921loPI   C2A14060  11.913   7.976   7.277 -0.2985 -0.3705  0.1384
  921loPI   C3A14061  11.932   8.148   7.727  0.1249 -0.2700  0.0505
  921loPI   C4A14062  11.903   8.045   8.144 -0.0251  0.3463 -0.1348
  921loPI   C5A14063  11.903   7.932   8.576  0.0048 -0.3097 -0.1561
  921loPI   C6A14064  11.842   8.136   8.963  0.1969  0.3160  0.0239
  921loPI   C1B14065  11.383   7.746   6.985 -0.2986 -0.0451 -0.2275
  921loPI   C2B14066  11.447   7.879   7.330  0.0463 -0.1065 -0.3093
  921loPI   C3B14067  11.506   7.899   7.807 -0.1392 -0.0055  0.0594
  921loPI   C4B14068  11.593   7.663   8.241 -0.0016 -0.1807 -0.0308
  922loPI    C114069  16.551  15.120   5.804 -0.0381  0.1839 -0.0317
  922loPI    C214070  16.595  15.399   5.521  0.0992  0.0578 -0.1363
  922loPI    C314071  16.501  15.024   5.419 -0.1762  0.0846  0.0105
  922loPI   PO414072  16.479  15.191   6.031 -0.1847  0.2068 -0.1163
  922loPI   GL114073  16.266  15.421   6.237 -0.3938  0.1770 -0.1452
  922loPI   GL214074  16.305  15.652   6.361  0.0497  0.1882  0.1040
  922loPI   C1A14075  16.366  15.329   6.760 -0.0196 -0.3339 -0.0526
  922loPI   C2A14076  16.281  15.414   7.148 -0.3907  0.1283  0.1263
  922loPI   C3A14077  16.332  15.452   7.682 -0.0077  0.0079  0.2160
  922loPI   C4A14078  16.343  15.531   8.058  0.0741  0.2582  0.2438
  922loPI   C5A14079  16.493  15.423   8.516 -0.0764  0.0692 -0.4692
  922loPI   C6A14080  16.448  15.467   8.941  0.5464  0.1029 -0.1476
  922loPI   C1B14081  16.263  15.856   6.750 -0.3142  0.3734 -0.0082
  922loPI   C2B14082  16.326  15.947   7.196  0.1293  0.0156 -0.0380
  922loPI   C3B14083  16.312  15.978   7.709  0.0062 -0.0264  0.4098
  922loPI   C4B14084  16.378  15.989   8.111  0.3159 -0.1624  0.1253
  923loPI    C114085   5.567  10.601   6.263 -0.2576 -0.0579  0.0906
  923loPI    C214086   5.708  10.653   5.892 -0.0195 -0.2113  0.1574
  923loPI    C314087   5.792  10.920   6.177 -0.1350 -0.1355  0.1213
  923loPI   PO414088   5.603  10.294   6.282  0.0973 -0.0104  0.0730
  923loPI   GL114089   5.265  10.088   6.396  0.0573 -0.1751  0.0151
  923loPI   GL214090   5.341   9.878   6.534  0.1982 -0.2706  0.1480
  923loPI   C1A14091   4.985  10.115   6.775 -0.1406 -0.0892 -0.1877
  923loPI   C2A14092   4.936  10.119   7.271 -0.0952  0.0217  0.0404
  923loPI   C3A14093   4.967  10.053   7.700 -0.0895 -0.1653 -0.0050
  923loPI   C4A14094   4.931  10.227   8.057  0.1067  0.2245  0.1463
  923loPI   C5A14095   5.052  10.095   8.433 -0.0942  0.0677  0.0128
  923loPI   C6A14096   4.799   9.875   8.799  0.0057 -0.1279  0.0092
  923loPI   C1B14097   5.397   9.957   7.045 -0.1250 -0.0032 -0.0195
  923loPI   C2B14098   5.441   9.904   7.512  0.3635  0.0572 -0.0798
  923loPI   C3B14099   5.430   9.891   7.879 -0.0460 -0.0663 -0.1451
  923loPI   C4B14100   5.519   9.829   8.276  0.0924 -0.1890  0.1632
  924loPI    C114101   3.297   4.238   5.911  0.0916  0.0432 -0.0054
  924loPI    C214102   3.447   4.472   5.623  0.0332  0.0515 -0.0292
  924loPI    C314103   3.095   4.290   5.570 -0.0605  0.1903  0.1055
  924loPI   PO414104   3.435   4.070   6.002 -0.2508 -0.0838 -0.0558
  924loPI   GL114105   3.277   3.981   6.453  0.3471 -0.2614  0.1769
  924loPI   GL214106   3.522   3.818   6.699  0.0843 -0.0742 -0.2425
  924loPI   C1A14107   3.071   4.065   6.820 -0.1260  0.2064  0.0311
  924loPI   C2A14108   3.000   4.132   7.306  0.0255  0.1826  0.1585
  924loPI   C3A14109   2.970   4.153   7.783 -0.1674  0.2167 -0.0374
  924loPI   C4A14110   2.985   4.183   8.209  0.0207 -0.0669  0.3106
  924loPI   C5A14111   3.011   4.070   8.675  0.0693 -0.0850 -0.0073
  924loPI   C6A14112   2.892   3.989   9.031  0.1767 -0.3510  0.2555
  924loPI   C1B14113   3.407   3.816   7.142 -0.1655  0.1509 -0.1003
  924loPI   C2B14114   3.382   3.880   7.509  0.1289  0.0788 -0.3868
  924loPI   C3B14115   3.403   3.921   7.935 -0.3993 -0.0118 -0.3693
  924loPI   C4B14116   3.464   3.937   8.327 -0.0405 -0.0548 -0.2119
  925loPI    C114117  16.236   5.710   6.069  0.0379 -0.1151  0.1381
  925loPI    C214118  16.075   5.732   5.703  0.0843  0.2604  0.1365
  925loPI    C314119  16.429   5.554   5.755 -0.0437 -0.0266  0.0430
  925loPI   PO414120  16.130   5.966   6.136 -0.1136 -0.0137 -0.3013
  925loPI   GL114121  15.983   5.966   6.546  0.0366  0.1056 -0.1764
  925loPI   GL214122  16.125   5.624   6.563 -0.1316  0.0935  0.2030
  925loPI   C1A14123  15.864   6.151   6.924 -0.0542  0.1147  0.4154
  925loPI   C2A14124  15.759   6.091   7.283 -0.2109  0.2453  0.1906
  925loPI   C3A14125  15.860   5.995   7.746 -0.0671 -0.4426  0.1102
  925loPI   C4A14126  15.883   5.968   8.190  0.0080 -0.1555  0.1273
  925loPI   C5A14127  15.823   5.925   8.590  0.2214 -0.0501  0.1357
  925loPI   C6A14128  16.197   5.888   8.900 -0.0015  0.2718  0.1795
  925loPI   C1B14129  16.203   5.242   6.813 -0.0019  0.2549 -0.1681
  925loPI   C2B14130  16.304   5.184   7.267 -0.1762 -0.0560  0.2469
  925loPI   C3B14131  16.366   5.272   7.677  0.2893  0.2069 -0.0980
  925loPI   C4B14132  16.387   5.310   8.158  0.2123  0.2746  0.1118
  926loPI    C114133   5.369   9.768   5.715  0.0506 -0.1615 -0.0588
  926loPI    C214134   5.186   9.773   5.359 -0.0353  0.0815 -0.0125
  926loPI    C314135   5.569   9.886   5.390  0.0429 -0.1652 -0.0648
  926loPI   PO414136   5.182   9.869   5.936 -0.1795 -0.1804 -0.0426
  926loPI   GL114137   4.899   9.640   6.273 -0.3119  0.0335  0.2119
  926loPI   GL214138   4.645   9.593   6.159  0.0157 -0.1026  0.1453
  926loPI   C1A14139   5.007   9.597   6.765  0.1287 -0.1270  0.0585
  926loPI   C2A14140   5.034   9.599   7.234  0.1475  0.3623  0.1419
  926loPI   C3A14141   5.020   9.540   7.712  0.0794 -0.0668 -0.0377
  926loPI   C4A14142   5.005   9.687   8.086  0.2630  0.0650 -0.0509
  926loPI   C5A14143   4.773   9.480   8.431 -0.2775  0.0925  0.3699
  926loPI   C6A14144   4.421   9.127   8.490 -0.1205  0.0938 -0.1277
  926loPI   C1B14145   4.565   9.448   6.574  0.4291 -0.0905  0.0334
  926loPI   C2B14146   4.609   9.330   6.969  0.2785 -0.3216 -0.1023
  926loPI   C3B14147   4.598   9.319   7.411 -0.1605 -0.4391  0.1789
  926loPI   C4B14148   4.573   9.344   7.964  0.1716  0.0608 -0.0364
  927loPI    C114149  10.199   0.723   6.073 -0.1083 -0.1165  0.0211
  927loPI    C214150  10.556   0.903   6.071 -0.0909 -0.1418  0.3422
  927loPI    C314151  10.350   0.864   5.730 -0.0091  0.3120  0.2349
  927loPI   PO414152  10.087   0.774   6.327  0.3914 -0.0507 -0.3091
  927loPI   GL114153  10.171   0.538   6.659 -0.0979  0.0435 -0.0018
  927loPI   GL214154  10.523   0.672   6.529 -0.2042  0.0830 -0.0069
  927loPI   C1A14155  10.143   0.582   7.062  0.4526 -0.0628 -0.1952
  927loPI   C2A14156  10.083   0.644   7.460 -0.1980  0.0334 -0.2629
  927loPI   C3A14157  10.101   0.756   7.856  0.4439 -0.0672 -0.1071
  927loPI   C4A14158  10.103   0.645   8.314 -0.0660 -0.3201 -0.0181
  927loPI   C5A14159  10.007   0.523   8.655  0.2182  0.0291 -0.0395
  927loPI   C6A14160  10.102   0.292   8.901  0.0506  0.2236  0.0340
  927loPI   C1B14161  10.550   0.783   6.944 -0.0833 -0.1024 -0.0762
  927loPI   C2B14162  10.562   0.874   7.359 -0.2483 -0.1603 -0.0995
  927loPI   C3B14163  10.545   1.002   7.789  0.0627  0.1225 -0.0899
  927loPI   C4B14164  10.459   0.926   8.236  0.1369 -0.2681  0.1555
  928loPI    C114165   0.717   9.454   6.012  0.0910 -0.1535  0.1456
  928loPI    C214166   0.354   9.395   5.853  0.1330  0.2508 -0.1147
  928loPI    C314167   0.650   9.135   5.781  0.0341  0.1982 -0.3384
  928loPI   PO414168   0.679   9.514   6.280  0.1782 -0.0510 -0.1304
  928loPI   GL114169   0.299   9.552   6.505  0.0961 -0.1524  0.0051
  928loPI   GL214170   0.421   9.885   6.585  0.1516  0.0528  0.3538
  928loPI   C1A14171   0.439   9.463   6.868  0.0061 -0.0388 -0.0525
  928loPI   C2A14172   0.408   9.468   7.217 -0.1430  0.0555  0.0289
  928loPI   C3A14173   0.482   9.446   7.580 -0.1533 -0.0125  0.1008
  928loPI   C4A14174   0.487   9.507   7.929  0.2070  0.2184 -0.1320
  928loPI   C5A14175   0.577   9.499   8.358  0.1475  0.0018 -0.2208
  928loPI   C6A14176   0.749   9.227   8.755  0.0466  0.3081  0.0882
  928loPI   C1B14177   0.386   9.988   6.981 -0.1074  0.1167 -0.1463
  928loPI   C2B14178   0.490   9.953   7.329 -0.1210  0.0238 -0.2456
  928loPI   C3B14179   0.427   9.950   7.713  0.1597 -0.0331  0.3853
  928loPI   C4B14180   0.498  10.066   8.110 -0.1549 -0.1550  0.0607
  929loPI    C114181   4.511   6.538   5.827  0.1886  0.2461  0.0231
  929loPI    C214182   4.440   6.861   5.602 -0.0225  0.1597 -0.0373
  929loPI    C314183   4.293   6.505   5.493 -0.1261  0.1165  0.2357
  929loPI   PO414184   4.476   6.694   6.158 -0.1225 -0.0815  0.5061
  929loPI   GL114185   4.723   6.797   6.465  0.3480  0.1898  0.4077
  929loPI   GL214186   4.616   7.141   6.496  0.5410 -0.0925 -0.1074
  929loPI   C1A14187   4.772   6.669   6.811 -0.1575 -0.0004  0.0030
  929loPI   C2A14188   4.675   6.764   7.238  0.1261  0.2466 -0.2850
  929loPI   C3A14189   4.633   6.758   7.661 -0.2741 -0.0327 -0.0505
  929loPI   C4A14190   4.672   6.797   8.056 -0.1228  0.1521 -0.0022
  929loPI   C5A14191   4.491   6.883   8.455  0.0995 -0.1875 -0.0250
  929loPI   C6A14192   4.277   7.236   8.675  0.1664 -0.1671  0.2590
  929loPI   C1B14193   4.702   7.273   6.923 -0.0972  0.2162  0.2132
  929loPI   C2B14194   4.597   7.306   7.340  0.1632 -0.1980  0.0660
  929loPI   C3B14195   4.637   7.296   7.840  0.0828 -0.0554 -0.0163
  929loPI   C4B14196   4.643   7.322   8.290  0.1222  0.1064  0.2040
  930loPI    C114197  13.695  14.414   5.567 -0.1673  0.0987 -0.0853
  930loPI    C214198  13.913  14.547   5.259  0.0091 -0.0536 -0.0282
  930loPI    C314199  13.633  14.268   5.200  0.0446 -0.0847 -0.0505
  930loPI   PO414200  13.836  14.327   5.749  0.0027 -0.0732 -0.2152
  930loPI   GL114201  13.863  14.362   6.186 -0.2138  0.0321 -0.0059
  930loPI   GL214202  14.004  14.025   6.368  0.2406  0.1139 -0.2057
  930loPI   C1A14203  13.762  14.375   6.615 -0.1119  0.1107  0.0675
  930loPI   C2A14204  13.736  14.355   7.062 -0.2886  0.0237  0.1809
  930loPI   C3A14205  13.697  14.341   7.496 -0.0147  0.1410  0.0694
  930loPI   C4A14206  13.742  14.307   7.859  0.0471 -0.0107 -0.4295
  930loPI   C5A14207  13.737  14.197   8.294  0.0468  0.1641 -0.0254
  930loPI   C6A14208  13.833  14.125   8.717  0.1776 -0.0552 -0.1639
  930loPI   C1B14209  14.168  14.070   6.771 -0.0763 -0.1588 -0.0928
  930loPI   C2B14210  14.264  13.958   7.189  0.4297 -0.0705  0.5023
  930loPI   C3B14211  14.254  14.046   7.540  0.2516  0.1992  0.0599
  930loPI   C4B14212  14.181  14.052   7.984 -0.0272  0.4587 -0.2124
  931loPI    C114213  12.385  15.744   5.736 -0.0045 -0.0394 -0.0520
  931loPI    C214214  12.360  16.129   5.630 -0.2472 -0.0533 -0.0495
  931loPI    C314215  12.575  15.874   5.409 -0.0013  0.1033  0.0057
  931loPI   PO414216  12.491  15.793   6.025 -0.2990 -0.2365  0.1119
  931loPI   GL114217  12.358  15.874   6.411  0.1917  0.0370  0.1421
  931loPI   GL214218  12.329  15.574   6.595  0.2257  0.0424  0.0611
  931loPI   C1A14219  12.464  16.124   6.799  0.1192 -0.2255 -0.0238
  931loPI   C2A14220  12.338  16.019   7.251 -0.3049  0.1947  0.1732
  931loPI   C3A14221  12.345  16.104   7.702  0.0023  0.2647 -0.4973
  931loPI   C4A14222  12.273  16.097   8.179 -0.0145 -0.0644  0.2248
  931loPI   C5A14223  12.023  16.323   8.485 -0.0917 -0.2370  0.0679
  931loPI   C6A14224  11.726  16.576   8.923 -0.3438 -0.0311  0.0450
  931loPI   C1B14225  12.384  15.546   7.027  0.0588  0.0083  0.2095
  931loPI   C2B14226  12.322  15.520   7.512  0.1327 -0.0906 -0.0995
  931loPI   C3B14227  12.380  15.577   7.941  0.0100 -0.2866  0.2894
  931loPI   C4B14228  12.434  15.364   8.308  0.1195  0.0122 -0.1230
  932loPI    C114229  14.027   1.760   5.552 -0.0776  0.2234 -0.1923
  932loPI    C214230  14.367   1.639   5.380 -0.0707  0.1403 -0.1205
  932loPI    C314231  14.266   2.025   5.371 -0.0035  0.1564 -0.1932
  932loPI   PO414232  14.089   1.547   5.801  0.1163 -0.0099  0.0309
  932loPI   GL114233  14.386   1.520   6.202 -0.0523 -0.1011 -0.1598
  932loPI   GL214234  14.056   1.456   6.354  0.1642 -0.0462  0.0456
  932loPI   C1A14235  14.552   1.674   6.662 -0.0169  0.1009 -0.1101
  932loPI   C2A14236  14.582   1.680   7.110  0.2171  0.1726 -0.0851
  932loPI   C3A14237  14.572   1.644   7.512  0.0182 -0.3713 -0.2514
  932loPI   C4A14238  14.562   1.795   7.912 -0.0211  0.1247 -0.4386
  932loPI   C5A14239  14.878   1.913   8.184 -0.0104 -0.1478 -0.0582
  932loPI   C6A14240  14.895   2.028   8.689 -0.1614 -0.1487  0.2238
  932loPI   C1B14241  14.084   1.417   6.810 -0.0716 -0.1243 -0.1504
  932loPI   C2B14242  14.183   1.442   7.277  0.1147  0.2598 -0.1642
  932loPI   C3B14243  14.131   1.335   7.658  0.0143  0.2394 -0.1422
  932loPI   C4B14244  14.123   1.405   8.018 -0.2581 -0.4638  0.0341
  933loPI    C114245   8.689   0.865   5.771  0.0435  0.1440 -0.2414
  933loPI    C214246   8.886   0.808   5.428  0.0053 -0.0705 -0.2287
  933loPI    C314247   8.510   0.678   5.466  0.1076 -0.3102 -0.0083
  933loPI   PO414248   8.780   1.067   5.848 -0.1283 -0.0521 -0.1546
  933loPI   GL114249   8.809   1.113   6.296 -0.0196 -0.3179 -0.1266
  933loPI   GL214250   8.756   0.793   6.450  0.2410 -0.1765  0.0527
  933loPI   C1A14251   8.759   1.278   6.687  0.1192  0.1531 -0.1629
  933loPI   C2A14252   8.870   1.389   7.072  0.0662  0.1808  0.4079
  933loPI   C3A14253   8.840   1.414   7.545 -0.0202 -0.1122  0.0488
  933loPI   C4A14254   8.818   1.396   8.014 -0.0034 -0.3193  0.0093
  933loPI   C5A14255   8.951   1.493   8.513 -0.0176  0.2275  0.2986
  933loPI   C6A14256   9.098   1.485   8.917  0.0845 -0.0442 -0.1492
  933loPI   C1B14257   8.865   0.829   6.868  0.1329  0.1943  0.0044
  933loPI   C2B14258   8.822   0.919   7.197  0.1171  0.1038 -0.1620
  933loPI   C3B14259   8.835   0.907   7.625 -0.2080 -0.0964 -0.2661
  933loPI   C4B14260   8.765   0.914   8.018 -0.0541 -0.0862  0.2704
  934loPI    C114261  15.222  16.768   5.562 -0.0759 -0.2035  0.1162
  934loPI    C214262  15.554  16.609   5.407 -0.0168 -0.0279  0.0605
  934loPI    C314263  15.421  16.962   5.275 -0.1274 -0.0142  0.2069
  934loPI   PO414264  15.264  16.751   5.803 -0.0269  0.0153 -0.0109
  934loPI   GL114265  15.076  16.632   6.168  0.0892  0.2378 -0.0543
  934loPI   GL214266  15.431  16.585   6.335 -0.4057 -0.0157 -0.0675
  934loPI   C1A14267  15.022  16.682   6.613  0.0696  0.0604  0.1642
  934loPI   C2A14268  15.015  16.577   7.028 -0.1012 -0.1768 -0.0175
  934loPI   C3A14269  15.011  16.678   7.469  0.0642 -0.2178  0.0792
  934loPI   C4A14270  14.958  16.657   7.881  0.2632 -0.0536 -0.2345
  934loPI   C5A14271  14.988  16.701   8.338 -0.0534  0.2067 -0.0674
  934loPI   C6A14272  14.791  16.611   8.846  0.1314 -0.3203 -0.1878
  934loPI   C1B14273  15.450  16.380   6.692  0.0988  0.0750 -0.2838
  934loPI   C2B14274  15.427  16.388   7.155  0.0291 -0.4016 -0.0959
  934loPI   C3B14275  15.452  16.388   7.566  0.0317  0.1739 -0.2618
  934loPI   C4B14276  15.458  16.470   8.018 -0.2536 -0.1500  0.0361
  935loPI    C114277  16.513   2.139   5.920  0.2176 -0.0766  0.1119
  935loPI    C214278  16.467   1.782   5.744 -0.0311 -0.0386  0.0950
  935loPI    C314279  16.329   2.112   5.565  0.2375  0.0737  0.0893
  935loPI   PO414280  16.481   2.088   6.158  0.4854 -0.1198 -0.0160
  935loPI   GL114281  16.335   2.234   6.485 -0.0521  0.0979 -0.0581
  935loPI   GL214282  16.548   2.396   6.579  0.4551 -0.1026 -0.0009
  935loPI   C1A14283  16.342   2.148   7.014 -0.5225  0.1764 -0.1366
  935loPI   C2A14284  16.243   2.265   7.383 -0.4390 -0.1293  0.2093
  935loPI   C3A14285  16.365   2.277   7.786  0.0041  0.0077 -0.2343
  935loPI   C4A14286  16.387   2.231   8.210 -0.0226  0.2345 -0.2072
  935loPI   C5A14287  16.589   2.197   8.599  0.0101  0.0253  0.1575
  935loPI   C6A14288  16.964   2.312   8.719  0.1744 -0.3882 -0.0951
  935loPI   C1B14289  16.735   2.470   6.963  0.0593  0.2585 -0.3433
  935loPI   C2B14290  16.818   2.488   7.367  0.1192 -0.1898 -0.1627
  935loPI   C3B14291  16.875   2.507   7.811  0.1304 -0.0043  0.0261
  935loPI   C4B14292  16.897   2.572   8.285  0.0251 -0.0797 -0.3419
  936loPI    C114293  10.323  13.725   5.539 -0.0260 -0.0090 -0.2355
  936loPI    C214294  10.653  13.944   5.490  0.0875 -0.1416 -0.0763
  936loPI    C314295  10.552  13.671   5.216  0.2208 -0.2415 -0.0268
  936loPI   PO414296  10.313  13.670   5.845  0.3186 -0.1372 -0.1615
  936loPI   GL114297  10.318  13.747   6.228 -0.0642  0.0160  0.1214
  936loPI   GL214298  10.474  13.416   6.310  0.0284 -0.1829  0.0479
  936loPI   C1A14299  10.205  13.782   6.631  0.0403  0.3083 -0.0182
  936loPI   C2A14300  10.164  13.856   7.098 -0.0942 -0.1786  0.1592
  936loPI   C3A14301  10.176  13.863   7.616  0.1405  0.0861 -0.0301
  936loPI   C4A14302  10.196  13.796   8.135  0.0522  0.0305 -0.0104
  936loPI   C5A14303  10.530  13.723   8.383 -0.1115  0.1376  0.0831
  936loPI   C6A14304  10.788  13.332   8.458  0.2440  0.0112 -0.0117
  936loPI   C1B14305  10.609  13.494   6.682  0.0820  0.0117  0.1261
  936loPI   C2B14306  10.625  13.498   7.120 -0.2733 -0.1054 -0.2342
  936loPI   C3B14307  10.657  13.563   7.524 -0.0460 -0.1748 -0.2185
  936loPI   C4B14308  10.464  13.460   7.833  0.0298 -0.0370  0.2949
  937loPI    C114309  11.509  13.337   5.473 -0.1079 -0.0732 -0.0295
  937loPI    C214310  11.204  13.234   5.235 -0.0600 -0.2278 -0.0251
  937loPI    C314311  11.557  13.050   5.198 -0.0298 -0.1993  0.1141
  937loPI   PO414312  11.301  13.555   5.712 -0.4597 -0.0103  0.1633
  937loPI   GL114313  11.291  13.692   6.079 -0.1649  0.1951  0.3323
  937loPI   GL214314  11.644  13.621   6.152 -0.1305 -0.1420 -0.1363
  937loPI   C1A14315  10.998  13.689   6.518 -0.2053  0.1248  0.1398
  937loPI   C2A14316  11.098  13.694   6.914  0.1266 -0.1618 -0.0825
  937loPI   C3A14317  11.070  13.797   7.350  0.0572  0.0254  0.0692
  937loPI   C4A14318  11.015  13.821   7.755 -0.0602 -0.3852  0.0762
  937loPI   C5A14319  11.064  13.892   8.215  0.1532  0.0386  0.5100
  937loPI   C6A14320  10.977  13.689   8.707 -0.0694  0.0431  0.4357
  937loPI   C1B14321  11.496  13.422   6.539 -0.0441  0.1845 -0.0843
  937loPI   C2B14322  11.496  13.423   7.026 -0.3240 -0.4804  0.0786
  937loPI   C3B14323  11.496  13.561   7.387 -0.5002 -0.3485  0.0070
  937loPI   C4B14324  11.467  13.564   7.774 -0.1119 -0.0316  0.0650
  938loPI    C114325  16.116  16.203   5.812  0.1117  0.1631  0.0480
  938loPI    C214326  15.809  16.134   5.565  0.2115  0.0753 -0.0523
  938loPI    C314327  16.151  16.283   5.422  0.1977  0.2247  0.0681
  938loPI   PO414328  16.087  16.086   6.028  0.2980  0.0630 -0.2259
  938loPI   GL114329  15.963  16.106   6.478 -0.1225 -0.1759 -0.2900
  938loPI   GL214330  15.862  16.430   6.467 -0.0940  0.3694  0.2255
  938loPI   C1A14331  15.948  16.140   6.946  0.0338 -0.0487 -0.1794
  938loPI   C2A14332  15.909  16.234   7.366 -0.0503  0.0561  0.2852
  938loPI   C3A14333  15.891  16.196   7.807 -0.2866  0.0170  0.0973
  938loPI   C4A14334  15.990  16.288   8.249 -0.1752  0.1646  0.3004
  938loPI   C5A14335  16.264  16.436   8.470 -0.0966 -0.1099 -0.1131
  938loPI   C6A14336  16.268  16.576   8.797 -0.0778 -0.1083 -0.0917
  938loPI   C1B14337  15.827  16.650   6.923  0.5809  0.3578  0.2676
  938loPI   C2B14338  15.875  16.691   7.369  0.0224  0.2452 -0.0828
  938loPI   C3B14339  15.841  16.714   7.850  0.1107  0.0366  0.1141
  938loPI   C4B14340  15.859  16.757   8.248  0.0657  0.0394 -0.0596
  939loPI    C114341  17.116  16.771   5.740  0.3126  0.2299 -0.2620
  939loPI    C214342  16.856  16.829   5.442 -0.0781  0.0308  0.0311
  939loPI    C314343  16.920  17.118   5.710 -0.1000  0.0319  0.0353
  939loPI   PO414344  17.046  16.568   5.858  0.0861 -0.0183 -0.2615
  939loPI   GL114345  17.126  16.507   6.207 -0.0768 -0.3837 -0.0050
  939loPI   GL214346  16.873  16.468   6.446  0.3313 -0.0042  0.0445
  939loPI   C1A14347  17.313  16.365   6.671  0.1644  0.2116  0.0430
  939loPI   C2A14348  17.161  16.375   7.119  0.0769 -0.2884  0.2908
  939loPI   C3A14349  17.201  16.439   7.557  0.0289 -0.1576 -0.1433
  939loPI   C4A14350  17.263  16.485   7.964  0.1581 -0.4283 -0.2900
  939loPI   C5A14351  17.174  16.569   8.434 -0.0183  0.2609  0.2894
  939loPI   C6A14352  17.018  16.791   8.726 -0.1164  0.1301  0.4198
  939loPI   C1B14353  16.809  16.634   6.870 -0.3821 -0.1760  0.1105
  939loPI   C2B14354  16.706  16.716   7.254 -0.0829 -0.3389  0.0245
  939loPI   C3B14355  16.745  16.709   7.709 -0.0313 -0.2056 -0.3739
  939loPI   C4B14356  16.724  16.843   8.154 -0.1700  0.0312 -0.0767
  940loPI    C114357   5.051   1.898   5.787  0.0593  0.2339 -0.1055
  940loPI    C214358   5.072   1.560   5.575 -0.0110  0.2263 -0.1003
  940loPI    C314359   5.306   1.869   5.479  0.0530  0.1765 -0.1055
  940loPI   PO414360   5.012   1.874   6.091  0.0019  0.4415  0.2511
  940loPI   GL114361   5.046   1.780   6.528  0.0125 -0.2042 -0.1806
  940loPI   GL214362   4.997   2.010   6.618 -0.1946  0.0954 -0.0358
  940loPI   C1A14363   4.978   1.565   6.891  0.1288  0.1150  0.0762
  940loPI   C2A14364   4.934   1.602   7.376 -0.2586  0.0487  0.2597
  940loPI   C3A14365   4.751   1.536   7.765 -0.0686  0.1958 -0.2231
  940loPI   C4A14366   4.364   1.432   8.070 -0.0442 -0.2514  0.1412
  940loPI   C5A14367   4.361   1.596   8.455  0.2036 -0.2748  0.3015
  940loPI   C6A14368   4.307   2.021   8.640 -0.0057 -0.1201 -0.0469
  940loPI   C1B14369   5.052   2.071   7.105  0.1445  0.0077  0.1179
  940loPI   C2B14370   5.250   2.258   7.368  0.0303 -0.1762  0.0456
  940loPI   C3B14371   5.367   2.398   7.795 -0.3321  0.1643 -0.0198
  940loPI   C4B14372   5.220   2.362   8.268  0.1425  0.0536  0.0110
  941loPI    C114373   2.161  15.853   5.750 -0.1189 -0.0232  0.1831
  941loPI    C214374   2.054  15.994   5.391  0.0032  0.1464  0.2124
  941loPI    C314375   2.328  15.704   5.418 -0.1324  0.0124  0.1602
  941loPI   PO414376   1.909  15.862   5.959 -0.1573  0.0925 -0.0735
  941loPI   GL114377   1.917  15.657   6.281  0.1434 -0.2154  0.1029
  941loPI   GL214378   2.079  15.786   6.462 -0.0095 -0.2391 -0.2124
  941loPI   C1A14379   1.719  15.586   6.667  0.2202  0.0654  0.1486
  941loPI   C2A14380   1.636  15.428   7.067  0.0595 -0.0402 -0.1304
  941loPI   C3A14381   1.739  15.521   7.509  0.0761 -0.0707 -0.0916
  941loPI   C4A14382   1.780  15.471   7.885 -0.2496 -0.0171  0.3092
  941loPI   C5A14383   1.685  15.473   8.315  0.1061  0.2397  0.0150
  941loPI   C6A14384   1.399  15.610   8.712  0.1117  0.0462 -0.2925
  941loPI   C1B14385   2.080  15.746   7.017 -0.3888 -0.1640  0.1327
  941loPI   C2B14386   2.195  15.791   7.414 -0.1682 -0.2903 -0.3224
  941loPI   C3B14387   2.240  15.739   7.950 -0.0134 -0.0219 -0.0454
  941loPI   C4B14388   2.034  15.789   8.414 -0.1091 -0.1562  0.1468
  942loPI    C114389   5.809  14.343   5.881 -0.1710  0.0164 -0.1116
  942loPI    C214390   5.879  14.587   5.572  0.0580  0.0094 -0.0666
  942loPI    C314391   5.733  14.220   5.508 -0.0866  0.0811 -0.1503
  942loPI   PO414392   5.826  14.453   6.078  0.0995 -0.1981  0.1158
  942loPI   GL114393   5.762  14.428   6.476  0.4117  0.1659 -0.0740
  942loPI   GL214394   6.046  14.492   6.515 -0.0271  0.0368  0.1085
  942loPI   C1A14395   5.681  14.209   6.940 -0.1992 -0.0759 -0.0159
  942loPI   C2A14396   5.723  14.230   7.371 -0.0810  0.1886  0.0562
  942loPI   C3A14397   5.824  14.288   7.838  0.0061 -0.0509 -0.0743
  942loPI   C4A14398   5.730  14.309   8.245  0.0345  0.1675  0.2026
  942loPI   C5A14399   5.393  14.482   8.398 -0.1219  0.0286 -0.0205
  942loPI   C6A14400   5.226  14.425   8.926  0.3592  0.1219 -0.1064
  942loPI   C1B14401   6.084  14.482   6.942 -0.0789  0.2482  0.1645
  942loPI   C2B14402   6.140  14.507   7.395  0.1648  0.0620 -0.0385
  942loPI   C3B14403   6.236  14.562   7.826  0.3052  0.3253 -0.3760
  942loPI   C4B14404   6.255  14.598   8.237 -0.2779 -0.2375  0.1508
  943loPI    C114405   4.954  13.035   5.849  0.0000  0.3394 -0.0994
  943loPI    C214406   4.631  13.065   6.082  0.0428  0.0579 -0.0007
  943loPI    C314407   4.620  12.837   5.754  0.1079  0.1352 -0.0570
  943loPI   PO414408   5.125  13.045   5.967  0.0515  0.1500  0.0892
  943loPI   GL114409   5.058  13.035   6.386  0.0648 -0.3777 -0.1955
  943loPI   GL214410   4.858  13.191   6.638  0.2102  0.0278  0.1811
  943loPI   C1A14411   5.294  13.049   6.728 -0.1590 -0.3217 -0.3771
  943loPI   C2A14412   5.240  13.014   7.222 -0.2148  0.3368 -0.3053
  943loPI   C3A14413   5.299  13.029   7.702  0.0412  0.2551 -0.0548
  943loPI   C4A14414   5.345  12.995   8.141 -0.0362  0.0891 -0.1386
  943loPI   C5A14415   5.432  13.077   8.603 -0.0697  0.0889 -0.3131
  943loPI   C6A14416   5.185  13.085   8.921 -0.1552  0.0994 -0.3447
  943loPI   C1B14417   4.827  13.233   7.029 -0.0165  0.1181  0.3139
  943loPI   C2B14418   4.859  13.250   7.486 -0.1094 -0.1247  0.2650
  943loPI   C3B14419   4.868  13.269   7.845  0.0210 -0.1215  0.1949
  943loPI   C4B14420   4.939  13.223   8.225 -0.4166  0.0832  0.1561
  944loPI    C114421  15.272   6.041   5.612 -0.0299 -0.0914  0.0630
  944loPI    C214422  15.480   5.718   5.501  0.1537  0.0424  0.0109
  944loPI    C314423  15.252   5.910   5.234 -0.2018 -0.2213  0.1163
  944loPI   PO414424  15.213   5.980   5.963  0.1775 -0.1676  0.1635
  944loPI   GL114425  15.279   6.086   6.477  0.1170 -0.0897  0.1616
  944loPI   GL214426  15.542   6.310   6.533 -0.3292  0.0759  0.0250
  944loPI   C1A14427  15.350   5.791   6.753  0.1161  0.1192  0.2702
  944loPI   C2A14428  15.425   5.724   7.136  0.2893 -0.0742 -0.1620
  944loPI   C3A14429  15.455   5.789   7.553  0.0226 -0.1789  0.2134
  944loPI   C4A14430  15.426   5.870   7.881 -0.1261 -0.1010  0.1176
  944loPI   C5A14431  15.293   5.868   8.326  0.2360  0.4158 -0.0207
  944loPI   C6A14432  15.276   6.108   8.723 -0.0036 -0.0339 -0.1597
  944loPI   C1B14433  15.344   6.296   6.898  0.0098 -0.0149 -0.0671
  944loPI   C2B14434  15.389   6.423   7.303  0.1028  0.1803  0.3231
  944loPI   C3B14435  15.563   6.456   7.717 -0.0609  0.2264  0.0149
  944loPI   C4B14436  15.815   6.509   8.063 -0.2186 -0.2216 -0.2091
  945loPI    C114437  16.065  15.575   5.836 -0.0295 -0.1451  0.0651
  945loPI    C214438  15.742  15.350   5.762 -0.0656  0.0146 -0.2839
  945loPI    C314439  16.100  15.237   5.624  0.0427 -0.1890  0.1466
  945loPI   PO414440  15.847  15.711   6.117 -0.3362 -0.2302 -0.0368
  945loPI   GL114441  15.851  15.578   6.561 -0.1227 -0.0577  0.0791
  945loPI   GL214442  15.922  15.217   6.541  0.1694 -0.1009 -0.0556
  945loPI   C1A14443  15.887  15.611   6.883 -0.1207 -0.0048 -0.3343
  945loPI   C2A14444  15.847  15.743   7.219  0.3133 -0.1395  0.2507
  945loPI   C3A14445  15.913  15.722   7.639 -0.0392 -0.2328 -0.1689
  945loPI   C4A14446  15.877  15.721   8.035 -0.0722  0.0601 -0.0287
  945loPI   C5A14447  15.587  15.780   8.346  0.1091 -0.2033  0.2535
  945loPI   C6A14448  15.220  15.850   8.636  0.1135  0.1277  0.1254
  945loPI   C1B14449  15.908  15.089   6.959 -0.0567 -0.2391 -0.2125
  945loPI   C2B14450  15.882  15.139   7.355  0.0461  0.1366  0.0660
  945loPI   C3B14451  15.894  15.212   7.737  0.1559  0.0486 -0.0718
  945loPI   C4B14452  15.928  15.252   8.207  0.2391 -0.0719 -0.0342
  946loPI    C114453   1.101  14.004   5.754 -0.0630 -0.2104 -0.0429
  946loPI    C214454   1.393  13.835   5.968 -0.0129 -0.1521 -0.0648
  946loPI    C314455   1.478  14.018   5.623 -0.0236  0.1644  0.0966
  946loPI   PO414456   0.956  14.142   5.958 -0.2249  0.0666  0.1801
  946loPI   GL114457   1.029  14.102   6.286  0.3011 -0.0215  0.4659
  946loPI   GL214458   1.227  14.080   6.507 -0.0379 -0.0047 -0.0147
  946loPI   C1A14459   0.818  13.966   6.720 -0.0837 -0.0781  0.1253
  946loPI   C2A14460   0.857  13.940   7.114  0.0479  0.0542  0.0624
  946loPI   C3A14461   0.857  13.897   7.541 -0.0302 -0.0478  0.2269
  946loPI   C4A14462   0.790  13.972   7.968 -0.1756  0.0715 -0.3891
  946loPI   C5A14463   0.782  13.963   8.396  0.3514 -0.1212  0.0087
  946loPI   C6A14464   0.553  14.162   8.613  0.2545 -0.2703 -0.0778
  946loPI   C1B14465   1.238  14.203   6.960  0.1440  0.1466  0.1771
  946loPI   C2B14466   1.242  14.171   7.430  0.0664 -0.1767  0.1695
  946loPI   C3B14467   1.269  14.200   7.871 -0.0826  0.1152 -0.0175
  946loPI   C4B14468   1.239  14.143   8.319  0.3422  0.3703 -0.1975
  947loPI    C114469   3.952  17.062   5.894  0.0285  0.2388  0.0300
  947loPI    C214470   4.178  16.989   5.573  0.0704  0.0450  0.1025
  947loPI    C314471   3.806  16.844   5.592 -0.0402  0.3117  0.0103
  947loPI   PO414472   4.114  16.997   6.108  0.0315  0.2234 -0.2425
  947loPI   GL114473   3.949  16.762   6.519  0.4841  0.2130 -0.1769
  947loPI   GL214474   4.146  16.578   6.665  0.0226  0.0329 -0.1236
  947loPI   C1A14475   3.711  16.791   6.853  0.2477 -0.0313 -0.0574
  947loPI   C2A14476   3.888  16.707   7.180 -0.4367 -0.0487  0.2214
  947loPI   C3A14477   3.869  16.802   7.604  0.2190  0.2008 -0.1112
  947loPI   C4A14478   3.957  16.868   8.056 -0.0918  0.0240 -0.0909
  947loPI   C5A14479   3.951  16.864   8.506  0.0524  0.1550  0.0673
  947loPI   C6A14480   3.872  16.716   8.836 -0.0251  0.1059 -0.0617
  947loPI   C1B14481   4.357  16.544   7.056  0.2505  0.0871 -0.0751
  947loPI   C2B14482   4.419  16.578   7.508  0.2630 -0.2108 -0.1041
  947loPI   C3B14483   4.449  16.669   7.902 -0.0970  0.1576  0.1039
  947loPI   C4B14484   4.486  16.702   8.379  0.1152  0.0957  0.2339
  948loPI    C114485   4.039   3.352   6.141 -0.1001 -0.0891  0.0147
  948loPI    C214486   4.160   2.979   6.219  0.1256 -0.0126  0.0352
  948loPI    C314487   4.150   3.111   5.842 -0.2976 -0.1543 -0.0076
  948loPI   PO414488   3.903   3.399   6.366 -0.0800 -0.1215  0.0399
  948loPI   GL114489   4.034   3.631   6.707  0.3007 -0.2137  0.0472
  948loPI   GL214490   4.128   3.886   6.657 -0.0508  0.0132 -0.0049
  948loPI   C1A14491   3.914   3.634   7.133 -0.0932 -0.0595 -0.1670
  948loPI   C2A14492   3.824   3.568   7.611  0.0896  0.0973  0.0300
  948loPI   C3A14493   3.839   3.701   8.014 -0.1294  0.1915  0.0101
  948loPI   C4A14494   3.977   3.864   8.444 -0.0635  0.0614 -0.1495
  948loPI   C5A14495   4.396   3.906   8.620 -0.0532  0.1271 -0.2628
  948loPI   C6A14496   4.801   3.847   8.900  0.0886 -0.3127  0.0606
  948loPI   C1B14497   4.339   3.881   7.048  0.1587  0.0314  0.0388
  948loPI   C2B14498   4.373   3.843   7.381 -0.2420 -0.1091  0.2147
  948loPI   C3B14499   4.220   3.904   7.708 -0.1008 -0.3260 -0.5249
  948loPI   C4B14500   4.350   3.979   8.139 -0.3073  0.0137  0.1568
  949loPI    C114501   9.248   6.544   6.154  0.0423 -0.0116 -0.0390
  949loPI    C214502   9.539   6.316   6.000  0.1706  0.2371 -0.1704
  949loPI    C314503   9.366   6.600   5.776  0.0564  0.3123  0.0102
  949loPI   PO414504   9.359   6.662   6.418  0.0471 -0.0380  0.0954
  949loPI   GL114505   9.233   6.657   6.789 -0.2776 -0.0598 -0.1169
  949loPI   GL214506   9.230   6.983   6.896  0.3914 -0.1101 -0.1540
  949loPI   C1A14507   9.212   6.422   7.151  0.0218  0.0221 -0.0834
  949loPI   C2A14508   9.196   6.276   7.565  0.0497 -0.2035 -0.3308
  949loPI   C3A14509   9.203   6.403   7.985 -0.0682  0.1590  0.1780
  949loPI   C4A14510   9.272   6.433   8.360 -0.0222  0.0908 -0.3642
  949loPI   C5A14511   9.335   6.537   8.828 -0.4550  0.1428 -0.1228
  949loPI   C6A14512   9.081   6.755   9.127  0.1660  0.0729  0.2074
  949loPI   C1B14513   9.175   6.897   7.340  0.1727  0.3115 -0.1407
  949loPI   C2B14514   9.146   6.893   7.781  0.0636 -0.0518  0.1573
  949loPI   C3B14515   9.185   6.963   8.288  0.0201  0.1810 -0.0609
  949loPI   C4B14516   9.160   7.061   8.759  0.0874 -0.1061  0.2429
  950loPI    C114517   5.116  10.903   5.807  0.0334  0.2998 -0.2838
  950loPI    C214518   5.301  10.674   5.536  0.0741  0.0825 -0.0745
  950loPI    C314519   5.240  11.062   5.461  0.2298  0.0602 -0.3257
  950loPI   PO414520   5.278  10.892   5.995  0.0159  0.0157  0.0391
  950loPI   GL114521   5.397  11.134   6.352  0.0645 -0.1447 -0.0754
  950loPI   GL214522   5.099  11.330   6.420  0.1399 -0.0777 -0.1656
  950loPI   C1A14523   5.452  10.879   6.789 -0.0345  0.0518 -0.0644
  950loPI   C2A14524   5.329  10.929   7.218  0.0799  0.0856 -0.2341
  950loPI   C3A14525   5.398  10.978   7.695 -0.2883  0.2683 -0.0615
  950loPI   C4A14526   5.414  10.867   8.076  0.2702  0.1613  0.1213
  950loPI   C5A14527   5.352  11.004   8.528  0.1690 -0.0159  0.4350
  950loPI   C6A14528   5.289  11.433   8.738  0.0302  0.1116 -0.0619
  950loPI   C1B14529   5.335  11.379   6.864 -0.3106 -0.0815 -0.3210
  950loPI   C2B14530   5.310  11.480   7.309 -0.1934  0.2228 -0.0864
  950loPI   C3B14531   5.323  11.452   7.772  0.1463  0.1708 -0.0134
  950loPI   C4B14532   5.360  11.392   8.210 -0.0993 -0.0422  0.2835
  951loPI    C114533   2.805   0.070   6.149 -0.0300 -0.1130  0.0130
  951loPI    C214534   3.200   0.007   6.159 -0.0292 -0.0839  0.2093
  951loPI    C314535   3.050   0.308   5.942  0.0557 -0.0977  0.1310
  951loPI   PO414536   2.684  -0.016   6.377  0.0382 -0.0866 -0.3161
  951loPI   GL114537   2.781   0.108   6.753 -0.0827 -0.3231 -0.1284
  951loPI   GL214538   2.443   0.152   6.828 -0.1014  0.2464 -0.1347
  951loPI   C1A14539   2.950   0.385   7.055 -0.1836 -0.2106  0.1296
  951loPI   C2A14540   2.936   0.485   7.405 -0.3431 -0.0436  0.0273
  951loPI   C3A14541   2.930   0.472   7.807 -0.0346  0.0569  0.0554
  951loPI   C4A14542   3.005   0.457   8.250  0.0598 -0.0567  0.0761
  951loPI   C5A14543   3.141   0.384   8.626 -0.0698  0.3315  0.1261
  951loPI   C6A14544   3.370   0.148   8.939 -0.0128 -0.2336 -0.0390
  951loPI   C1B14545   2.494   0.167   7.204  0.0074 -0.0665 -0.0723
  951loPI   C2B14546   2.547   0.174   7.663 -0.0761 -0.1155  0.1700
  951loPI   C3B14547   2.577   0.189   8.103  0.1075 -0.2285  0.2588
  951loPI   C4B14548   2.726   0.163   8.586 -0.0572  0.2387 -0.1454
  952loPI    C114549   2.687   6.226   5.740 -0.1012 -0.1316 -0.1218
  952loPI    C214550   2.787   6.560   5.543  0.0484 -0.1686 -0.1100
  952loPI    C314551   2.638   6.247   5.343 -0.1116 -0.0882 -0.1184
  952loPI   PO414552   2.581   6.263   5.972  0.1609 -0.3117  0.1385
  952loPI   GL114553   2.744   6.141   6.402 -0.2530 -0.1592  0.1141
  952loPI   GL214554   2.646   6.487   6.409 -0.0738  0.2304  0.1743
  952loPI   C1A14555   2.842   6.126   6.786 -0.0470 -0.0729  0.0027
  952loPI   C2A14556   2.859   6.185   7.232 -0.1704  0.0043 -0.2024
  952loPI   C3A14557   2.830   6.302   7.682  0.0340 -0.0333  0.1076
  952loPI   C4A14558   2.855   6.286   8.129  0.0528  0.0050  0.2494
  952loPI   C5A14559   2.767   6.438   8.539 -0.0881  0.2217  0.2557
  952loPI   C6A14560   2.694   6.631   9.003  0.2577  0.0896 -0.2787
  952loPI   C1B14561   2.809   6.711   6.815 -0.1769 -0.2128  0.4262
  952loPI   C2B14562   2.830   6.754   7.264 -0.3929  0.2623  0.1732
  952loPI   C3B14563   2.837   6.813   7.663 -0.0325 -0.0613  0.2981
  952loPI   C4B14564   2.807   6.793   8.157 -0.2198 -0.0804  0.0279
  953loPI    C114565  14.780  13.098   5.578  0.1134 -0.0054 -0.0171
  953loPI    C214566  14.444  13.085   5.795  0.1686 -0.0093  0.0684
  953loPI    C314567  14.428  13.040   5.398  0.0472  0.1807  0.0505
  953loPI   PO414568  14.987  13.053   5.794 -0.0130  0.0621 -0.1851
  953loPI   GL114569  14.798  13.003   6.210  0.5371  0.0742  0.0684
  953loPI   GL214570  15.144  12.911   6.261 -0.1005 -0.1401 -0.0733
  953loPI   C1A14571  14.658  13.206   6.617 -0.0247 -0.1659 -0.1757
  953loPI   C2A14572  14.673  13.293   6.987 -0.0264  0.4160  0.4542
  953loPI   C3A14573  14.723  13.265   7.480  0.0444  0.0273 -0.0252
  953loPI   C4A14574  14.685  13.319   7.900 -0.1344 -0.1656 -0.1753
  953loPI   C5A14575  14.883  13.148   8.144 -0.0044 -0.1278 -0.2676
  953loPI   C6A14576  14.836  12.845   8.432  0.1251  0.1297 -0.0580
  953loPI   C1B14577  15.202  13.136   6.649 -0.1530  0.1995  0.3003
  953loPI   C2B14578  15.123  13.119   6.932  0.0390 -0.1003 -0.0146
  953loPI   C3B14579  15.150  13.105   7.328 -0.0532  0.0723 -0.2358
  953loPI   C4B14580  15.125  13.091   7.718  0.0093 -0.2559 -0.1145
  954loPI    C114581  11.756   2.018   5.860  0.3694 -0.2384 -0.0235
  954loPI    C214582  11.801   1.709   5.610  0.1154 -0.2262 -0.0869
  954loPI    C314583  11.862   2.082   5.479 -0.3446 -0.1945 -0.2295
  954loPI   PO414584  11.660   1.845   6.109  0.2978 -0.1368 -0.0879
  954loPI   GL114585  11.273   1.807   6.377  0.0563 -0.0652 -0.3602
  954loPI   GL214586  11.051   1.464   6.393 -0.1053  0.1016  0.2354
  954loPI   C1A14587  11.350   1.904   6.885 -0.0918  0.0010 -0.2702
  954loPI   C2A14588  11.424   1.969   7.380  0.1410  0.3558  0.1994
  954loPI   C3A14589  11.475   1.918   7.849  0.1368  0.2742 -0.0218
  954loPI   C4A14590  11.342   1.889   8.281  0.0275  0.0123 -0.4476
  954loPI   C5A14591  11.598   1.531   8.595  0.3345  0.0024  0.2655
  954loPI   C6A14592  11.598   1.426   9.053 -0.0393  0.1573 -0.1557
  954loPI   C1B14593  10.907   1.663   6.738  0.1451 -0.0297  0.1154
  954loPI   C2B14594  10.950   1.793   7.114 -0.3265 -0.4868 -0.0733
  954loPI   C3B14595  10.990   1.706   7.535  0.2438 -0.0427 -0.1526
  954loPI   C4B14596  10.976   1.708   7.915 -0.1734 -0.1863  0.1577
  955loPI    C114597   2.649   5.466   6.089  0.0216  0.0201  0.2119
  955loPI    C214598   2.796   5.823   5.985  0.1582 -0.0747  0.0748
  955loPI    C314599   2.894   5.498   5.774 -0.1316 -0.1627  0.0718
  955loPI   PO414600   2.495   5.537   6.248 -0.0896 -0.1219  0.0631
  955loPI   GL114601   2.470   5.798   6.659 -0.1933 -0.1639  0.0878
  955loPI   GL214602   2.116   5.638   6.632 -0.1942  0.1011 -0.2025
  955loPI   C1A14603   2.473   5.922   7.080  0.1059 -0.0014 -0.0732
  955loPI   C2A14604   2.416   5.983   7.503 -0.2136 -0.0919  0.1454
  955loPI   C3A14605   2.488   6.029   7.944 -0.0743  0.0560 -0.1733
  955loPI   C4A14606   2.529   5.994   8.478  0.0321  0.6512  0.0520
  955loPI   C5A14607   2.455   5.626   8.819 -0.3456  0.0069 -0.3228
  955loPI   C6A14608   2.344   5.137   8.846 -0.2238  0.3218  0.0354
  955loPI   C1B14609   1.938   5.528   7.006 -0.2152  0.0074 -0.0860
  955loPI   C2B14610   2.027   5.595   7.438 -0.1420  0.0412  0.0048
  955loPI   C3B14611   2.059   5.697   7.824 -0.4846  0.0653 -0.0699
  955loPI   C4B14612   2.068   5.780   8.297  0.0866  0.0403  0.0258
  956loPI    C114613   2.442  15.283   6.005  0.3278 -0.2318  0.0655
  956loPI    C214614   2.217  15.219   5.681 -0.1563  0.4666  0.2419
  956loPI    C314615   2.616  15.205   5.653 -0.1952  0.1245 -0.2862
  956loPI   PO414616   2.392  15.532   6.130 -0.0077  0.1493 -0.1938
  956loPI   GL114617   2.564  15.677   6.440 -0.2587 -0.0612  0.0252
  956loPI   GL214618   2.586  15.475   6.670 -0.0862 -0.1250  0.1375
  956loPI   C1A14619   2.577  15.974   6.751  0.0254 -0.2298  0.1439
  956loPI   C2A14620   2.675  15.969   7.196  0.3061  0.0353 -0.1689
  956loPI   C3A14621   2.675  15.960   7.696  0.1382  0.0166 -0.1800
  956loPI   C4A14622   2.663  16.052   8.114 -0.1398 -0.1537 -0.2073
  956loPI   C5A14623   2.615  15.951   8.547 -0.1054 -0.1830 -0.1650
  956loPI   C6A14624   2.346  15.762   8.899 -0.1581 -0.1602 -0.0728
  956loPI   C1B14625   2.684  15.480   7.014  0.3761 -0.2110 -0.0498
  956loPI   C2B14626   2.648  15.523   7.452  0.2045 -0.0307  0.0793
  956loPI   C3B14627   2.695  15.498   7.822  0.1096  0.1857  0.0173
  956loPI   C4B14628   2.543  15.503   8.291 -0.0696 -0.0889  0.0841
  957loPI    C114629   9.820   7.978   5.958  0.1313 -0.0507 -0.0859
  957loPI    C214630   9.711   8.254   5.690 -0.1434  0.0001  0.0747
  957loPI    C314631   9.986   7.980   5.594 -0.1571  0.0862 -0.2197
  957loPI   PO414632   9.933   8.121   6.188 -0.0745  0.1167  0.2025
  957loPI   GL114633   9.961   8.364   6.456  0.0579  0.0039 -0.1031
  957loPI   GL214634  10.246   8.515   6.328 -0.0856  0.1154  0.1249
  957loPI   C1A14635  10.050   8.587   6.778  0.0931  0.0306 -0.1069
  957loPI   C2A14636  10.039   8.501   7.179 -0.1853 -0.2070 -0.0400
  957loPI   C3A14637  10.063   8.493   7.584 -0.1001  0.1531 -0.0569
  957loPI   C4A14638  10.183   8.560   8.011  0.0166 -0.1828 -0.2943
  957loPI   C5A14639  10.074   8.595   8.425  0.0872  0.0275  0.0950
  957loPI   C6A14640  10.065   8.521   8.937 -0.0926 -0.0688  0.1866
  957loPI   C1B14641  10.517   8.334   6.693  0.2609  0.2032 -0.2344
  957loPI   C2B14642  10.536   8.269   7.182 -0.0731  0.2184  0.0208
  957loPI   C3B14643  10.547   8.259   7.561  0.0742  0.2880 -0.0216
  957loPI   C4B14644  10.669   8.275   8.054 -0.5531  0.1097 -0.0949
  958loPI    C114645   6.271   6.195   5.992  0.0044  0.0318  0.2369
  958loPI    C214646   6.507   6.305   5.689 -0.0104 -0.1061  0.1747
  958loPI    C314647   6.371   5.930   5.710 -0.2073 -0.0331  0.2214
  958loPI   PO414648   6.408   6.266   6.247 -0.1926  0.2176  0.2705
  958loPI   GL114649   6.276   6.374   6.616  0.0244  0.1468  0.0109
  958loPI   GL214650   6.496   6.270   6.761  0.3541 -0.0355  0.1863
  958loPI   C1A14651   5.971   6.505   6.896 -0.0224 -0.0467  0.0260
  958loPI   C2A14652   5.894   6.633   7.342 -0.0410  0.2898  0.0726
  958loPI   C3A14653   6.060   6.592   7.841  0.0028 -0.0914 -0.0094
  958loPI   C4A14654   5.996   6.583   8.209  0.1727  0.1669 -0.0117
  958loPI   C5A14655   6.011   6.656   8.554  0.1739  0.2188  0.0296
  958loPI   C6A14656   5.720   6.830   8.897  0.0852 -0.2193 -0.2183
  958loPI   C1B14657   6.328   6.363   7.219 -0.2668  0.1132  0.0191
  958loPI   C2B14658   6.491   6.344   7.690  0.2048 -0.1879 -0.0939
  958loPI   C3B14659   6.558   6.357   8.042 -0.0919  0.2260 -0.1184
  958loPI   C4B14660   6.602   6.423   8.492 -0.1400 -0.3737 -0.0409
  959loPI    C114661   1.454   1.263   5.783 -0.2388 -0.0326  0.1295
  959loPI    C214662   1.331   0.903   5.661  0.1565 -0.1136 -0.0475
  959loPI    C314663   1.543   1.135   5.415 -0.0736  0.2335  0.0741
  959loPI   PO414664   1.423   1.270   6.016  0.0803  0.0075 -0.3089
  959loPI   GL114665   1.120   1.475   6.289 -0.1043  0.2488  0.1021
  959loPI   GL214666   0.935   1.693   6.381 -0.3273 -0.0007  0.1120
  959loPI   C1A14667   1.235   1.344   6.645 -0.2383  0.1067 -0.2847
  959loPI   C2A14668   1.220   1.476   6.992 -0.0522 -0.0281 -0.1218
  959loPI   C3A14669   1.242   1.430   7.470  0.1082  0.0816 -0.0257
  959loPI   C4A14670   1.169   1.479   7.917 -0.3465 -0.2331 -0.2025
  959loPI   C5A14671   1.278   1.462   8.353  0.0998 -0.1518  0.5304
  959loPI   C6A14672   1.133   1.238   8.614 -0.1242  0.0584  0.2156
  959loPI   C1B14673   0.787   1.709   6.789 -0.1692 -0.2180 -0.2081
  959loPI   C2B14674   0.807   1.709   7.288 -0.2896 -0.2166 -0.0082
  959loPI   C3B14675   0.679   1.711   7.711 -0.1122 -0.2183 -0.0038
  959loPI   C4B14676   0.808   1.701   8.257  0.0650 -0.0317 -0.0267
  960loPI    C114677   5.190   1.388   6.101  0.3901 -0.0229  0.0296
  960loPI    C214678   5.452   1.257   5.828  0.0622 -0.0790 -0.2654
  960loPI    C314679   5.099   1.073   5.872 -0.0750  0.2117 -0.1209
  960loPI   PO414680   5.324   1.419   6.367  0.0509 -0.2159  0.1366
  960loPI   GL114681   5.271   1.205   6.709  0.1969  0.0155  0.0231
  960loPI   GL214682   5.677   1.210   6.691 -0.2606  0.0997 -0.0072
  960loPI   C1A14683   5.163   1.130   7.095 -0.0842  0.2701  0.1037
  960loPI   C2A14684   5.131   1.194   7.593 -0.0146 -0.1772  0.0117
  960loPI   C3A14685   5.275   1.281   8.047 -0.0168  0.0405 -0.0939
  960loPI   C4A14686   5.249   1.442   8.433  0.4353  0.3595 -0.2310
  960loPI   C5A14687   5.094   1.761   8.605 -0.0088  0.0514 -0.2674
  960loPI   C6A14688   4.820   2.092   8.792 -0.2349 -0.0618  0.5288
  960loPI   C1B14689   5.647   1.084   7.116  0.1509  0.0416 -0.0267
  960loPI   C2B14690   5.623   1.094   7.585 -0.0917 -0.1644 -0.0914
  960loPI   C3B14691   5.709   1.115   7.953 -0.0550  0.2301 -0.2894
  960loPI   C4B14692   5.712   1.061   8.444  0.2736  0.1822  0.1151
  961loPI    C114693   0.712   5.328   5.821 -0.1030 -0.1993 -0.2534
  961loPI    C214694   1.107   5.377   5.788 -0.0684 -0.3494 -0.0725
  961loPI    C314695   0.881   5.358   5.459  0.0488 -0.0651 -0.1723
  961loPI   PO414696   0.720   5.263   6.212 -0.5273  0.0300  0.1969
  961loPI   GL114697   0.647   5.337   6.580  0.0636  0.0049  0.2533
  961loPI   GL214698   0.683   5.659   6.631  0.0037 -0.0060 -0.0877
  961loPI   C1A14699   0.663   5.256   6.964  0.1514 -0.0041  0.4429
  961loPI   C2A14700   0.758   5.262   7.362 -0.1333  0.1154  0.1909
  961loPI   C3A14701   0.780   5.355   7.792  0.1303  0.0850  0.2429
  961loPI   C4A14702   0.747   5.390   8.225 -0.2344  0.1381 -0.1582
  961loPI   C5A14703   0.854   5.271   8.621 -0.0883 -0.4845  0.0106
  961loPI   C6A14704   0.985   5.258   8.954 -0.0781  0.0103  0.1929
  961loPI   C1B14705   0.655   5.805   6.984 -0.4784  0.1029  0.1505
  961loPI   C2B14706   0.630   5.842   7.458 -0.0540 -0.0830  0.3695
  961loPI   C3B14707   0.742   5.826   7.849 -0.3557 -0.1243  0.0987
  961loPI   C4B14708   0.745   5.894   8.306 -0.1091 -0.1364  0.2332
  962loPI    C114709  12.091   5.775   5.813 -0.1150  0.0227 -0.2203
  962loPI    C214710  12.416   5.616   5.641 -0.0267  0.0457 -0.0762
  962loPI    C314711  12.128   5.776   5.414  0.1408  0.1770 -0.1992
  962loPI   PO414712  12.206   5.885   6.024 -0.2468 -0.0886  0.4014
  962loPI   GL114713  12.461   5.894   6.228  0.1823 -0.1005 -0.1853
  962loPI   GL214714  12.675   6.084   6.320 -0.0040 -0.0550  0.2657
  962loPI   C1A14715  12.259   6.087   6.631  0.0497  0.1160 -0.1825
  962loPI   C2A14716  12.261   6.090   7.024  0.0227 -0.0903 -0.0261
  962loPI   C3A14717  12.283   6.147   7.463  0.0750  0.3918 -0.0274
  962loPI   C4A14718  12.315   6.165   7.928 -0.0533 -0.4754  0.2782
  962loPI   C5A14719  12.524   6.265   8.337  0.0493  0.1136 -0.1351
  962loPI   C6A14720  12.820   6.256   8.527  0.2400 -0.0932  0.1488
  962loPI   C1B14721  12.715   5.885   6.755 -0.2582  0.0244  0.4642
  962loPI   C2B14722  12.735   5.908   7.174  0.0189  0.1502  0.1005
  962loPI   C3B14723  12.735   5.828   7.584  0.0364 -0.2590  0.0678
  962loPI   C4B14724  12.784   5.932   8.075 -0.2742 -0.1383 -0.0773
  963loPI    C114725  15.274   4.457   5.514 -0.0747 -0.0214 -0.0892
  963loPI    C214726  15.046   4.414   5.189 -0.0275 -0.0897 -0.1136
  963loPI    C314727  15.255   4.103   5.329  0.2595  0.0395 -0.2475
  963loPI   PO414728  14.994   4.575   5.662  0.1120 -0.0144 -0.2930
  963loPI   GL114729  14.713   4.459   5.962  0.0032  0.1245  0.1449
  963loPI   GL214730  14.489   4.646   6.197 -0.3081 -0.3229  0.2747
  963loPI   C1A14731  14.939   4.492   6.419 -0.1349 -0.1583  0.1248
  963loPI   C2A14732  14.928   4.574   6.841 -0.1364  0.2182  0.2127
  963loPI   C3A14733  14.874   4.579   7.326  0.2040 -0.0760  0.0876
  963loPI   C4A14734  14.922   4.572   7.717  0.0339 -0.0400 -0.0280
  963loPI   C5A14735  14.925   4.566   8.112 -0.0339 -0.1780 -0.4078
  963loPI   C6A14736  14.863   4.760   8.527 -0.1260 -0.0482 -0.3508
  963loPI   C1B14737  14.475   4.807   6.672 -0.0324 -0.2688  0.1299
  963loPI   C2B14738  14.429   4.800   7.095 -0.1302 -0.2567  0.0423
  963loPI   C3B14739  14.497   4.890   7.598  0.1808  0.2243  0.0104
  963loPI   C4B14740  14.509   4.904   8.041  0.0106 -0.1583 -0.0042
  964loPI    C114741  14.965   2.173   5.667 -0.1277 -0.0249  0.1557
  964loPI    C214742  14.905   2.568   5.685  0.1353  0.0229  0.0223
  964loPI    C314743  14.600   2.324   5.599 -0.0383  0.1920  0.1478
  964loPI   PO414744  15.084   2.116   5.881 -0.1280 -0.1613 -0.3584
  964loPI   GL114745  14.937   2.216   6.159  0.1191  0.2927 -0.0252
  964loPI   GL214746  14.657   2.049   6.251  0.2526  0.0283 -0.1299
  964loPI   C1A14747  14.990   2.402   6.524  0.0082  0.0990 -0.0824
  964loPI   C2A14748  14.941   2.495   6.972 -0.2193  0.1891 -0.2228
  964loPI   C3A14749  14.958   2.368   7.457  0.0684  0.1257  0.0064
  964loPI   C4A14750  15.043   2.425   7.843 -0.1565  0.1976 -0.1994
  964loPI   C5A14751  14.990   2.453   8.245 -0.1087 -0.0392 -0.0377
  964loPI   C6A14752  14.741   2.532   8.604 -0.1273 -0.1008 -0.1526
  964loPI   C1B14753  14.574   2.202   6.651 -0.2323 -0.1072 -0.0456
  964loPI   C2B14754  14.557   2.188   7.085  0.0850  0.1249 -0.1743
  964loPI   C3B14755  14.545   2.135   7.471  0.1508 -0.0833 -0.2573
  964loPI   C4B14756  14.539   2.281   7.857 -0.1354  0.1249 -0.0617
  965loPI    C114757   9.298  12.129   5.575 -0.0268 -0.1931 -0.0105
  965loPI    C214758   8.915  12.235   5.526  0.0467  0.1370  0.1072
  965loPI    C314759   9.180  12.303   5.234 -0.0138 -0.2473 -0.0429
  965loPI   PO414760   9.323  12.214   5.818 -0.1801 -0.0002 -0.1924
  965loPI   GL114761   9.344  12.228   6.300  0.0216  0.1295 -0.0667
  965loPI   GL214762   9.541  12.032   6.495  0.0350  0.2450 -0.2553
  965loPI   C1A14763   9.168  12.258   6.720  0.1764 -0.0409  0.0468
  965loPI   C2A14764   9.234  12.151   7.102 -0.0212 -0.2456  0.0400
  965loPI   C3A14765   9.250  12.290   7.540 -0.1057 -0.1286 -0.2155
  965loPI   C4A14766   9.227  12.126   7.984  0.2242  0.2167  0.0386
  965loPI   C5A14767   9.224  11.847   8.364  0.0004 -0.1339 -0.2542
  965loPI   C6A14768   9.013  11.552   8.480 -0.2207  0.4353 -0.0756
  965loPI   C1B14769   9.698  11.932   7.008  0.1317 -0.2059  0.0078
  965loPI   C2B14770   9.664  11.993   7.445 -0.1037 -0.1583 -0.0279
  965loPI   C3B14771   9.631  11.907   7.864 -0.0324 -0.0319  0.1239
  965loPI   C4B14772   9.699  11.917   8.315  0.0466  0.0983 -0.2345
  966loPI    C114773   2.251   3.776   5.438  0.1526  0.0234 -0.0203
  966loPI    C214774   2.190   4.103   5.215  0.0379 -0.1031 -0.1778
  966loPI    C314775   2.020   3.757   5.111  0.1221 -0.2034  0.0132
  966loPI   PO414776   2.091   3.892   5.750  0.0700  0.0511  0.0246
  966loPI   GL114777   2.240   3.828   6.243  0.1750  0.2083  0.1418
  966loPI   GL214778   2.072   3.515   6.175  0.2027 -0.3032 -0.2388
  966loPI   C1A14779   2.122   3.989   6.726  0.2951  0.2906 -0.0548
  966loPI   C2A14780   2.061   4.117   7.121 -0.1618  0.4492 -0.1076
  966loPI   C3A14781   2.074   4.071   7.510  0.0197 -0.1656  0.1681
  966loPI   C4A14782   1.999   4.091   7.995  0.1496  0.0770  0.1535
  966loPI   C5A14783   2.171   4.215   8.332  0.0130 -0.0745 -0.3010
  966loPI   C6A14784   2.534   4.430   8.542  0.1237 -0.1496  0.1309
  966loPI   C1B14785   2.141   3.472   6.619 -0.0491 -0.1733  0.3329
  966loPI   C2B14786   2.149   3.588   6.931  0.1287 -0.0534 -0.1456
  966loPI   C3B14787   2.169   3.577   7.430  0.1901 -0.1874  0.2427
  966loPI   C4B14788   2.135   3.571   7.866  0.2012 -0.1706  0.0455
  967loPI    C114789  14.577  14.389   5.788  0.0500  0.1702  0.2674
  967loPI    C214790  14.349  14.559   5.507  0.2310 -0.0777 -0.0358
  967loPI    C314791  14.642  14.769   5.680  0.1107  0.0801 -0.0205
  967loPI   PO414792  14.405  14.268   5.957 -0.0797  0.2244  0.0251
  967loPI   GL114793  14.341  14.387   6.312 -0.0493  0.1576 -0.2512
  967loPI   GL214794  14.550  14.193   6.496  0.0752 -0.3007  0.1897
  967loPI   C1A14795  14.218  14.569   6.670  0.1410  0.0478 -0.1633
  967loPI   C2A14796  14.200  14.593   7.133  0.2724 -0.1417 -0.2158
  967loPI   C3A14797  14.141  14.540   7.506 -0.0695 -0.0709  0.2136
  967loPI   C4A14798  14.211  14.611   7.899 -0.1260  0.1430  0.0768
  967loPI   C5A14799  14.182  14.816   8.274 -0.0428 -0.4406 -0.1225
  967loPI   C6A14800  14.283  14.902   8.766  0.1805 -0.1098 -0.0170
  967loPI   C1B14801  14.613  14.285   6.960 -0.0068  0.0081  0.0493
  967loPI   C2B14802  14.629  14.279   7.366 -0.1594 -0.1654 -0.3612
  967loPI   C3B14803  14.631  14.298   7.806  0.0490  0.0141  0.4115
  967loPI   C4B14804  14.713  14.443   8.255 -0.0115 -0.1732 -0.2242
  968loPI    C114805  12.409  16.986   5.706  0.0037 -0.1360  0.0197
  968loPI    C214806  12.202  17.309   5.819  0.1012 -0.1209  0.1574
  968loPI    C314807  12.332  17.276   5.442 -0.0080 -0.0531  0.1134
  968loPI   PO414808  12.329  16.820   5.965  0.1753 -0.3664  0.0804
  968loPI   GL114809  12.441  16.783   6.345 -0.0080  0.0252  0.2390
  968loPI   GL214810  12.435  16.589   6.509 -0.0862 -0.1258  0.1288
  968loPI   C1A14811  12.699  16.965   6.727 -0.0065  0.0554  0.1527
  968loPI   C2A14812  12.783  16.798   7.071  0.5521  0.0901 -0.0620
  968loPI   C3A14813  12.816  16.785   7.549  0.0659  0.1994  0.2318
  968loPI   C4A14814  12.813  16.923   8.075 -0.0862  0.2141  0.1872
  968loPI   C5A14815  12.814  16.759   8.544  0.2022 -0.1988 -0.0314
  968loPI   C6A14816  12.617  17.042   8.881 -0.0398  0.4238 -0.0638
  968loPI   C1B14817  12.344  16.627   6.879  0.2915  0.0430 -0.0068
  968loPI   C2B14818  12.332  16.593   7.399  0.3480  0.3896 -0.0841
  968loPI   C3B14819  12.327  16.623   7.816  0.0934  0.0497 -0.2476
  968loPI   C4B14820  12.348  16.633   8.303 -0.2066 -0.0226  0.0312
  969loPI    C114821   7.070   8.077   5.692  0.1644 -0.2542  0.1486
  969loPI    C214822   7.031   7.752   5.462  0.0941 -0.2784  0.1944
  969loPI    C314823   6.716   7.989   5.529  0.1090 -0.2828  0.2824
  969loPI   PO414824   7.247   7.871   5.938 -0.0248 -0.2803 -0.2537
  969loPI   GL114825   7.196   7.771   6.358  0.1992 -0.1525 -0.0966
  969loPI   GL214826   7.319   7.508   6.457  0.1580 -0.1403 -0.3143
  969loPI   C1A14827   7.397   7.931   6.730  0.3538  0.1458 -0.2341
  969loPI   C2A14828   7.389   7.962   7.192  0.1242 -0.0738 -0.2829
  969loPI   C3A14829   7.311   7.907   7.542 -0.1661 -0.2316  0.0595
  969loPI   C4A14830   7.378   7.923   7.944  0.0392 -0.0902 -0.2763
  969loPI   C5A14831   7.500   7.995   8.388 -0.0776  0.2396  0.1733
  969loPI   C6A14832   7.805   8.294   8.678 -0.0396  0.0956  0.0815
  969loPI   C1B14833   7.423   7.399   6.861  0.1136 -0.1846  0.1552
  969loPI   C2B14834   7.450   7.353   7.368  0.3473  0.0559 -0.1491
  969loPI   C3B14835   7.348   7.363   7.775  0.2853  0.1441  0.0601
  969loPI   C4B14836   7.405   7.489   8.250 -0.0042  0.0740 -0.2181
  970loPI    C114837  11.991  10.129   5.827  0.0967  0.2386  0.0251
  970loPI    C214838  12.123   9.756   5.769 -0.0758  0.1580  0.1418
  970loPI    C314839  12.274  10.058   5.554 -0.1584 -0.0229 -0.1777
  970loPI   PO414840  12.008  10.116   6.117 -0.0919  0.3019  0.2113
  970loPI   GL114841  11.924   9.898   6.461  0.0432 -0.0187 -0.0332
  970loPI   GL214842  12.195   9.809   6.633  0.0716  0.0553  0.0804
  970loPI   C1A14843  11.857  10.065   6.888 -0.2265  0.0411  0.2737
  970loPI   C2A14844  11.834  10.108   7.249  0.0950 -0.0918 -0.1373
  970loPI   C3A14845  11.837  10.084   7.694 -0.2631 -0.0260 -0.0969
  970loPI   C4A14846  11.900  10.076   8.065  0.1814  0.0644 -0.2193
  970loPI   C5A14847  11.695   9.869   8.503 -0.0679  0.2536 -0.0328
  970loPI   C6A14848  11.678   9.371   8.642  0.1291 -0.1391 -0.1039
  970loPI   C1B14849  12.229   9.811   7.140  0.0485  0.0905  0.2494
  970loPI   C2B14850  12.357   9.785   7.562 -0.0762  0.2976 -0.2519
  970loPI   C3B14851  12.332   9.821   7.951  0.0383 -0.0010 -0.1780
  970loPI   C4B14852  12.406  10.015   8.384  0.1839  0.0452 -0.0000
  971loPI    C114853   5.362   5.277   6.275 -0.3115 -0.2759  0.2872
  971loPI    C214854   5.319   5.116   5.911 -0.1644 -0.0348  0.1611
  971loPI    C314855   5.027   5.341   6.066 -0.0416  0.2435 -0.0042
  971loPI   PO414856   5.365   5.061   6.510  0.0676 -0.2171 -0.0048
  971loPI   GL114857   5.183   4.773   6.711 -0.1332 -0.2564  0.2458
  971loPI   GL214858   5.136   4.512   6.795 -0.1477  0.1093 -0.1090
  971loPI   C1A14859   5.219   4.933   7.082 -0.0396  0.2456 -0.1377
  971loPI   C2A14860   5.143   4.935   7.500  0.1402  0.1482  0.0694
  971loPI   C3A14861   5.200   4.917   7.895  0.2752 -0.0500 -0.0411
  971loPI   C4A14862   5.180   4.995   8.361 -0.1727  0.2069  0.0421
  971loPI   C5A14863   5.244   5.029   8.711  0.1406 -0.0860  0.0308
  971loPI   C6A14864   5.182   5.498   9.030 -0.0571 -0.3838 -0.0843
  971loPI   C1B14865   5.172   4.306   7.195 -0.0221  0.0016  0.0600
  971loPI   C2B14866   5.112   4.375   7.629  0.1790  0.0753 -0.2557
  971loPI   C3B14867   5.275   4.390   7.982 -0.1688 -0.3488  0.0989
  971loPI   C4B14868   5.244   4.503   8.422  0.2441 -0.0059  0.0979
  972loPI    C114869  11.546  15.851   5.991  0.0355 -0.0691 -0.0888
  972loPI    C214870  11.565  16.213   6.159 -0.0414 -0.1358  0.0663
  972loPI    C314871  11.595  16.175   5.762 -0.1027  0.0465  0.0432
  972loPI   PO414872  11.403  15.757   6.131 -0.1945  0.0976 -0.2324
  972loPI   GL114873  11.335  15.518   6.443 -0.1236  0.1948 -0.1145
  972loPI   GL214874  11.069  15.352   6.367 -0.1468  0.1236  0.3603
  972loPI   C1A14875  11.491  15.609   6.895  0.0124 -0.1542  0.2702
  972loPI   C2A14876  11.490  15.588   7.306 -0.0883 -0.1482  0.0171
  972loPI   C3A14877  11.445  15.627   7.767  0.1439  0.1122  0.0590
  972loPI   C4A14878  11.485  15.580   8.208 -0.0489 -0.0764 -0.1139
  972loPI   C5A14879  11.237  15.348   8.629 -0.0267  0.1509  0.0902
  972loPI   C6A14880  11.088  15.162   8.987  0.1268  0.3980  0.0541
  972loPI   C1B14881  10.990  15.266   6.765 -0.3668 -0.0466  0.4447
  972loPI   C2B14882  11.051  15.348   7.115 -0.0637  0.1598 -0.2839
  972loPI   C3B14883  11.047  15.348   7.548 -0.1403 -0.1507  0.0879
  972loPI   C4B14884  11.104  15.360   8.027 -0.0461 -0.0050 -0.0887
  973loPI    C114885   0.917   2.871   5.337 -0.0502  0.1381  0.2153
  973loPI    C214886   0.620   2.956   5.083 -0.0364  0.1333  0.1976
  973loPI    C314887   1.001   3.013   4.973 -0.0231 -0.0419  0.1506
  973loPI   PO414888   0.783   2.928   5.564  0.4473  0.1601 -0.0231
  973loPI   GL114889   0.787   2.989   6.064  0.0555 -0.0275  0.2198
  973loPI   GL214890   0.732   2.785   6.286 -0.2060  0.1014 -0.0608
  973loPI   C1A14891   0.854   3.230   6.431  0.0549  0.2482 -0.2448
  973loPI   C2A14892   0.713   3.206   6.929  0.1926 -0.0934  0.2444
  973loPI   C3A14893   0.819   3.298   7.399  0.5073 -0.2833 -0.1156
  973loPI   C4A14894   0.761   3.254   7.822  0.0021  0.4760  0.3646
  973loPI   C5A14895   0.760   3.435   8.240 -0.1252  0.1946  0.0232
  973loPI   C6A14896   0.556   3.528   8.582 -0.0120 -0.2138  0.0592
  973loPI   C1B14897   0.764   2.686   6.732 -0.0246 -0.0951 -0.1583
  973loPI   C2B14898   0.785   2.711   7.188 -0.3153 -0.2441 -0.1910
  973loPI   C3B14899   0.755   2.753   7.589  0.0383  0.1966  0.0845
  973loPI   C4B14900   0.766   2.661   8.067 -0.0672 -0.0688  0.0047
  974loPI    C114901  11.829  15.412   5.651 -0.2635  0.0970 -0.1139
  974loPI    C214902  11.490  15.607   5.567 -0.2390  0.0456 -0.3391
  974loPI    C314903  11.499  15.207   5.553 -0.2505  0.0313 -0.0222
  974loPI   PO414904  11.945  15.482   5.832  0.1496  0.1702  0.0213
  974loPI   GL114905  11.908  15.599   6.279 -0.1382 -0.0254 -0.0729
  974loPI   GL214906  11.926  15.354   6.417 -0.1005  0.1310  0.0054
  974loPI   C1A14907  11.868  15.809   6.661 -0.1624  0.0479 -0.0406
  974loPI   C2A14908  11.910  15.795   7.147  0.0843  0.0338  0.2283
  974loPI   C3A14909  11.873  15.900   7.553 -0.2678 -0.1386 -0.0036
  974loPI   C4A14910  11.928  15.814   7.959 -0.1882 -0.2310  0.2133
  974loPI   C5A14911  11.870  15.795   8.399 -0.1143  0.0444  0.0939
  974loPI   C6A14912  12.258  15.727   8.621 -0.1454 -0.0429 -0.0430
  974loPI   C1B14913  11.903  15.241   6.823  0.1051 -0.2036  0.1220
  974loPI   C2B14914  11.899  15.264   7.204 -0.1494  0.0842 -0.1082
  974loPI   C3B14915  11.929  15.298   7.626 -0.2530 -0.1261  0.2661
  974loPI   C4B14916  11.934  15.347   8.016  0.0709 -0.2937 -0.0749
  975loPI    C114917   4.876   8.946   5.618 -0.1789  0.0193 -0.1629
  975loPI    C214918   5.156   8.678   5.521  0.0628  0.2873 -0.2195
  975loPI    C314919   5.180   9.052   5.380 -0.3506  0.3019 -0.2619
  975loPI   PO414920   4.868   8.869   5.932 -0.0490 -0.0609 -0.0368
  975loPI   GL114921   4.907   9.117   6.336 -0.3077  0.2644  0.5089
  975loPI   GL214922   5.168   8.902   6.333 -0.0552  0.1424  0.0379
  975loPI   C1A14923   5.019   9.045   6.817  0.1132 -0.2088  0.1444
  975loPI   C2A14924   5.050   9.025   7.241 -0.1680 -0.1421 -0.0348
  975loPI   C3A14925   5.031   9.064   7.627 -0.2670 -0.3456  0.2451
  975loPI   C4A14926   5.028   9.176   8.066 -0.0816  0.1309  0.2373
  975loPI   C5A14927   5.224   9.014   8.439 -0.2301 -0.2508  0.3440
  975loPI   C6A14928   5.171   8.878   8.885 -0.0173  0.1087  0.2014
  975loPI   C1B14929   5.424   8.863   6.715 -0.0105  0.1027  0.0667
  975loPI   C2B14930   5.550   8.861   7.112 -0.1282 -0.0118  0.3407
  975loPI   C3B14931   5.464   8.822   7.548  0.2539 -0.1605 -0.1607
  975loPI   C4B14932   5.493   8.885   8.024 -0.0552  0.2167 -0.2399
  976loPI    C114933  10.656   2.333   5.935 -0.0624 -0.1952  0.1789
  976loPI    C214934  10.864   2.262   5.601 -0.2209  0.1851 -0.0062
  976loPI    C314935  10.465   2.232   5.598 -0.2142  0.0612  0.1856
  976loPI   PO414936  10.788   2.560   6.063 -0.2858 -0.0432 -0.1584
  976loPI   GL114937  10.796   2.776   6.449  0.0832 -0.0411  0.2351
  976loPI   GL214938  11.221   2.702   6.284  0.0853 -0.0077 -0.1547
  976loPI   C1A14939  10.977   2.749   6.747 -0.2185 -0.2785 -0.1121
  976loPI   C2A14940  11.034   2.769   7.142  0.0216 -0.0147  0.2244
  976loPI   C3A14941  11.091   2.752   7.486 -0.0061 -0.0719  0.1524
  976loPI   C4A14942  11.008   2.781   7.934  0.0442  0.1150  0.1338
  976loPI   C5A14943  10.998   2.817   8.457 -0.0374  0.0877 -0.2337
  976loPI   C6A14944  10.798   2.802   8.912  0.2552  0.1071 -0.0690
  976loPI   C1B14945  11.443   2.493   6.591  0.0850 -0.1948 -0.1556
  976loPI   C2B14946  11.499   2.437   7.035 -0.3643  0.2157  0.2905
  976loPI   C3B14947  11.504   2.470   7.459  0.0252  0.0600  0.0493
  976loPI   C4B14948  11.460   2.512   7.899  0.2761 -0.0847 -0.0093
  977loPI    C114949  13.888  13.025   6.060  0.1253  0.1713 -0.1252
  977loPI    C214950  13.617  13.075   5.771  0.0146  0.0770 -0.0389
  977loPI    C314951  13.991  12.968   5.678 -0.0816 -0.1849 -0.1313
  977loPI   PO414952  13.745  13.041   6.282 -0.0197 -0.1626 -0.2274
  977loPI   GL114953  13.805  13.083   6.626  0.1630  0.1280  0.0446
  977loPI   GL214954  14.108  12.918   6.670  0.1546 -0.2141 -0.2818
  977loPI   C1A14955  13.726  13.224   7.033 -0.0686  0.2853 -0.0007
  977loPI   C2A14956  13.800  13.303   7.444  0.1801 -0.3016 -0.3668
  977loPI   C3A14957  13.751  13.273   7.894 -0.1944  0.1231 -0.2513
  977loPI   C4A14958  13.848  13.299   8.219  0.1071  0.3098  0.0313
  977loPI   C5A14959  14.044  13.233   8.541 -0.1860  0.3326 -0.1748
  977loPI   C6A14960  14.307  12.942   8.749 -0.0190  0.1309  0.1596
  977loPI   C1B14961  14.165  12.992   7.045 -0.0072  0.4143 -0.1206
  977loPI   C2B14962  14.227  12.995   7.441 -0.1100  0.0278 -0.0316
  977loPI   C3B14963  14.221  13.069   7.849  0.2516 -0.0575 -0.1554
  977loPI   C4B14964  14.394  13.007   8.251 -0.1731  0.1002  0.0285
  978loPI    C114965   7.913  14.977   5.975  0.1420  0.0807 -0.0890
  978loPI    C214966   8.052  15.252   5.722 -0.0998  0.0331 -0.2780
  978loPI    C314967   8.020  14.871   5.605 -0.0044 -0.0304 -0.1010
  978loPI   PO414968   8.109  14.913   6.125  0.3119 -0.0558 -0.4220
  978loPI   GL114969   8.319  14.736   6.409  0.5370  0.0968  0.2312
  978loPI   GL214970   7.948  14.511   6.445  0.1642  0.3632  0.2237
  978loPI   C1A14971   8.486  14.846   6.745  0.0256 -0.0776 -0.1500
  978loPI   C2A14972   8.429  14.765   7.151  0.0633 -0.0248  0.0186
  978loPI   C3A14973   8.455  14.850   7.528  0.1107 -0.4372  0.0110
  978loPI   C4A14974   8.433  14.798   7.938  0.1609  0.0634 -0.2241
  978loPI   C5A14975   8.494  14.710   8.470 -0.0808 -0.1897 -0.0301
  978loPI   C6A14976   8.157  14.445   8.690  0.5532 -0.2162  0.0040
  978loPI   C1B14977   7.913  14.531   6.909 -0.1705  0.1113  0.0797
  978loPI   C2B14978   7.894  14.594   7.365 -0.1197  0.2373  0.1959
  978loPI   C3B14979   7.960  14.574   7.775  0.0521  0.2091  0.1130
  978loPI   C4B14980   8.072  14.599   8.186 -0.1774  0.2100 -0.0312
  979loPI    C114981  13.410  14.927   5.914 -0.0698  0.0047  0.1509
  979loPI    C214982  13.407  14.956   5.515  0.0241 -0.0555  0.1457
  979loPI    C314983  13.369  15.285   5.739 -0.2162 -0.0422  0.0876
  979loPI   PO414984  13.655  14.775   5.982 -0.1642 -0.1252  0.1372
  979loPI   GL114985  13.831  14.884   6.329 -0.1797  0.0843 -0.0704
  979loPI   GL214986  14.138  15.034   6.301  0.1000 -0.2893  0.0920
  979loPI   C1A14987  13.698  14.854   6.651 -0.2404 -0.1660 -0.0495
  979loPI   C2A14988  13.706  14.855   7.145  0.3430  0.2037 -0.2763
  979loPI   C3A14989  13.780  14.859   7.631 -0.2353  0.0154  0.0481
  979loPI   C4A14990  13.758  14.840   7.991  0.1964 -0.3948 -0.0965
  979loPI   C5A14991  13.498  14.778   8.354  0.1120  0.1351 -0.3886
  979loPI   C6A14992  13.361  14.740   8.730 -0.1232 -0.1601  0.2534
  979loPI   C1B14993  14.218  15.120   6.712 -0.1815 -0.1695  0.5202
  979loPI   C2B14994  14.104  15.074   7.008  0.2276 -0.1956  0.1370
  979loPI   C3B14995  14.144  15.065   7.365  0.0657 -0.2672 -0.2333
  979loPI   C4B14996  14.237  15.092   7.753 -0.1557 -0.3530  0.2059
  980loPI    C114997   8.473   2.434   5.667 -0.0558 -0.0133 -0.1858
  980loPI    C214998   8.791   2.415   5.424 -0.0726  0.0518 -0.2128
  980loPI    C314999   8.495   2.674   5.348 -0.0438  0.1242 -0.0822
  980loPI   PO415000   8.588   2.394   5.899  0.0321  0.0837  0.0039
  980loPI   GL115001   8.799   2.305   6.274  0.0696 -0.1805 -0.0399
  980loPI   GL215002   8.916   2.061   6.330  0.1633  0.1415 -0.0874
  980loPI   C1A15003   8.724   2.424   6.721 -0.1663 -0.0324 -0.3926
  980loPI   C2A15004   8.802   2.352   7.143  0.3577  0.0596  0.2007
  980loPI   C3A15005   8.758   2.443   7.576 -0.1283  0.0466  0.1969
  980loPI   C4A15006   8.776   2.501   8.067 -0.1025 -0.1512  0.0752
  980loPI   C5A15007   8.720   2.518   8.612 -0.1097  0.1959  0.2007
  980loPI   C6A15008   8.476   2.867   8.885  0.0199 -0.1258 -0.2148
  980loPI   C1B15009   9.164   2.174   6.613  0.0415 -0.0309  0.0022
  980loPI   C2B15010   9.231   2.148   6.976 -0.0942 -0.1242  0.1806
  980loPI   C3B15011   9.156   2.224   7.447  0.0265 -0.0276 -0.3011
  980loPI   C4B15012   9.262   2.313   7.842 -0.1224  0.0346 -0.0897
  981loPI    C115013   9.331   9.498   5.974 -0.0474  0.0232  0.1113
  981loPI    C215014   9.133   9.666   5.670  0.0153 -0.0056  0.0541
  981loPI    C315015   9.359   9.342   5.606  0.0352 -0.0067  0.1299
  981loPI   PO415016   9.163   9.541   6.190 -0.0481  0.1129  0.1229
  981loPI   GL115017   9.202   9.522   6.615 -0.1049 -0.0837 -0.0461
  981loPI   GL215018   9.433   9.723   6.590  0.2905  0.1173 -0.1088
  981loPI   C1A15019   9.184   9.527   7.022  0.2576 -0.2057 -0.2758
  981loPI   C2A15020   9.225   9.584   7.441 -0.3653 -0.0252  0.0817
  981loPI   C3A15021   9.260   9.595   7.862 -0.0010 -0.0078 -0.1676
  981loPI   C4A15022   9.173   9.646   8.288  0.0930  0.1159 -0.0103
  981loPI   C5A15023   9.427   9.864   8.606  0.0620  0.2248 -0.0380
  981loPI   C6A15024   9.402  10.113   9.003  0.0778 -0.1148  0.0259
  981loPI   C1B15025   9.619   9.789   6.966 -0.0614  0.2249 -0.0203
  981loPI   C2B15026   9.624   9.887   7.332  0.1135  0.0086 -0.1017
  981loPI   C3B15027   9.685   9.839   7.806 -0.0481  0.0135  0.0230
  981loPI   C4B15028   9.698   9.827   8.176  0.2249  0.1527  0.1731
  982loPI    C115029   4.961   2.723   6.161 -0.1490 -0.0347  0.1138
  982loPI    C215030   5.010   2.412   5.914 -0.2244  0.1263 -0.1065
  982loPI    C315031   4.962   2.781   5.766 -0.0306  0.2605  0.1542
  982loPI   PO415032   4.986   2.536   6.450  0.0593  0.1632  0.0353
  982loPI   GL115033   4.754   2.371   6.769  0.1665 -0.0065  0.0985
  982loPI   GL215034   4.468   2.207   6.743  0.0310 -0.1066 -0.0147
  982loPI   C1A15035   4.837   2.483   7.138  0.1877 -0.1175 -0.1531
  982loPI   C2A15036   4.839   2.505   7.537 -0.1813 -0.1037  0.0837
  982loPI   C3A15037   4.839   2.597   7.944 -0.2363 -0.0483  0.1710
  982loPI   C4A15038   4.719   2.691   8.344 -0.3889 -0.0996 -0.0290
  982loPI   C5A15039   4.866   2.799   8.756 -0.4794  0.3086 -0.0262
  982loPI   C6A15040   5.179   2.959   9.126  0.0747  0.1706  0.1546
  982loPI   C1B15041   4.587   1.894   7.067 -0.1179  0.0936 -0.3145
  982loPI   C2B15042   4.645   2.002   7.491 -0.2228  0.0499 -0.2138
  982loPI   C3B15043   4.926   2.103   7.865 -0.2258  0.0819 -0.1902
  982loPI   C4B15044   5.243   1.757   8.020  0.5292 -0.1613 -0.1163
  983loPI    C115045   7.144   4.151   6.084 -0.0347 -0.2211  0.0169
  983loPI    C215046   6.855   3.887   6.168 -0.1067 -0.1497 -0.0056
  983loPI    C315047   7.082   3.838   5.842 -0.3099 -0.0284 -0.1683
  983loPI   PO415048   7.169   4.211   6.350 -0.0568 -0.1395  0.3905
  983loPI   GL115049   6.907   4.067   6.764  0.1436  0.0204  0.2890
  983loPI   GL215050   6.957   3.776   6.652 -0.0643 -0.2235  0.2211
  983loPI   C1A15051   6.943   3.968   7.212 -0.0056 -0.3948 -0.0572
  983loPI   C2A15052   7.027   3.958   7.629  0.0817 -0.1106  0.0151
  983loPI   C3A15053   6.901   4.051   8.072 -0.0463  0.2814  0.3377
  983loPI   C4A15054   7.017   4.134   8.455 -0.0461  0.0485  0.1726
  983loPI   C5A15055   7.145   4.223   8.849  0.1260  0.0652 -0.1834
  983loPI   C6A15056   7.516   4.546   8.995  0.0072  0.1111 -0.1846
  983loPI   C1B15057   6.939   3.494   6.981 -0.2393  0.2103 -0.1448
  983loPI   C2B15058   7.016   3.422   7.396 -0.0237 -0.3350  0.2269
  983loPI   C3B15059   7.064   3.464   7.792 -0.1864 -0.1075  0.0267
  983loPI   C4B15060   7.050   3.563   8.186 -0.1256 -0.0869  0.1430
  984loPI    C115061  14.131   4.918   5.705  0.1220 -0.1063  0.0678
  984loPI    C215062  13.947   4.603   5.540  0.1364 -0.1584  0.1507
  984loPI    C315063  14.318   4.699   5.427  0.0596 -0.0541 -0.0159
  984loPI   PO415064  14.096   4.833   5.943 -0.0667  0.2417 -0.1882
  984loPI   GL115065  14.101   5.003   6.373  0.0308  0.2483  0.0296
  984loPI   GL215066  13.971   4.679   6.484  0.0851 -0.0339 -0.0188
  984loPI   C1A15067  13.947   5.091   6.716  0.0404 -0.1001  0.0258
  984loPI   C2A15068  14.034   5.121   7.069  0.1336 -0.1319  0.1647
  984loPI   C3A15069  14.011   5.053   7.444 -0.0471  0.0038  0.2533
  984loPI   C4A15070  14.048   5.136   7.909  0.1488 -0.1334  0.1437
  984loPI   C5A15071  14.123   5.142   8.356 -0.0546  0.1128 -0.0782
  984loPI   C6A15072  14.162   5.215   8.769  0.2602  0.1338  0.2391
  984loPI   C1B15073  13.987   4.631   6.885  0.1851  0.0467  0.2855
  984loPI   C2B15074  14.050   4.505   7.293  0.2147 -0.0342  0.1604
  984loPI   C3B15075  14.063   4.574   7.769 -0.1247 -0.0184 -0.0734
  984loPI   C4B15076  14.079   4.583   8.139  0.1521  0.2223  0.3925
  985loPI    C115077   7.677   3.282   5.885  0.3065  0.0395  0.0289
  985loPI    C215078   7.624   3.655   5.752 -0.0736 -0.0327 -0.0316
  985loPI    C315079   7.704   3.361   5.494 -0.0235 -0.0363 -0.0120
  985loPI   PO415080   7.850   3.290   6.121 -0.1188 -0.1496  0.0304
  985loPI   GL115081   7.678   3.376   6.502  0.0774  0.1982 -0.0860
  985loPI   GL215082   7.351   3.261   6.725 -0.2278 -0.0321  0.1550
  985loPI   C1A15083   7.840   3.425   6.902 -0.1566  0.2981 -0.1596
  985loPI   C2A15084   7.896   3.519   7.280 -0.0100 -0.4520 -0.0881
  985loPI   C3A15085   7.898   3.505   7.760  0.1958 -0.1094  0.1365
  985loPI   C4A15086   7.843   3.580   8.230 -0.0767 -0.1346  0.0347
  985loPI   C5A15087   7.884   3.543   8.582 -0.0782  0.1749  0.1185
  985loPI   C6A15088   7.689   3.422   8.885 -0.1324 -0.0227  0.0908
  985loPI   C1B15089   7.428   3.158   7.166  0.1694 -0.0553 -0.2184
  985loPI   C2B15090   7.459   3.162   7.564  0.4490 -0.2215 -0.0507
  985loPI   C3B15091   7.493   3.263   7.956  0.1856 -0.2026  0.0989
  985loPI   C4B15092   7.487   3.309   8.428 -0.0651  0.1187  0.1382
  986loPI    C115093  11.108   0.131   5.931 -0.0256  0.0620 -0.0775
  986loPI    C215094  11.008   0.004   5.565 -0.1164 -0.1189  0.0084
  986loPI    C315095  11.014   0.396   5.647 -0.1276 -0.0791 -0.1767
  986loPI   PO415096  10.949   0.037   6.112 -0.0663  0.2924 -0.1563
  986loPI   GL115097  10.991   0.106   6.498 -0.2208  0.2074  0.1679
  986loPI   GL215098  10.977   0.407   6.580 -0.0800  0.0770 -0.1442
  986loPI   C1A15099  11.046   0.032   6.900  0.1469 -0.0146 -0.0654
  986loPI   C2A15100  11.038   0.130   7.384 -0.1981  0.0614 -0.2441
  986loPI   C3A15101  11.017   0.158   7.762  0.0765  0.1928 -0.0509
  986loPI   C4A15102  11.120   0.087   8.147  0.0441  0.2377  0.0902
  986loPI   C5A15103  10.927   0.092   8.553 -0.1375 -0.1861 -0.2212
  986loPI   C6A15104  10.813   0.315   8.944  0.3660 -0.1143 -0.1312
  986loPI   C1B15105  11.037   0.516   7.004 -0.1932  0.1962 -0.0486
  986loPI   C2B15106  11.033   0.688   7.444 -0.1285 -0.1237 -0.0425
  986loPI   C3B15107  11.002   0.677   7.858 -0.3590 -0.0140  0.0015
  986loPI   C4B15108  11.079   0.538   8.343  0.0623 -0.2214 -0.0759
  987loPI    C115109   6.489  17.270   6.093 -0.1382 -0.1071  0.1892
  987loPI    C215110   6.180  17.070   5.938 -0.0888 -0.1048  0.0867
  987loPI    C315111   6.481  17.185   5.702 -0.0718  0.0073  0.1626
  987loPI   PO415112   6.423  17.241   6.351 -0.1007 -0.1024  0.2723
  987loPI   GL115113   6.231  17.408   6.703  0.1064  0.0877 -0.1244
  987loPI   GL215114   6.533  17.528   6.755  0.0652 -0.0159 -0.0390
  987loPI   C1A15115   6.149  17.204   6.970  0.1130 -0.0720 -0.1154
  987loPI   C2A15116   6.273  17.155   7.388  0.1687 -0.0532  0.0194
  987loPI   C3A15117   6.183  17.051   7.770  0.1233 -0.0943 -0.2029
  987loPI   C4A15118   6.059  17.167   8.202  0.0950  0.1579 -0.1113
  987loPI   C5A15119   6.254  17.215   8.624  0.0256  0.1048  0.3043
  987loPI   C6A15120   6.114  17.277   9.036  0.2759  0.1344  0.1068
  987loPI   C1B15121   6.648  17.435   7.158  0.2380 -0.2695  0.0004
  987loPI   C2B15122   6.655  17.452   7.612 -0.2377 -0.3284 -0.0692
  987loPI   C3B15123   6.533  17.424   8.050 -0.1423 -0.0251  0.3392
  987loPI   C4B15124   6.563  17.551   8.457  0.1867 -0.0055 -0.1032
  988loPI    C115125  16.321   3.540   5.745  0.0565 -0.0778  0.0019
  988loPI    C215126  16.064   3.267   5.607  0.0294 -0.0543  0.0057
  988loPI    C315127  16.420   3.312   5.431 -0.0095 -0.0165 -0.0639
  988loPI   PO415128  16.324   3.527   6.043 -0.2268  0.0713  0.0170
  988loPI   GL115129  16.358   3.341   6.435 -0.0923  0.0884 -0.0324
  988loPI   GL215130  16.563   3.094   6.246  0.1202  0.5213 -0.1769
  988loPI   C1A15131  16.285   3.199   6.896 -0.0112  0.0476  0.2493
  988loPI   C2A15132  16.277   3.215   7.327  0.2489  0.0716  0.2042
  988loPI   C3A15133  16.370   3.276   7.718 -0.3329  0.0948 -0.2204
  988loPI   C4A15134  16.424   3.327   8.124  0.0034 -0.0277 -0.0491
  988loPI   C5A15135  16.493   3.493   8.485 -0.0037 -0.3588 -0.0930
  988loPI   C6A15136  16.299   3.790   8.653  0.1396 -0.0846  0.2413
  988loPI   C1B15137  16.680   3.018   6.640 -0.1970 -0.1156 -0.0183
  988loPI   C2B15138  16.693   2.923   7.114  0.2054  0.0725 -0.2444
  988loPI   C3B15139  16.838   3.007   7.539 -0.0903 -0.0314  0.1851
  988loPI   C4B15140  16.815   2.994   7.947 -0.3988 -0.0210  0.1132
  989loPI    C115141   7.829  13.518   5.717  0.3053 -0.0537  0.1158
  989loPI    C215142   8.085  13.614   5.425  0.1731 -0.2356 -0.0622
  989loPI    C315143   7.704  13.528   5.338  0.1212 -0.2481  0.1694
  989loPI   PO415144   7.886  13.335   5.875  0.2149 -0.2478 -0.0058
  989loPI   GL115145   7.624  13.084   6.212 -0.2909  0.1492  0.0683
  989loPI   GL215146   7.388  13.291   6.364  0.1717 -0.0643 -0.5094
  989loPI   C1A15147   7.930  13.002   6.613 -0.0557 -0.0385 -0.0037
  989loPI   C2A15148   7.962  13.110   7.059 -0.0232  0.1600 -0.2388
  989loPI   C3A15149   7.943  12.989   7.408 -0.0442 -0.0952  0.0317
  989loPI   C4A15150   7.979  12.978   7.859  0.2479  0.1693 -0.3529
  989loPI   C5A15151   7.918  12.899   8.282  0.0264 -0.0267 -0.4911
  989loPI   C6A15152   7.685  12.614   8.641 -0.3061 -0.1038  0.1732
  989loPI   C1B15153   7.562  13.254   6.843 -0.0443  0.0477 -0.3367
  989loPI   C2B15154   7.525  13.308   7.274  0.0710 -0.1893 -0.0140
  989loPI   C3B15155   7.541  13.244   7.734  0.3893  0.4269  0.0210
  989loPI   C4B15156   7.523  13.273   8.193  0.0317  0.0481  0.0368
  990loPI    C115157  13.604   1.492   5.616  0.2184 -0.0206 -0.2780
  990loPI    C215158  13.306   1.235   5.542  0.2171 -0.0674 -0.1150
  990loPI    C315159  13.622   1.250   5.298  0.0330  0.0587 -0.3504
  990loPI   PO415160  13.392   1.648   5.879 -0.2090  0.1744  0.0732
  990loPI   GL115161  13.373   1.751   6.319  0.2568  0.0717  0.1808
  990loPI   GL215162  13.165   1.894   6.393 -0.3232  0.2596 -0.0930
  990loPI   C1A15163  13.676   1.678   6.660 -0.0565 -0.0522 -0.1929
  990loPI   C2A15164  13.653   1.607   7.068 -0.4245 -0.0164  0.1824
  990loPI   C3A15165  13.676   1.629   7.533 -0.2189  0.3749 -0.0065
  990loPI   C4A15166  13.664   1.685   7.976  0.0528  0.2351 -0.0912
  990loPI   C5A15167  13.742   1.705   8.364  0.0004 -0.0080 -0.1198
  990loPI   C6A15168  13.528   1.737   8.731  0.0647  0.0901  0.2267
  990loPI   C1B15169  13.231   1.938   6.806  0.1697  0.0408  0.1869
  990loPI   C2B15170  13.231   1.857   7.292  0.2256 -0.0482 -0.0319
  990loPI   C3B15171  13.283   1.924   7.764 -0.1165  0.2659 -0.0058
  990loPI   C4B15172  13.293   2.018   8.236 -0.0536 -0.0915 -0.0395
  991loPI    C115173  12.384  10.964   5.876 -0.1021  0.0989  0.1916
  991loPI    C215174  12.199  11.294   5.746 -0.0727 -0.0557 -0.2615
  991loPI    C315175  12.431  11.084   5.497  0.3345 -0.1301  0.1669
  991loPI   PO415176  12.217  10.924   6.153  0.0663  0.2190 -0.2313
  991loPI   GL115177  12.085  10.949   6.547 -0.4039  0.0890 -0.3234
  991loPI   GL215178  12.319  11.232   6.750 -0.2295  0.2426 -0.0253
  991loPI   C1A15179  11.916  11.081   6.978  0.1308  0.0365  0.2171
  991loPI   C2A15180  11.852  11.145   7.478  0.2360 -0.0032 -0.1317
  991loPI   C3A15181  11.903  11.250   7.951 -0.0788 -0.0461 -0.0003
  991loPI   C4A15182  11.773  11.249   8.419  0.2009  0.2669  0.0023
  991loPI   C5A15183  11.791  11.113   8.869  0.0310  0.2093  0.3819
  991loPI   C6A15184  11.890  10.794   9.199 -0.0565 -0.1423  0.2204
  991loPI   C1B15185  12.356  11.385   7.185 -0.0415  0.0537  0.0526
  991loPI   C2B15186  12.267  11.415   7.595 -0.0592  0.0310 -0.0730
  991loPI   C3B15187  12.414  11.509   8.018  0.1803 -0.0287  0.1345
  991loPI   C4B15188  12.646  11.610   8.459  0.1303  0.0172 -0.0592
  992loPI    C115189  12.398  14.232   5.655  0.0052  0.1297  0.2275
  992loPI    C215190  12.252  14.490   5.386  0.2492 -0.0142 -0.0480
  992loPI    C315191  12.466  14.624   5.696 -0.2133  0.1720  0.2004
  992loPI   PO415192  12.124  14.059   5.751  0.3454 -0.2596  0.0783
  992loPI   GL115193  12.003  14.052   6.164 -0.0220 -0.1339 -0.0773
  992loPI   GL215194  12.109  13.756   6.189 -0.0124  0.2338  0.0725
  992loPI   C1A15195  11.977  14.152   6.542  0.0752  0.3538  0.1115
  992loPI   C2A15196  11.921  14.314   6.941  0.0456  0.2012  0.4147
  992loPI   C3A15197  11.867  14.302   7.399 -0.2982  0.3678  0.0308
  992loPI   C4A15198  11.857  14.253   7.828 -0.2137  0.0714 -0.0087
  992loPI   C5A15199  12.010  14.142   8.245 -0.1324  0.0012 -0.0572
  992loPI   C6A15200  12.315  14.255   8.565 -0.0509  0.4678  0.3102
  992loPI   C1B15201  11.965  13.687   6.622 -0.1943  0.0615 -0.0952
  992loPI   C2B15202  11.955  13.750   7.053  0.4013 -0.0478  0.3672
  992loPI   C3B15203  11.884  13.814   7.557 -0.4274  0.0394  0.2632
  992loPI   C4B15204  11.910  13.758   7.967 -0.1614  0.1115 -0.0310
  993loPI    C115205   9.841  12.794   5.751  0.0905 -0.0200  0.0811
  993loPI    C215206  10.144  12.604   5.574  0.0470  0.0256 -0.0435
  993loPI    C315207   9.871  12.794   5.352  0.0600  0.1874  0.0773
  993loPI   PO415208   9.748  12.639   5.921 -0.0373  0.1069 -0.1733
  993loPI   GL115209   9.590  12.642   6.340 -0.3374 -0.1561 -0.1640
  993loPI   GL215210   9.667  12.981   6.266 -0.0265 -0.0132  0.1584
  993loPI   C1A15211   9.678  12.402   6.791 -0.2541 -0.2007 -0.2745
  993loPI   C2A15212   9.697  12.480   7.289  0.4079  0.0263  0.0432
  993loPI   C3A15213   9.699  12.534   7.699  0.0551 -0.0407  0.1554
  993loPI   C4A15214   9.683  12.365   8.152  0.3949  0.2344 -0.2844
  993loPI   C5A15215   9.624  12.643   8.510  0.2250 -0.1784 -0.0865
  993loPI   C6A15216   9.673  12.729   8.915 -0.1047 -0.0758 -0.2354
  993loPI   C1B15217   9.709  12.978   6.777  0.0686  0.1429 -0.2710
  993loPI   C2B15218   9.580  12.999   7.162 -0.1981 -0.0390 -0.0629
  993loPI   C3B15219   9.670  13.081   7.588  0.1009  0.2737  0.0649
  993loPI   C4B15220   9.671  12.948   8.078  0.0590 -0.1142  0.4845
  994loPI    C115221   6.551   8.558   6.150  0.0546 -0.0917 -0.0375
  994loPI    C215222   6.469   8.515   5.761  0.0552 -0.2631 -0.0192
  994loPI    C315223   6.847   8.493   5.889  0.0689 -0.0770 -0.0250
  994loPI   PO415224   6.390   8.427   6.254  0.0527  0.0105 -0.0454
  994loPI   GL115225   6.269   8.086   6.522  0.1885 -0.0259 -0.2806
  994loPI   GL215226   5.920   8.031   6.707 -0.1398 -0.3191 -0.2643
  994loPI   C1A15227   6.374   7.866   6.830  0.1970 -0.1109  0.1048
  994loPI   C2A15228   6.438   7.918   7.319  0.2318 -0.0348  0.2001
  994loPI   C3A15229   6.477   7.944   7.726 -0.0186  0.2160 -0.2555
  994loPI   C4A15230   6.533   7.960   8.149  0.0768 -0.1353 -0.0726
  994loPI   C5A15231   6.570   7.921   8.599 -0.0328  0.0140 -0.0881
  994loPI   C6A15232   6.349   7.825   9.005  0.0316  0.0645  0.1352
  994loPI   C1B15233   6.023   8.132   7.167  0.0209  0.0496  0.4570
  994loPI   C2B15234   5.891   8.098   7.699 -0.3052 -0.0136 -0.2566
  994loPI   C3B15235   6.097   8.217   8.015 -0.1609  0.0903  0.0131
  994loPI   C4B15236   6.295   8.290   8.453  0.1156  0.1943  0.0504
  995loPI    C115237   8.118   5.268   6.084  0.0881  0.1553  0.1601
  995loPI    C215238   8.450   5.224   5.865  0.0557 -0.1448  0.1670
  995loPI    C315239   8.203   5.532   5.796  0.2683  0.0074  0.0761
  995loPI   PO415240   8.154   5.170   6.365 -0.2097  0.1761 -0.0216
  995loPI   GL115241   8.100   4.934   6.747 -0.4160  0.0655 -0.1374
  995loPI   GL215242   7.976   4.584   6.719  0.0920  0.1361  0.0425
  995loPI   C1A15243   7.929   4.995   7.219  0.1271 -0.2905  0.0771
  995loPI   C2A15244   7.854   5.020   7.596  0.0279  0.0734 -0.0063
  995loPI   C3A15245   7.906   5.001   7.918 -0.1027  0.1304  0.1948
  995loPI   C4A15246   7.879   5.071   8.335 -0.0750 -0.1282  0.1240
  995loPI   C5A15247   8.111   5.160   8.634 -0.2621 -0.2961  0.1819
  995loPI   C6A15248   8.202   5.250   9.042  0.0749  0.1084 -0.0898
  995loPI   C1B15249   7.894   4.505   7.185  0.0679 -0.0775 -0.1074
  995loPI   C2B15250   7.835   4.481   7.675  0.0291  0.0549 -0.0471
  995loPI   C3B15251   7.919   4.567   8.090  0.2449 -0.0020  0.1558
  995loPI   C4B15252   8.006   4.643   8.467  0.0545  0.2308 -0.1555
  996loPI    C115253  15.597   0.850   5.493  0.0182 -0.2878 -0.0158
  996loPI    C215254  15.266   0.880   5.270 -0.0145 -0.0296  0.0630
  996loPI    C315255  15.599   0.722   5.115 -0.0923 -0.0294 -0.1065
  996loPI   PO415256  15.432   0.848   5.724 -0.0606 -0.3530  0.1727
  996loPI   GL115257  15.499   0.906   6.148  0.2934 -0.0787 -0.2101
  996loPI   GL215258  15.259   0.845   6.338  0.0598  0.0415  0.2426
  996loPI   C1A15259  15.797   0.941   6.529 -0.0046 -0.1985 -0.1717
  996loPI   C2A15260  15.958   0.935   6.945  0.1629  0.0329  0.0055
  996loPI   C3A15261  15.875   0.925   7.392 -0.0538 -0.1240  0.1285
  996loPI   C4A15262  15.854   0.942   7.775  0.0239 -0.0884 -0.1535
  996loPI   C5A15263  15.877   0.913   8.197 -0.0352  0.1243 -0.2844
  996loPI   C6A15264  15.624   1.046   8.535 -0.1375 -0.2546  0.3420
  996loPI   C1B15265  14.974   0.918   6.720 -0.3593  0.3124 -0.0965
  996loPI   C2B15266  15.017   0.917   7.059 -0.4903  0.2032 -0.0563
  996loPI   C3B15267  15.005   0.854   7.503  0.1277 -0.1957  0.1794
  996loPI   C4B15268  15.020   0.953   7.981 -0.0554  0.2480  0.0107
  997loPI    C115269  16.875   4.295   5.670 -0.1845 -0.1110 -0.0586
  997loPI    C215270  17.009   4.529   5.374  0.1639  0.0185  0.1944
  997loPI    C315271  17.060   4.132   5.355 -0.1682 -0.0151 -0.0989
  997loPI   PO415272  16.972   4.362   5.868 -0.0021 -0.0196  0.0138
  997loPI   GL115273  16.913   4.362   6.315  0.1108  0.0906  0.2896
  997loPI   GL215274  16.838   4.102   6.332  0.0107  0.1349 -0.0591
  997loPI   C1A15275  17.221   4.246   6.592 -0.0462 -0.1031  0.0216
  997loPI   C2A15276  17.225   4.175   6.984  0.0136 -0.0657 -0.0750
  997loPI   C3A15277  17.297   4.203   7.473  0.3445 -0.1543  0.1640
  997loPI   C4A15278  17.261   4.278   7.863  0.0061  0.0651 -0.3349
  997loPI   C5A15279  17.098   4.254   8.348  0.2372 -0.1442  0.1407
  997loPI   C6A15280  17.242   4.078   8.721 -0.2501 -0.2051 -0.3032
  997loPI   C1B15281  16.806   3.990   6.741 -0.0862  0.0394 -0.3578
  997loPI   C2B15282  16.800   3.936   7.160 -0.0071  0.1798  0.1125
  997loPI   C3B15283  16.873   4.006   7.475  0.3425  0.1433 -0.1249
  997loPI   C4B15284  16.765   4.030   7.866 -0.0253  0.0273 -0.0435
  998loPI    C115285   1.512   6.019   5.969 -0.2669 -0.0207 -0.1389
  998loPI    C215286   1.692   6.124   5.628  0.1030 -0.2732 -0.0279
  998loPI    C315287   1.409   5.842   5.626  0.0624 -0.2323 -0.1327
  998loPI   PO415288   1.719   6.105   6.145  0.0156  0.2460 -0.0462
  998loPI   GL115289   1.769   5.914   6.470  0.3787 -0.1637 -0.0035
  998loPI   GL215290   1.626   5.698   6.517 -0.0549  0.3819  0.1875
  998loPI   C1A15291   1.963   6.056   6.934  0.0744 -0.0204  0.1918
  998loPI   C2A15292   2.009   6.114   7.264  0.0617  0.2408 -0.0748
  998loPI   C3A15293   1.971   6.252   7.603  0.1042 -0.0454  0.0893
  998loPI   C4A15294   2.041   6.201   8.062  0.1431  0.1738  0.0931
  998loPI   C5A15295   1.919   6.254   8.470 -0.0097 -0.1107  0.1305
  998loPI   C6A15296   2.014   6.076   8.804 -0.1980  0.1711  0.1095
  998loPI   C1B15297   1.515   5.812   6.882 -0.3172  0.2248  0.1225
  998loPI   C2B15298   1.553   5.832   7.271 -0.0202  0.0692 -0.1910
  998loPI   C3B15299   1.599   5.930   7.707  0.0309 -0.2688  0.0165
  998loPI   C4B15300   1.595   6.001   8.145  0.0133  0.2568 -0.2013
  999loPI    C115301  11.134  16.142   5.941 -0.0821 -0.1150  0.0517
  999loPI    C215302  11.130  16.368   5.611 -0.0402 -0.2317 -0.0292
  999loPI    C315303  11.177  15.972   5.582 -0.2512 -0.2679  0.1024
  999loPI   PO415304  11.055  16.328   6.070 -0.1064  0.1445 -0.1131
  999loPI   GL115305  11.046  16.499   6.521 -0.2953 -0.1300  0.2932
  999loPI   GL215306  11.067  16.835   6.695  0.0656  0.0617 -0.0201
  999loPI   C1A15307  11.103  16.294   6.854 -0.1872 -0.2171  0.0629
  999loPI   C2A15308  11.020  16.391   7.284 -0.1300 -0.2219 -0.0169
  999loPI   C3A15309  11.060  16.514   7.723  0.2288  0.0939  0.4182
  999loPI   C4A15310  11.119  16.409   8.116  0.3681  0.1578  0.2008
  999loPI   C5A15311  10.917  16.246   8.411  0.1037  0.0034  0.1362
  999loPI   C6A15312  10.467  16.126   8.642  0.2752 -0.5422 -0.2699
  999loPI   C1B15313  11.055  16.876   7.051 -0.2059  0.1419  0.0406
  999loPI   C2B15314  11.025  16.927   7.475  0.1437 -0.1677  0.1357
  999loPI   C3B15315  11.051  17.009   7.913  0.0828 -0.0340 -0.2696
  999loPI   C4B15316  11.177  16.916   8.282 -0.0318  0.2393  0.1958
 1000loPI    C115317  15.478  10.828   6.093  0.0733  0.0960 -0.1196
 1000loPI    C215318  15.839  10.805   5.923  0.0818  0.2806 -0.1284
 1000loPI    C315319  15.539  10.577   5.788  0.1775  0.1751 -0.1644
 1000loPI   PO415320  15.440  10.832   6.267  0.4937  0.1775 -0.0125
 1000loPI   GL115321  15.527  10.929   6.667 -0.3832 -0.2225  0.0320
 1000loPI   GL215322  15.498  10.627   6.704  0.2866 -0.0748  0.1333
 1000loPI   C1A15323  15.441  11.104   7.012 -0.0311 -0.0713 -0.0037
 1000loPI   C2A15324  15.386  11.130   7.416 -0.0893 -0.0140 -0.0722
 1000loPI   C3A15325  15.541  11.189   7.849 -0.1424 -0.2492 -0.1239
 1000loPI   C4A15326  15.647  11.316   8.298  0.0481  0.0724 -0.0633
 1000loPI   C5A15327  15.705  11.509   8.609  0.2116  0.1219 -0.1503
 1000loPI   C6A15328  15.494  11.586   8.935 -0.0127  0.2592 -0.1238
 1000loPI   C1B15329  15.390  10.586   7.088 -0.2181  0.0664  0.0896
 1000loPI   C2B15330  15.465  10.677   7.392  0.0069  0.0446 -0.0062
 1000loPI   C3B15331  15.518  10.708   7.815 -0.0555 -0.2043  0.0082
 1000loPI   C4B15332  15.566  10.819   8.231  0.5755  0.1788  0.3054
 1001loPI    C115333   6.226  14.254   5.537  0.1286  0.0185 -0.0318
 1001loPI    C215334   6.129  13.950   5.296  0.0320 -0.0502  0.0928
 1001loPI    C315335   6.424  14.200   5.193 -0.0166 -0.0711 -0.1023
 1001loPI   PO415336   6.287  14.176   5.802 -0.1824 -0.0413 -0.0660
 1001loPI   GL115337   6.223  14.011   6.290 -0.1097  0.1650  0.0755
 1001loPI   GL215338   6.403  14.233   6.267  0.0001 -0.0596  0.2109
 1001loPI   C1A15339   6.098  14.036   6.802 -0.0613 -0.0413 -0.2005
 1001loPI   C2A15340   6.085  13.995   7.179  0.1380  0.3283  0.3015
 1001loPI   C3A15341   6.207  13.986   7.609  0.2087  0.0242  0.2118
 1001loPI   C4A15342   6.235  14.057   8.074  0.1102  0.1045  0.0244
 1001loPI   C5A15343   6.288  14.009   8.450 -0.1165 -0.1025  0.0981
 1001loPI   C6A15344   6.548  14.102   8.820 -0.3024  0.1622 -0.0591
 1001loPI   C1B15345   6.533  14.293   6.756  0.2692  0.1028  0.0786
 1001loPI   C2B15346   6.520  14.287   7.166 -0.1759 -0.2801  0.0913
 1001loPI   C3B15347   6.583  14.304   7.539 -0.0389  0.1134  0.1923
 1001loPI   C4B15348   6.680  14.329   7.988  0.1990 -0.0449 -0.2913
 1002loPI    C115349   0.257  11.862   5.898  0.0632 -0.1586 -0.0947
 1002loPI    C215350  -0.039  11.734   5.661 -0.1953 -0.0982  0.1893
 1002loPI    C315351   0.068  12.120   5.658 -0.1110 -0.1219  0.0795
 1002loPI   PO415352   0.246  11.758   6.185 -0.0465  0.0115  0.2940
 1002loPI   GL115353   0.335  11.934   6.582  0.0171  0.0374  0.1478
 1002loPI   GL215354   0.006  11.809   6.649 -0.0121 -0.1938 -0.0827
 1002loPI   C1A15355   0.422  12.034   7.026  0.2360 -0.2196  0.0086
 1002loPI   C2A15356   0.442  12.048   7.404 -0.1558 -0.1403  0.1252
 1002loPI   C3A15357   0.560  12.068   7.705  0.1910  0.1730  0.0535
 1002loPI   C4A15358   0.478  12.150   8.157  0.0937  0.1348  0.0341
 1002loPI   C5A15359   0.311  12.060   8.601 -0.0433 -0.1344  0.0343
 1002loPI   C6A15360   0.049  11.765   8.851 -0.3771 -0.0767  0.0168
 1002loPI   C1B15361   0.023  11.728   7.079 -0.1065 -0.1585  0.4380
 1002loPI   C2B15362   0.046  11.783   7.498  0.0622  0.1253  0.1669
 1002loPI   C3B15363   0.055  11.858   7.920 -0.1140 -0.1339  0.0003
 1002loPI   C4B15364  -0.024  11.858   8.300 -0.0517  0.0100 -0.1793
 1003loPI    C115365   1.980   1.404   5.887  0.1919 -0.1060  0.0317
 1003loPI    C215366   2.033   1.230   5.531  0.1254  0.0510 -0.0559
 1003loPI    C315367   2.196   1.588   5.605 -0.1034  0.1520 -0.0322
 1003loPI   PO415368   1.996   1.208   6.059  0.1477  0.1624 -0.0876
 1003loPI   GL115369   1.937   1.115   6.461  0.1676  0.0853 -0.0061
 1003loPI   GL215370   1.624   1.098   6.442  0.1899 -0.0006 -0.0058
 1003loPI   C1A15371   2.183   1.076   6.900  0.4092  0.3045  0.0354
 1003loPI   C2A15372   2.074   1.042   7.315  0.1630  0.1436  0.0042
 1003loPI   C3A15373   2.097   1.001   7.765  0.1683 -0.0515 -0.1055
 1003loPI   C4A15374   2.092   0.946   8.214 -0.1379  0.0516  0.1129
 1003loPI   C5A15375   2.164   1.059   8.628 -0.1269 -0.0280 -0.0908
 1003loPI   C6A15376   2.326   1.304   8.974 -0.2663 -0.0938  0.3112
 1003loPI   C1B15377   1.678   1.189   6.837  0.1075 -0.0305  0.0036
 1003loPI   C2B15378   1.720   1.323   7.201  0.0831 -0.0871  0.2814
 1003loPI   C3B15379   1.704   1.276   7.618 -0.3622 -0.0049 -0.2394
 1003loPI   C4B15380   1.694   1.286   8.009  0.0542 -0.1780  0.0561
 1004loPI    C115381  16.533   8.283   6.073 -0.0118  0.0105 -0.2322
 1004loPI    C215382  16.231   8.207   5.822 -0.1501  0.2119 -0.1300
 1004loPI    C315383  16.608   8.203   5.689 -0.2063  0.0965 -0.2896
 1004loPI   PO415384  16.572   8.074   6.345  0.2623 -0.0380 -0.0585
 1004loPI   GL115385  16.293   8.002   6.728  0.1160  0.2295 -0.0989
 1004loPI   GL215386  16.606   7.893   6.813  0.0558  0.1055  0.0506
 1004loPI   C1A15387  16.330   8.114   7.095  0.1990  0.0890 -0.2691
 1004loPI   C2A15388  16.483   8.022   7.517 -0.0485  0.0795  0.0069
 1004loPI   C3A15389  16.524   8.126   7.886 -0.0980 -0.1888  0.3458
 1004loPI   C4A15390  16.626   8.090   8.351  0.0066 -0.2665  0.0141
 1004loPI   C5A15391  16.777   8.029   8.710 -0.0961 -0.0806 -0.1579
 1004loPI   C6A15392  17.000   7.896   9.002 -0.0729 -0.1598  0.2336
 1004loPI   C1B15393  16.810   8.201   7.015  0.0866 -0.3539  0.3873
 1004loPI   C2B15394  16.911   8.390   7.377 -0.0558  0.3200  0.0019
 1004loPI   C3B15395  16.921   8.422   7.802 -0.1265 -0.3507 -0.1374
 1004loPI   C4B15396  17.002   8.378   8.263 -0.0984  0.1926  0.1649
 1005loPI    C115397   8.648   9.531   5.753  0.0889 -0.2537  0.0015
 1005loPI    C215398   8.394   9.683   5.484 -0.1907 -0.1154  0.3370
 1005loPI    C315399   8.571   9.331   5.415 -0.1596 -0.0230 -0.0817
 1005loPI   PO415400   8.437   9.667   5.997 -0.0173 -0.3284  0.1141
 1005loPI   GL115401   8.494   9.697   6.482  0.1335 -0.3381 -0.0415
 1005loPI   GL215402   8.697   9.536   6.354 -0.0327  0.1405  0.1917
 1005loPI   C1A15403   8.320   9.591   6.819  0.1365  0.1584 -0.1191
 1005loPI   C2A15404   8.303   9.521   7.264  0.0684 -0.0163  0.0615
 1005loPI   C3A15405   8.280   9.475   7.621  0.2318 -0.1869 -0.2169
 1005loPI   C4A15406   8.244   9.505   8.103  0.0364  0.0185 -0.1842
 1005loPI   C5A15407   8.232   9.697   8.497  0.3499 -0.0891 -0.1451
 1005loPI   C6A15408   8.252   9.596   8.922 -0.0099  0.0544  0.0788
 1005loPI   C1B15409   8.818   9.286   6.771  0.0293 -0.2143  0.0639
 1005loPI   C2B15410   8.831   9.260   7.231 -0.1819 -0.2493  0.1251
 1005loPI   C3B15411   8.770   9.304   7.654 -0.2398  0.1595  0.0257
 1005loPI   C4B15412   8.649   9.170   8.001 -0.1135 -0.1941 -0.2269
 1006loPI    C115413   9.217  12.711   5.824  0.2789 -0.1452 -0.1045
 1006loPI    C215414   9.038  12.729   5.466  0.2040 -0.1336 -0.0668
 1006loPI    C315415   9.431  12.655   5.491  0.2306 -0.0246 -0.1565
 1006loPI   PO415416   9.139  12.630   5.988 -0.3191 -0.0975 -0.0918
 1006loPI   GL115417   9.160  12.912   6.359  0.2871  0.1512 -0.1291
 1006loPI   GL215418   9.248  13.256   6.431  0.0240  0.1720  0.0551
 1006loPI   C1A15419   9.230  12.792   6.654  0.0109  0.1093  0.2573
 1006loPI   C2A15420   9.312  12.630   7.051 -0.2788 -0.0562 -0.4367
 1006loPI   C3A15421   9.269  12.802   7.484  0.0213  0.1614  0.2056
 1006loPI   C4A15422   9.249  12.720   7.923 -0.0676  0.0590 -0.2319
 1006loPI   C5A15423   9.139  12.431   8.350  0.2699  0.1788  0.0928
 1006loPI   C6A15424   9.362  12.256   8.787  0.1203 -0.2265 -0.1107
 1006loPI   C1B15425   9.266  13.225   6.876 -0.2624  0.3586 -0.0155
 1006loPI   C2B15426   9.237  13.301   7.370  0.1700 -0.0526 -0.0236
 1006loPI   C3B15427   9.227  13.186   7.812  0.0366  0.0001 -0.0922
 1006loPI   C4B15428   9.347  13.366   8.310  0.1120 -0.0310  0.0533
 1007loPI    C115429   0.161   8.907   5.816 -0.0736  0.2461 -0.0114
 1007loPI    C215430   0.214   8.630   5.532 -0.0545  0.0551  0.1758
 1007loPI    C315431   0.175   9.015   5.431 -0.0054 -0.0055 -0.0816
 1007loPI   PO415432   0.333   8.682   6.027 -0.1307  0.1347 -0.2898
 1007loPI   GL115433   0.610   8.679   6.445 -0.0948  0.0892  0.2543
 1007loPI   GL215434   0.435   8.756   6.632 -0.3243 -0.0767  0.1426
 1007loPI   C1A15435   0.928   8.588   6.742  0.3508  0.2312 -0.1182
 1007loPI   C2A15436   0.969   8.609   7.233 -0.0472  0.1646 -0.1489
 1007loPI   C3A15437   1.022   8.702   7.663 -0.0102  0.2845  0.0245
 1007loPI   C4A15438   1.052   8.748   8.098 -0.2131  0.0374  0.0502
 1007loPI   C5A15439   1.129   8.708   8.529  0.1554 -0.0633  0.0247
 1007loPI   C6A15440   1.444   8.674   8.890  0.3565  0.2453 -0.0902
 1007loPI   C1B15441   0.440   8.924   6.995 -0.2083 -0.0932  0.1488
 1007loPI   C2B15442   0.540   8.946   7.449  0.0686 -0.0609  0.1219
 1007loPI   C3B15443   0.603   9.040   7.866 -0.0200  0.2146  0.0354
 1007loPI   C4B15444   0.693   9.016   8.266  0.1008 -0.0811  0.1269
 1008loPI    C115445   3.358   7.253   5.962 -0.0277  0.0066  0.1946
 1008loPI    C215446   3.474   7.594   5.788  0.0527  0.0621  0.3555
 1008loPI    C315447   3.706   7.268   5.764 -0.0559 -0.0015  0.1443
 1008loPI   PO415448   3.271   7.347   6.196 -0.0898  0.1297  0.1316
 1008loPI   GL115449   3.443   7.646   6.503 -0.0828 -0.1921  0.1241
 1008loPI   GL215450   3.235   7.482   6.675 -0.4711 -0.0751 -0.4253
 1008loPI   C1A15451   3.288   7.975   6.877  0.0649  0.0286  0.1198
 1008loPI   C2A15452   3.286   8.094   7.411  0.1119  0.0486  0.3470
 1008loPI   C3A15453   3.250   8.040   7.797 -0.1436 -0.1438  0.1898
 1008loPI   C4A15454   3.388   8.125   8.237 -0.4600 -0.3641 -0.2262
 1008loPI   C5A15455   3.449   8.107   8.671 -0.0836 -0.2618 -0.0464
 1008loPI   C6A15456   3.657   7.937   9.050 -0.0956  0.2001  0.0051
 1008loPI   C1B15457   3.278   7.544   7.069  0.2640  0.3026 -0.1426
 1008loPI   C2B15458   3.289   7.567   7.530 -0.1910  0.1020  0.1696
 1008loPI   C3B15459   3.370   7.530   7.969 -0.0908 -0.2855 -0.0613
 1008loPI   C4B15460   3.288   7.622   8.425  0.3902 -0.0444  0.0799
 1009loPI    C115461  14.117   7.436   5.830  0.0192  0.0023 -0.0782
 1009loPI    C215462  14.094   7.131   5.572  0.0999  0.0796 -0.1773
 1009loPI    C315463  13.839   7.439   5.542  0.0302  0.0310 -0.0884
 1009loPI   PO415464  14.227   7.284   6.038  0.1668 -0.0322 -0.1491
 1009loPI   GL115465  14.283   7.332   6.425  0.1264  0.1050 -0.2378
 1009loPI   GL215466  14.077   7.557   6.491  0.3515  0.1697  0.4683
 1009loPI   C1A15467  14.564   7.466   6.740 -0.3636 -0.2480 -0.0819
 1009loPI   C2A15468  14.592   7.460   7.187 -0.0128  0.1095  0.0979
 1009loPI   C3A15469  14.698   7.445   7.646  0.0742 -0.0934 -0.0924
 1009loPI   C4A15470  14.809   7.442   8.104 -0.0500  0.0238  0.0479
 1009loPI   C5A15471  14.941   7.592   8.592  0.0050 -0.1261 -0.1447
 1009loPI   C6A15472  14.889   7.386   8.968  0.0990  0.1358 -0.2091
 1009loPI   C1B15473  14.072   7.642   6.958  0.6322 -0.1109  0.0259
 1009loPI   C2B15474  14.175   7.637   7.365 -0.1868  0.1056 -0.0670
 1009loPI   C3B15475  14.115   7.740   7.804  0.0072  0.0653  0.0444
 1009loPI   C4B15476  14.333   7.664   8.168  0.1791  0.3135  0.1613
 1010loPI    C115477   4.801  15.941   5.547 -0.1069  0.1574 -0.0255
 1010loPI    C215478   4.468  16.028   5.342 -0.2208 -0.0378  0.0737
 1010loPI    C315479   4.780  15.860   5.155 -0.2566 -0.0484  0.0231
 1010loPI   PO415480   4.742  15.832   5.749  0.2352  0.1379  0.0833
 1010loPI   GL115481   4.604  15.676   6.093 -0.0231  0.1341 -0.0908
 1010loPI   GL215482   4.640  15.976   6.290  0.1184 -0.1204 -0.0717
 1010loPI   C1A15483   4.309  15.520   6.488 -0.0377 -0.0186  0.0419
 1010loPI   C2A15484   4.423  15.520   6.879 -0.1393 -0.1354 -0.0798
 1010loPI   C3A15485   4.437  15.465   7.347 -0.0553  0.0917 -0.2070
 1010loPI   C4A15486   4.426  15.511   7.788 -0.0895  0.2608 -0.1565
 1010loPI   C5A15487   4.501  15.513   8.265  0.0247 -0.1141  0.0532
 1010loPI   C6A15488   4.629  15.510   8.702  0.2042 -0.0119 -0.2456
 1010loPI   C1B15489   4.765  15.781   6.623  0.1579  0.1599 -0.2366
 1010loPI   C2B15490   4.884  15.849   7.050  0.0568 -0.1412  0.1825
 1010loPI   C3B15491   4.803  15.782   7.434 -0.1251 -0.0734  0.0189
 1010loPI   C4B15492   4.897  15.723   7.873  0.1427 -0.1001 -0.1680
 1011loPI    C115493   3.618  16.097   5.918  0.0381 -0.2154  0.0397
 1011loPI    C215494   3.917  16.200   5.674  0.0692 -0.2008  0.0838
 1011loPI    C315495   3.635  15.946   5.548  0.0494 -0.1428  0.0104
 1011loPI   PO415496   3.726  16.035   6.181  0.1646 -0.1066  0.1648
 1011loPI   GL115497   3.751  16.311   6.480  0.1790  0.0453 -0.1154
 1011loPI   GL215498   3.467  16.464   6.638 -0.2626 -0.0215 -0.1828
 1011loPI   C1A15499   3.867  16.244   6.894 -0.0995 -0.1971  0.1206
 1011loPI   C2A15500   3.873  16.230   7.352 -0.0651  0.2422 -0.0764
 1011loPI   C3A15501   4.049  16.338   7.794  0.3740  0.1442 -0.0775
 1011loPI   C4A15502   4.053  16.432   8.217  0.2261 -0.0530  0.1738
 1011loPI   C5A15503   3.951  16.218   8.595 -0.1082  0.2078  0.0292
 1011loPI   C6A15504   3.982  16.269   9.069  0.0035  0.3134 -0.1976
 1011loPI   C1B15505   3.498  16.454   7.134 -0.2200  0.0161  0.0195
 1011loPI   C2B15506   3.411  16.543   7.543 -0.2569 -0.2131 -0.0838
 1011loPI   C3B15507   3.566  16.602   7.936  0.0421 -0.0725 -0.2273
 1011loPI   C4B15508   3.579  16.596   8.390 -0.2649  0.0565  0.2813
 1012loPI    C115509  14.189  15.182   5.692 -0.0145 -0.0069 -0.1451
 1012loPI    C215510  14.203  15.024   5.325  0.0083 -0.1422 -0.0864
 1012loPI    C315511  13.893  14.943   5.565 -0.0109 -0.0467 -0.0790
 1012loPI   PO415512  14.365  15.143   5.848  0.1817 -0.1346  0.3459
 1012loPI   GL115513  14.645  15.221   6.166  0.3082  0.2638 -0.1238
 1012loPI   GL215514  14.960  15.086   6.252 -0.3662  0.2006 -0.0689
 1012loPI   C1A15515  14.647  15.378   6.532 -0.0742 -0.0250 -0.1563
 1012loPI   C2A15516  14.566  15.341   7.014  0.1566  0.1388 -0.1953
 1012loPI   C3A15517  14.591  15.335   7.465  0.1498 -0.0454 -0.0093
 1012loPI   C4A15518  14.582  15.425   7.985 -0.1990  0.0740 -0.0292
 1012loPI   C5A15519  14.280  15.313   8.278 -0.0243  0.0518 -0.0718
 1012loPI   C6A15520  14.227  15.443   8.673 -0.0197  0.4485 -0.1180
 1012loPI   C1B15521  15.034  15.056   6.692  0.0331 -0.0886 -0.2255
 1012loPI   C2B15522  15.081  15.116   7.037  0.0642 -0.2134 -0.2485
 1012loPI   C3B15523  15.041  15.134   7.487  0.2742 -0.1377 -0.1672
 1012loPI   C4B15524  14.982  15.047   7.965 -0.3349 -0.3132 -0.0568
 1013loPI    C115525  11.584   2.415   5.584 -0.0734  0.1381 -0.0216
 1013loPI    C215526  11.260   2.429   5.349 -0.0834  0.4064  0.0047
 1013loPI    C315527  11.604   2.593   5.226  0.0630  0.0675 -0.0497
 1013loPI   PO415528  11.578   2.523   5.879 -0.0956 -0.1421  0.0913
 1013loPI   GL115529  11.708   2.323   6.219  0.0391  0.0118  0.1977
 1013loPI   GL215530  11.897   2.510   6.431  0.2697 -0.2373 -0.0671
 1013loPI   C1A15531  11.756   2.157   6.739 -0.2081 -0.0184 -0.1331
 1013loPI   C2A15532  11.905   2.237   7.217  0.0316  0.2033 -0.0520
 1013loPI   C3A15533  11.899   2.190   7.672 -0.2639  0.1736  0.0421
 1013loPI   C4A15534  11.864   2.267   8.111  0.2258 -0.3639 -0.1514
 1013loPI   C5A15535  11.448   2.520   8.472 -0.2275  0.0535 -0.1746
 1013loPI   C6A15536  11.255   2.636   8.815  0.0273  0.3860 -0.0618
 1013loPI   C1B15537  11.894   2.708   6.783 -0.0982 -0.1274 -0.0468
 1013loPI   C2B15538  11.876   2.758   7.178  0.1266  0.0393 -0.0515
 1013loPI   C3B15539  11.900   2.771   7.607 -0.1910 -0.0409  0.0266
 1013loPI   C4B15540  11.831   2.789   8.080 -0.2940 -0.0271  0.1277
 1014loPI    C115541  17.036   0.306   5.706  0.0286  0.1229 -0.0769
 1014loPI    C215542  17.331   0.477   5.496  0.1507  0.0293  0.0171
 1014loPI    C315543  16.950   0.582   5.429  0.1929  0.0417 -0.2103
 1014loPI   PO415544  17.111   0.249   5.908 -0.2892 -0.0300 -0.1811
 1014loPI   GL115545  17.090   0.368   6.295 -0.0941  0.2397 -0.1667
 1014loPI   GL215546  17.358   0.196   6.376 -0.2262  0.0072  0.0626
 1014loPI   C1A15547  16.791   0.448   6.599 -0.2743  0.2746  0.0707
 1014loPI   C2A15548  16.783   0.336   6.917  0.0593 -0.0427  0.0617
 1014loPI   C3A15549  16.765   0.446   7.421  0.0881 -0.2488  0.1397
 1014loPI   C4A15550  16.715   0.436   7.891 -0.2267  0.1537  0.0084
 1014loPI   C5A15551  16.799   0.354   8.327 -0.0536 -0.1829  0.0168
 1014loPI   C6A15552  16.839  -0.076   8.430  0.1479 -0.0263 -0.0281
 1014loPI   C1B15553  17.177   0.082   6.777  0.2383 -0.1208 -0.0262
 1014loPI   C2B15554  17.213   0.032   7.274 -0.0295 -0.2983 -0.6279
 1014loPI   C3B15555  17.143   0.171   7.742  0.0474 -0.1608 -0.1318
 1014loPI   C4B15556  17.209   0.209   8.148 -0.0842 -0.0899  0.1108
 1015loPI    C115557  15.482   9.321   6.122  0.2489 -0.1209 -0.0053
 1015loPI    C215558  15.620   9.419   5.760  0.0792 -0.1587 -0.0815
 1015loPI    C315559  15.240   9.301   5.804  0.0530 -0.0012  0.1334
 1015loPI   PO415560  15.657   9.208   6.191  0.0594 -0.4238 -0.0606
 1015loPI   GL115561  15.859   9.321   6.590 -0.2438 -0.1379  0.1997
 1015loPI   GL215562  16.060   9.193   6.744  0.0756 -0.1012 -0.0633
 1015loPI   C1A15563  15.508   9.093   6.917 -0.2331  0.0084 -0.0524
 1015loPI   C2A15564  15.387   9.002   7.380 -0.0251 -0.0274 -0.0664
 1015loPI   C3A15565  15.508   9.193   7.755  0.0936  0.1831  0.0563
 1015loPI   C4A15566  15.607   9.291   8.122  0.2539 -0.0203 -0.0544
 1015loPI   C5A15567  15.767   9.159   8.550 -0.1098 -0.2708 -0.0716
 1015loPI   C6A15568  16.115   8.803   8.755 -0.3419  0.2272  0.3878
 1015loPI   C1B15569  15.894   9.309   7.207 -0.2590  0.1018 -0.0004
 1015loPI   C2B15570  16.036   9.408   7.534 -0.0389 -0.0298 -0.2712
 1015loPI   C3B15571  16.011   9.487   7.980  0.0035  0.1261 -0.1238
 1015loPI   C4B15572  16.026   9.617   8.477  0.1308  0.0386  0.0701
 1016loPI    C115573  12.892   4.015   6.001  0.3634 -0.1359 -0.0397
 1016loPI    C215574  12.939   3.677   5.793  0.1616 -0.1319 -0.0932
 1016loPI    C315575  12.896   4.025   5.601 -0.2485 -0.1564 -0.0549
 1016loPI   PO415576  12.704   3.913   6.199 -0.1442  0.1843  0.1641
 1016loPI   GL115577  12.735   3.784   6.640  0.0599  0.0446 -0.0450
 1016loPI   GL215578  12.452   3.618   6.549  0.0371 -0.0742 -0.0017
 1016loPI   C1A15579  12.700   3.806   7.048 -0.2465  0.1295 -0.1544
 1016loPI   C2A15580  12.789   3.778   7.451  0.0319  0.0150  0.0011
 1016loPI   C3A15581  12.703   3.823   7.886 -0.3582 -0.2118 -0.0383
 1016loPI   C4A15582  12.836   3.891   8.241  0.0378  0.2068 -0.0582
 1016loPI   C5A15583  13.076   3.666   8.488  0.1233  0.1349  0.0040
 1016loPI   C6A15584  13.043   3.492   8.855  0.1211  0.3983 -0.1373
 1016loPI   C1B15585  12.293   3.479   7.035  0.2195  0.0338  0.1073
 1016loPI   C2B15586  12.295   3.476   7.404  0.3544  0.2077  0.0464
 1016loPI   C3B15587  12.331   3.519   7.769  0.1500 -0.0465 -0.2158
 1016loPI   C4B15588  12.321   3.548   8.210  0.2758 -0.1556 -0.1016
 1017loPI    C115589  14.487  11.745   5.889  0.0023  0.2565 -0.0261
 1017loPI    C215590  14.857  11.675   5.754  0.0638  0.2055  0.1649
 1017loPI    C315591  14.552  11.449   5.628  0.1466  0.0538  0.2351
 1017loPI   PO415592  14.487  11.786   6.100  0.0371 -0.3974 -0.0761
 1017loPI   GL115593  14.509  11.776   6.575 -0.2796 -0.2054  0.0394
 1017loPI   GL215594  14.773  11.868   6.511  0.0392 -0.1011  0.0988
 1017loPI   C1A15595  14.676  11.737   7.051 -0.0117  0.0315  0.3309
 1017loPI   C2A15596  14.567  11.738   7.516 -0.0386 -0.0733 -0.0202
 1017loPI   C3A15597  14.658  11.805   7.970  0.0509 -0.2650  0.0309
 1017loPI   C4A15598  14.787  11.742   8.409 -0.0713 -0.0384 -0.2745
 1017loPI   C5A15599  14.787  11.664   8.816  0.2324 -0.1163  0.0134
 1017loPI   C6A15600  14.762  11.995   9.131 -0.0829 -0.0152  0.2621
 1017loPI   C1B15601  14.610  12.178   6.824  0.2277  0.1251 -0.0440
 1017loPI   C2B15602  14.610  12.238   7.255 -0.1255 -0.1350  0.0755
 1017loPI   C3B15603  14.678  12.263   7.627 -0.0745  0.0469  0.0272
 1017loPI   C4B15604  14.614  12.368   8.089 -0.1946 -0.2836 -0.1766
 1018loPI    C115605  17.315   5.696   5.799 -0.1035 -0.1832 -0.1633
 1018loPI    C215606  17.422   5.953   5.512  0.0570  0.1394  0.1769
 1018loPI    C315607  17.673   5.663   5.625 -0.0631 -0.0778 -0.1007
 1018loPI   PO415608  17.244   5.858   6.022 -0.0306  0.0207 -0.0099
 1018loPI   GL115609  17.003   5.656   6.425 -0.2552 -0.3053  0.1802
 1018loPI   GL215610  17.311   5.765   6.564  0.0772  0.2976  0.0279
 1018loPI   C1A15611  17.101   5.710   6.983 -0.0045 -0.2031  0.1371
 1018loPI   C2A15612  17.219   5.756   7.413  0.1393 -0.0512 -0.1789
 1018loPI   C3A15613  17.205   5.789   7.906 -0.2060 -0.0276  0.1131
 1018loPI   C4A15614  17.267   5.863   8.271  0.1472  0.1064  0.0758
 1018loPI   C5A15615  17.361   5.650   8.615 -0.0835  0.1465  0.0490
 1018loPI   C6A15616  17.245   5.163   8.730  0.1202  0.1245  0.1853
 1018loPI   C1B15617  17.588   5.521   6.834  0.1299 -0.0740 -0.0937
 1018loPI   C2B15618  17.626   5.542   7.241  0.2495 -0.1749 -0.1401
 1018loPI   C3B15619  17.606   5.556   7.649 -0.1678  0.0400 -0.3757
 1018loPI   C4B15620  17.705   5.628   8.051 -0.2115 -0.0255  0.1723
 1019loPI    C115621   4.577  17.102   6.016  0.0748 -0.0281 -0.0049
 1019loPI    C215622   4.820  16.833   5.848  0.0147  0.0928 -0.2900
 1019loPI    C315623   4.710  17.159   5.644 -0.2110  0.1490 -0.0831
 1019loPI   PO415624   4.645  17.212   6.275 -0.4199 -0.2014 -0.2907
 1019loPI   GL115625   4.301  17.113   6.613 -0.1954  0.1375 -0.0351
 1019loPI   GL215626   4.560  16.925   6.751  0.4029 -0.0178 -0.0266
 1019loPI   C1A15627   3.951  17.280   6.954 -0.2844 -0.0485 -0.1879
 1019loPI   C2A15628   3.821  17.263   7.368  0.0690 -0.0327  0.0064
 1019loPI   C3A15629   3.877  17.335   7.796  0.0894 -0.1144 -0.1467
 1019loPI   C4A15630   3.922  17.484   8.093  0.2102  0.0618  0.1200
 1019loPI   C5A15631   3.958  17.418   8.615  0.1960 -0.1309 -0.1909
 1019loPI   C6A15632   3.809  17.160   8.993 -0.1704 -0.1779 -0.0434
 1019loPI   C1B15633   4.379  17.082   7.126 -0.0110  0.0832 -0.0855
 1019loPI   C2B15634   4.270  17.022   7.514 -0.1812 -0.1467 -0.2068
 1019loPI   C3B15635   4.336  17.150   7.876  0.2065  0.1172  0.1051
 1019loPI   C4B15636   4.406  17.185   8.366 -0.0003  0.3893  0.2344
 1020loPI    C115637   4.479   9.358   5.567 -0.3505 -0.1126 -0.0209
 1020loPI    C215638   4.808   9.354   5.340 -0.1686 -0.2009  0.2399
 1020loPI    C315639   4.451   9.417   5.172  0.0292  0.4035  0.0191
 1020loPI   PO415640   4.559   9.273   5.777 -0.0774 -0.1827 -0.1783
 1020loPI   GL115641   4.441   9.105   6.124 -0.0209  0.3212 -0.0773
 1020loPI   GL215642   4.240   9.170   6.319  0.0455 -0.0343  0.3941
 1020loPI   C1A15643   4.546   8.897   6.582  0.0652  0.1885  0.1263
 1020loPI   C2A15644   4.608   8.824   7.048 -0.0610 -0.2110  0.2372
 1020loPI   C3A15645   4.579   8.778   7.511  0.0647 -0.3530  0.0589
 1020loPI   C4A15646   4.648   8.858   7.958  0.3683  0.0316  0.1488
 1020loPI   C5A15647   4.767   8.738   8.401 -0.3730 -0.3681 -0.2077
 1020loPI   C6A15648   4.750   8.689   8.877 -0.2065 -0.1553  0.2066
 1020loPI   C1B15649   4.142   9.098   6.768  0.3210  0.1938 -0.2219
 1020loPI   C2B15650   4.171   9.069   7.195 -0.2513  0.0097  0.1164
 1020loPI   C3B15651   4.135   9.067   7.573  0.2529 -0.1177  0.0128
 1020loPI   C4B15652   4.157   9.077   8.008  0.1011 -0.1091 -0.0412
 1021loPI    C115653   1.646  11.435   5.807  0.0276  0.3130  0.0148
 1021loPI    C215654   1.846  11.560   5.485 -0.1340 -0.0354 -0.2274
 1021loPI    C315655   1.464  11.445   5.451 -0.1005 -0.2393  0.0555
 1021loPI   PO415656   1.672  11.538   5.959 -0.0638  0.2556  0.0510
 1021loPI   GL115657   1.624  11.462   6.421 -0.0901  0.1284  0.0433
 1021loPI   GL215658   1.727  11.797   6.738  0.1722  0.1539  0.0544
 1021loPI   C1A15659   1.730  11.276   6.743 -0.0164  0.3158  0.0916
 1021loPI   C2A15660   1.761  11.332   7.113  0.1720  0.1684 -0.0076
 1021loPI   C3A15661   1.777  11.329   7.490  0.1348  0.2511  0.0750
 1021loPI   C4A15662   1.898  11.403   7.921  0.0462 -0.1722  0.0472
 1021loPI   C5A15663   1.778  11.477   8.355  0.0517 -0.1879 -0.2267
 1021loPI   C6A15664   1.800  11.462   8.754  0.2407 -0.1163 -0.0294
 1021loPI   C1B15665   1.817  11.846   7.159  0.0268 -0.0879  0.1755
 1021loPI   C2B15666   1.819  11.846   7.615 -0.1696  0.1687 -0.2191
 1021loPI   C3B15667   1.862  11.915   8.094  0.2219  0.0801 -0.1941
 1021loPI   C4B15668   2.159  11.808   8.410  0.0122 -0.1743  0.1894
 1022loPI    C115669   7.563  10.026   6.014  0.1771  0.0131 -0.0260
 1022loPI    C215670   7.247   9.940   5.783  0.1473 -0.2787  0.1191
 1022loPI    C315671   7.580  10.090   5.619 -0.1070  0.1510 -0.0181
 1022loPI   PO415672   7.495   9.804   6.199  0.0323  0.3702 -0.0555
 1022loPI   GL115673   7.510   9.641   6.600 -0.3116 -0.1448 -0.2111
 1022loPI   GL215674   7.891   9.679   6.646 -0.0243  0.1360  0.0085
 1022loPI   C1A15675   7.411   9.620   7.041  0.1600 -0.0392 -0.1066
 1022loPI   C2A15676   7.264   9.487   7.369  0.2266 -0.0787  0.1011
 1022loPI   C3A15677   7.320   9.486   7.830 -0.1612 -0.3423 -0.0564
 1022loPI   C4A15678   7.358   9.476   8.242  0.0363  0.0003  0.2673
 1022loPI   C5A15679   7.450   9.508   8.611 -0.0733  0.0456 -0.2070
 1022loPI   C6A15680   7.737   9.582   8.932  0.3557  0.2621 -0.0836
 1022loPI   C1B15681   7.901   9.863   7.070 -0.1659 -0.2521 -0.0897
 1022loPI   C2B15682   7.882   9.727   7.571 -0.1638  0.0401  0.2640
 1022loPI   C3B15683   7.809   9.717   7.981 -0.0929 -0.1265  0.0676
 1022loPI   C4B15684   7.742   9.829   8.395 -0.2105  0.0346  0.1111
 1023loPI    C115685   9.974   5.988   6.023  0.1464 -0.0085  0.1565
 1023loPI    C215686  10.144   6.350   6.003  0.0299  0.0463  0.1508
 1023loPI    C315687  10.272   6.055   5.765 -0.2207  0.2274 -0.2187
 1023loPI   PO415688   9.816   5.991   6.311 -0.1600 -0.1455  0.4293
 1023loPI   GL115689   9.820   6.137   6.717 -0.1174  0.0241  0.5294
 1023loPI   GL215690   9.612   6.367   6.857 -0.0598 -0.0954  0.1860
 1023loPI   C1A15691  10.048   5.793   6.947 -0.0509 -0.1103 -0.0702
 1023loPI   C2A15692  10.110   5.841   7.395  0.0895  0.0519  0.0696
 1023loPI   C3A15693  10.162   5.864   7.821  0.0584  0.2019 -0.0731
 1023loPI   C4A15694  10.062   5.997   8.208  0.2116  0.1271  0.1363
 1023loPI   C5A15695  10.173   5.875   8.643 -0.1865  0.2348  0.0737
 1023loPI   C6A15696   9.923   5.923   8.942  0.0521  0.0188  0.0312
 1023loPI   C1B15697   9.671   6.082   7.273 -0.1444  0.0452 -0.0554
 1023loPI   C2B15698   9.711   6.164   7.650  0.4098 -0.3612 -0.1314
 1023loPI   C3B15699   9.637   6.262   8.044 -0.0869  0.0557  0.0608
 1023loPI   C4B15700   9.754   6.259   8.508  0.1745  0.4078  0.3754
 1024loPI    C115701   1.708  12.295   5.777 -0.0463 -0.0006 -0.0580
 1024loPI    C215702   1.884  12.548   5.521  0.0871 -0.1371 -0.1027
 1024loPI    C315703   1.607  12.290   5.390 -0.3664  0.2742  0.0177
 1024loPI   PO415704   1.592  12.534   5.978  0.0502 -0.2153  0.3166
 1024loPI   GL115705   1.638  12.530   6.346  0.3026 -0.1574  0.0809
 1024loPI   GL215706   1.648  12.801   6.453  0.3045  0.1539 -0.0949
 1024loPI   C1A15707   1.755  12.397   6.740 -0.1015 -0.0242 -0.1368
 1024loPI   C2A15708   1.723  12.340   7.234 -0.1022  0.1525 -0.0204
 1024loPI   C3A15709   1.737  12.333   7.582  0.0284  0.1391  0.2411
 1024loPI   C4A15710   1.785  12.423   7.967  0.0905  0.0556  0.0790
 1024loPI   C5A15711   1.708  12.459   8.320  0.1444 -0.3594 -0.0458
 1024loPI   C6A15712   1.670  12.467   8.713  0.1499 -0.1508 -0.0709
 1024loPI   C1B15713   1.701  12.860   6.895  0.1374  0.2678  0.0552
 1024loPI   C2B15714   1.693  12.804   7.297 -0.3685 -0.0418 -0.1548
 1024loPI   C3B15715   1.767  12.840   7.708  0.0171 -0.0223 -0.3179
 1024loPI   C4B15716   1.726  12.935   8.156  0.2328 -0.1572  0.1595
 1025loPI    C115717   2.788   3.827   5.720  0.0118 -0.0117  0.3392
 1025loPI    C215718   2.504   3.615   5.906  0.0453 -0.3090  0.0615
 1025loPI    C315719   2.655   3.486   5.558  0.0021  0.2215 -0.1650
 1025loPI   PO415720   2.935   3.930   6.002 -0.0390  0.3001  0.0628
 1025loPI   GL115721   2.811   3.763   6.391  0.0815 -0.2971  0.1723
 1025loPI   GL215722   2.996   3.568   6.515 -0.0689 -0.3693 -0.1530
 1025loPI   C1A15723   2.562   3.787   6.694 -0.0690  0.2022 -0.0366
 1025loPI   C2A15724   2.595   3.787   7.038 -0.0408  0.1708  0.0240
 1025loPI   C3A15725   2.568   3.917   7.449  0.2573 -0.1968 -0.1042
 1025loPI   C4A15726   2.542   3.835   7.961  0.4781  0.1663 -0.0346
 1025loPI   C5A15727   2.561   3.941   8.343  0.1280  0.3629 -0.1559
 1025loPI   C6A15728   2.447   3.922   8.811 -0.0774  0.3037 -0.4784
 1025loPI   C1B15729   3.016   3.503   6.998 -0.0047  0.1969  0.0716
 1025loPI   C2B15730   2.966   3.625   7.373  0.2304  0.2790 -0.0014
 1025loPI   C3B15731   3.027   3.633   7.734  0.0438 -0.0058 -0.1962
 1025loPI   C4B15732   3.018   3.706   8.145  0.3518 -0.1376  0.1049
 1026loPI    C115733  14.815   7.940   5.921 -0.0218  0.0339  0.2149
 1026loPI    C215734  14.675   7.699   6.208 -0.4200  0.0686  0.0569
 1026loPI    C315735  14.587   7.625   5.825 -0.0920  0.1593 -0.0389
 1026loPI   PO415736  14.791   8.143   6.030 -0.1345  0.1673 -0.0479
 1026loPI   GL115737  14.711   8.274   6.410 -0.2164  0.1374  0.0241
 1026loPI   GL215738  14.880   8.035   6.563  0.3944  0.0614  0.2656
 1026loPI   C1A15739  14.542   8.418   6.731 -0.0188 -0.1813 -0.0072
 1026loPI   C2A15740  14.531   8.457   7.089  0.3588 -0.2961 -0.0569
 1026loPI   C3A15741  14.539   8.496   7.519 -0.1506 -0.0466  0.1902
 1026loPI   C4A15742  14.632   8.613   7.921 -0.0606 -0.2348 -0.0352
 1026loPI   C5A15743  14.743   8.874   8.385  0.0281  0.3104 -0.2283
 1026loPI   C6A15744  14.501   8.947   8.791 -0.3157  0.1310  0.0924
 1026loPI   C1B15745  15.043   8.220   6.948  0.0995  0.0011 -0.1909
 1026loPI   C2B15746  15.006   8.313   7.376 -0.0510 -0.1369  0.0803
 1026loPI   C3B15747  15.033   8.336   7.876 -0.2743 -0.2950  0.2140
 1026loPI   C4B15748  15.169   8.473   8.282 -0.1793  0.1648  0.2572
 1027loPI    C115749   0.972   1.432   5.806  0.1191 -0.2239 -0.0845
 1027loPI    C215750   1.089   1.684   5.518  0.1329 -0.3531 -0.1929
 1027loPI    C315751   1.027   1.298   5.433 -0.3634 -0.2910 -0.1380
 1027loPI   PO415752   0.762   1.528   5.929  0.1557 -0.3257 -0.2935
 1027loPI   GL115753   0.636   1.288   6.259 -0.1554  0.1586 -0.2097
 1027loPI   GL215754   0.406   1.522   6.393  0.1376  0.2101  0.1269
 1027loPI   C1A15755   0.773   1.149   6.689  0.0064  0.0503  0.0331
 1027loPI   C2A15756   0.737   1.286   7.054 -0.3369  0.2293  0.0231
 1027loPI   C3A15757   0.709   1.268   7.473  0.0569 -0.3901 -0.0398
 1027loPI   C4A15758   0.733   1.178   7.883 -0.1219  0.1087  0.1515
 1027loPI   C5A15759   0.840   1.048   8.319  0.1212  0.2762  0.2748
 1027loPI   C6A15760   0.730   0.887   8.815  0.1100 -0.1693 -0.0188
 1027loPI   C1B15761   0.276   1.449   6.786 -0.1806 -0.1695 -0.0430
 1027loPI   C2B15762   0.274   1.423   7.231  0.0048 -0.0869  0.1119
 1027loPI   C3B15763   0.261   1.464   7.695  0.2714 -0.2640  0.0710
 1027loPI   C4B15764   0.381   1.457   8.114  0.0054 -0.2291 -0.3158
 1028loPI    C115765  15.142  16.235   5.534  0.1961 -0.0363 -0.0406
 1028loPI    C215766  15.292  15.988   5.258  0.1618  0.0486 -0.1357
 1028loPI    C315767  15.148  16.345   5.150 -0.1958 -0.0692 -0.0607
 1028loPI   PO415768  15.270  16.233   5.726  0.1220  0.2683 -0.1016
 1028loPI   GL115769  15.249  16.071   6.156  0.1641 -0.0586 -0.0814
 1028loPI   GL215770  15.465  15.998   6.262 -0.1006  0.1597  0.0384
 1028loPI   C1A15771  15.056  16.193   6.513 -0.1611  0.3628  0.4783
 1028loPI   C2A15772  14.968  16.138   6.888  0.1709 -0.0492  0.1333
 1028loPI   C3A15773  15.015  16.147   7.295  0.0389 -0.0736 -0.0234
 1028loPI   C4A15774  14.996  16.147   7.735 -0.2150 -0.1117  0.0959
 1028loPI   C5A15775  15.014  16.211   8.170 -0.2472 -0.2175 -0.1995
 1028loPI   C6A15776  14.748  16.165   8.568 -0.0170 -0.0793 -0.4008
 1028loPI   C1B15777  15.526  15.886   6.642 -0.1105 -0.0887  0.2146
 1028loPI   C2B15778  15.384  15.892   7.056  0.0179  0.5465 -0.1924
 1028loPI   C3B15779  15.443  15.919   7.462 -0.1823  0.1631 -0.4380
 1028loPI   C4B15780  15.417  15.920   7.894 -0.1290  0.2367 -0.2353
 1029loPI    C115781   6.952  11.781   6.071  0.2171 -0.0447  0.3574
 1029loPI    C215782   7.296  11.788   5.868  0.0485 -0.0571  0.0655
 1029loPI    C315783   7.010  12.054   5.785 -0.1203 -0.2217  0.1122
 1029loPI   PO415784   6.987  11.808   6.320 -0.1627  0.0133 -0.2612
 1029loPI   GL115785   7.345  11.815   6.621  0.2624  0.0533  0.0928
 1029loPI   GL215786   7.541  11.630   6.753  0.0008 -0.2075 -0.1062
 1029loPI   C1A15787   7.175  11.899   7.021 -0.1341 -0.0344  0.0335
 1029loPI   C2A15788   7.014  11.953   7.349  0.2014 -0.1552 -0.3381
 1029loPI   C3A15789   7.044  11.959   7.765 -0.0667 -0.0879 -0.0338
 1029loPI   C4A15790   7.047  11.949   8.272 -0.1429 -0.3131  0.0517
 1029loPI   C5A15791   6.989  12.083   8.641  0.1474  0.0080  0.0198
 1029loPI   C6A15792   7.159  12.450   8.857 -0.1294  0.2746 -0.0502
 1029loPI   C1B15793   7.526  11.607   7.175 -0.0413  0.0266 -0.1223
 1029loPI   C2B15794   7.449  11.642   7.566  0.1620 -0.2512 -0.0781
 1029loPI   C3B15795   7.383  11.626   7.999  0.4272 -0.2152  0.2980
 1029loPI   C4B15796   7.120  11.370   8.318  0.2641 -0.1828  0.2156
 1030loPI    C115797  13.117  12.379   6.194  0.1774 -0.1256  0.0332
 1030loPI    C215798  12.924  12.131   5.947 -0.0568 -0.0743  0.1621
 1030loPI    C315799  13.291  12.260   5.854 -0.1028 -0.1338 -0.1097
 1030loPI   PO415800  12.949  12.516   6.279  0.1075  0.0085 -0.0709
 1030loPI   GL115801  12.880  12.638   6.655  0.2561 -0.1472  0.2396
 1030loPI   GL215802  12.828  12.969   6.567 -0.4380 -0.1518 -0.1658
 1030loPI   C1A15803  12.740  12.741   7.010  0.2162  0.2143  0.3014
 1030loPI   C2A15804  12.846  12.679   7.430  0.0631 -0.0065 -0.3026
 1030loPI   C3A15805  12.792  12.787   7.896 -0.0073  0.2045  0.2473
 1030loPI   C4A15806  12.785  12.679   8.260 -0.1454 -0.0285 -0.0630
 1030loPI   C5A15807  12.860  12.917   8.624 -0.1947  0.1041  0.1276
 1030loPI   C6A15808  12.908  12.854   9.044 -0.2389  0.0243  0.0910
 1030loPI   C1B15809  12.745  13.225   6.975 -0.1050  0.2805 -0.0877
 1030loPI   C2B15810  12.864  13.198   7.408 -0.0922 -0.0609 -0.0581
 1030loPI   C3B15811  12.877  13.274   7.781 -0.1180  0.0611  0.0075
 1030loPI   C4B15812  12.858  13.411   8.196 -0.4394  0.2195  0.1195
 1031loPI    C115813  13.600   2.109   5.693 -0.1334 -0.0846 -0.2337
 1031loPI    C215814  13.263   1.998   5.507 -0.1248 -0.2606 -0.1462
 1031loPI    C315815  13.619   1.903   5.350 -0.1170 -0.2657 -0.1252
 1031loPI   PO415816  13.414   2.196   6.036  0.4330  0.1379  0.0640
 1031loPI   GL115817  13.461   2.444   6.420 -0.0763  0.2624  0.2890
 1031loPI   GL215818  13.676   2.200   6.506  0.2719 -0.0535 -0.3166
 1031loPI   C1A15819  13.161   2.442   6.716  0.0582  0.2289 -0.1039
 1031loPI   C2A15820  13.202   2.405   7.111 -0.0455  0.4139  0.3856
 1031loPI   C3A15821  13.227   2.435   7.553 -0.1620  0.1600  0.0835
 1031loPI   C4A15822  13.216   2.431   7.938 -0.0872  0.1822 -0.3380
 1031loPI   C5A15823  13.269   2.570   8.382  0.0501  0.0162  0.2080
 1031loPI   C6A15824  13.164   2.710   8.838  0.2191  0.1065  0.2571
 1031loPI   C1B15825  13.743   2.115   6.898 -0.0070  0.1702  0.0283
 1031loPI   C2B15826  13.632   2.098   7.361 -0.1643 -0.0728 -0.0348
 1031loPI   C3B15827  13.671   2.252   7.745  0.2375  0.0064 -0.3345
 1031loPI   C4B15828  13.704   2.265   8.198  0.0064 -0.0451  0.3308
 1032loPI    C115829   2.280   2.367   5.835 -0.1149 -0.1279 -0.1387
 1032loPI    C215830   2.111   2.704   5.702 -0.0926 -0.0633 -0.0046
 1032loPI    C315831   2.451   2.573   5.537 -0.2565 -0.1797 -0.2572
 1032loPI   PO415832   2.283   2.341   6.014  0.1393  0.1079 -0.0202
 1032loPI   GL115833   2.083   2.390   6.319  0.0930 -0.0509 -0.4881
 1032loPI   GL215834   2.261   2.711   6.310  0.3237 -0.2874 -0.0846
 1032loPI   C1A15835   2.118   2.534   6.780  0.1019 -0.1822 -0.0669
 1032loPI   C2A15836   2.090   2.616   7.196 -0.2536 -0.1631  0.0036
 1032loPI   C3A15837   2.081   2.534   7.672  0.0399  0.1467 -0.0477
 1032loPI   C4A15838   2.130   2.605   8.074  0.1755 -0.0257 -0.2458
 1032loPI   C5A15839   1.998   2.464   8.419 -0.1915 -0.0237  0.1280
 1032loPI   C6A15840   2.191   2.193   8.638  0.0544  0.1387  0.3567
 1032loPI   C1B15841   2.247   2.958   6.631 -0.2808  0.4145  0.0685
 1032loPI   C2B15842   2.142   3.055   6.981  0.3141 -0.0555 -0.0540
 1032loPI   C3B15843   2.122   3.038   7.520  0.0915  0.2686 -0.1658
 1032loPI   C4B15844   2.212   3.106   7.977 -0.4852  0.0052  0.0429
 1033loPI    C115845  10.599  14.484   5.642  0.0732 -0.0476 -0.1363
 1033loPI    C215846  10.301  14.301   5.448  0.0584  0.1516 -0.3051
 1033loPI    C315847  10.371  14.690   5.386  0.2252  0.1541 -0.1120
 1033loPI   PO415848  10.581  14.349   5.897  0.1699 -0.0067 -0.2863
 1033loPI   GL115849  10.395  14.390   6.285  0.1167  0.0953  0.0750
 1033loPI   GL215850  10.221  14.260   6.383  0.0058 -0.1098 -0.0616
 1033loPI   C1A15851  10.600  14.526   6.755  0.1656  0.0198  0.0766
 1033loPI   C2A15852  10.596  14.510   7.157 -0.1394  0.0162  0.0583
 1033loPI   C3A15853  10.575  14.557   7.649  0.0686  0.0706 -0.1088
 1033loPI   C4A15854  10.669  14.616   8.134  0.0887  0.1882 -0.2951
 1033loPI   C5A15855  10.631  14.689   8.514  0.2073  0.1154  0.2269
 1033loPI   C6A15856  10.830  14.610   8.893  0.2304 -0.1106  0.2733
 1033loPI   C1B15857  10.187  14.269   6.850  0.1180  0.3861  0.2939
 1033loPI   C2B15858  10.131  14.314   7.364  0.0984  0.1869  0.0196
 1033loPI   C3B15859  10.151  14.343   7.824  0.1119  0.2708 -0.0079
 1033loPI   C4B15860  10.245  14.337   8.321  0.0457 -0.1964 -0.1179
 1034loPI    C115861  14.039   9.002   5.616  0.0824 -0.1655 -0.0279
 1034loPI    C215862  14.121   8.617   5.546  0.1913 -0.1437 -0.0228
 1034loPI    C315863  14.066   8.868   5.240 -0.3466 -0.2583 -0.0311
 1034loPI   PO415864  14.242   8.979   5.929 -0.0631 -0.1054  0.1533
 1034loPI   GL115865  14.286   8.958   6.379 -0.1240 -0.1256  0.2980
 1034loPI   GL215866  14.167   8.686   6.469  0.1326 -0.1081 -0.2426
 1034loPI   C1A15867  14.253   9.231   6.694 -0.2558 -0.0318 -0.0743
 1034loPI   C2A15868  14.141   9.321   7.111 -0.1358 -0.2733  0.0895
 1034loPI   C3A15869  14.030   9.355   7.592 -0.0959 -0.0977  0.0156
 1034loPI   C4A15870  14.163   9.324   7.993  0.1786  0.0977 -0.0273
 1034loPI   C5A15871  14.204   9.198   8.452 -0.0541 -0.1031  0.1685
 1034loPI   C6A15872  14.177   9.359   8.841  0.0001  0.0951 -0.0912
 1034loPI   C1B15873  14.146   8.723   6.852  0.2283  0.0285  0.2676
 1034loPI   C2B15874  14.106   8.715   7.299 -0.1282  0.1556 -0.1566
 1034loPI   C3B15875  14.096   8.716   7.742 -0.0298 -0.1593  0.1284
 1034loPI   C4B15876  14.213   8.815   8.073  0.1354  0.0921 -0.1757
 1035loPI    C115877   2.500   0.512   6.088 -0.0969 -0.1288  0.0932
 1035loPI    C215878   2.369   0.203   5.869  0.2504 -0.2281  0.0194
 1035loPI    C315879   2.614   0.474   5.706  0.4014 -0.2266  0.2446
 1035loPI   PO415880   2.540   0.471   6.308 -0.0413 -0.1828 -0.0121
 1035loPI   GL115881   2.576   0.686   6.718  0.0347 -0.0137 -0.0207
 1035loPI   GL215882   2.280   0.716   6.663  0.3110  0.2254 -0.3349
 1035loPI   C1A15883   2.526   0.808   7.166  0.0751 -0.2774 -0.1228
 1035loPI   C2A15884   2.507   0.779   7.626 -0.2936 -0.1498  0.0784
 1035loPI   C3A15885   2.591   0.737   8.086 -0.2560 -0.3579 -0.0801
 1035loPI   C4A15886   2.728   0.745   8.539 -0.3908 -0.3258 -0.1170
 1035loPI   C5A15887   2.735   1.193   8.624 -0.1879 -0.0355 -0.2708
 1035loPI   C6A15888   2.797   1.588   8.718  0.1674  0.0669  0.0562
 1035loPI   C1B15889   2.088   0.498   7.084 -0.0831 -0.0314  0.0985
 1035loPI   C2B15890   2.086   0.527   7.507  0.0341  0.1143  0.0625
 1035loPI   C3B15891   2.185   0.480   7.984  0.1195  0.3335  0.0171
 1035loPI   C4B15892   2.265   0.491   8.429  0.3201 -0.1584  0.1874
 1036loPI    C115893   7.031   9.571   6.095  0.0154  0.0453 -0.0126
 1036loPI    C215894   6.720   9.507   5.851  0.0002  0.0550  0.0042
 1036loPI    C315895   7.094   9.460   5.715 -0.0037  0.2422 -0.0744
 1036loPI   PO415896   7.029   9.424   6.265 -0.0081 -0.3738  0.0673
 1036loPI   GL115897   6.991   9.413   6.609  0.0204 -0.2231  0.3005
 1036loPI   GL215898   6.755   9.218   6.717 -0.0333  0.1976 -0.1996
 1036loPI   C1A15899   6.937   9.681   6.909 -0.2834 -0.2193  0.1279
 1036loPI   C2A15900   6.906   9.841   7.325  0.0772 -0.0705  0.4498
 1036loPI   C3A15901   6.895   9.676   7.719  0.0844 -0.0110 -0.2019
 1036loPI   C4A15902   6.892   9.662   8.090  0.0625 -0.0325  0.1292
 1036loPI   C5A15903   6.951   9.615   8.651  0.0624 -0.0905 -0.0381
 1036loPI   C6A15904   6.801   9.535   9.053 -0.1236  0.2053 -0.0724
 1036loPI   C1B15905   6.854   9.179   7.171  0.1419 -0.0474 -0.2438
 1036loPI   C2B15906   6.935   9.151   7.590 -0.1776 -0.1202  0.1503
 1036loPI   C3B15907   6.907   9.167   7.927  0.0351 -0.2892 -0.2833
 1036loPI   C4B15908   6.933   9.188   8.386 -0.1910 -0.1543  0.0837
 1037loPI    C115909  17.305   1.492   6.040 -0.2530 -0.1234 -0.3422
 1037loPI    C215910  17.353   1.298   5.693  0.0242 -0.1889 -0.2696
 1037loPI    C315911  17.616   1.578   5.804 -0.0715 -0.1577 -0.1186
 1037loPI   PO415912  17.125   1.311   6.192 -0.0748 -0.0886  0.1089
 1037loPI   GL115913  17.214   1.292   6.616  0.0994 -0.0955  0.3226
 1037loPI   GL215914  16.845   1.407   6.643 -0.0830  0.0620  0.0825
 1037loPI   C1A15915  17.155   1.214   7.117 -0.1930 -0.1199 -0.0124
 1037loPI   C2A15916  17.146   1.210   7.565 -0.0506  0.1558  0.0297
 1037loPI   C3A15917  17.227   1.241   7.993 -0.2064 -0.2342 -0.1274
 1037loPI   C4A15918  17.397   1.326   8.454  0.0168 -0.3172  0.0773
 1037loPI   C5A15919  17.253   1.560   8.688 -0.1589  0.1060 -0.0583
 1037loPI   C6A15920  17.259   1.790   9.067  0.0467  0.3284  0.0617
 1037loPI   C1B15921  16.750   1.472   7.021  0.0658  0.0174  0.0173
 1037loPI   C2B15922  16.730   1.485   7.523 -0.3388  0.3034  0.3678
 1037loPI   C3B15923  16.824   1.490   7.942 -0.0276  0.1440  0.0612
 1037loPI   C4B15924  16.868   1.294   8.345  0.0461  0.2727 -0.3322
 1038loPI    C115925   6.209   5.000   5.991  0.1592 -0.1687  0.0271
 1038loPI    C215926   6.329   5.185   5.657  0.0530 -0.0113  0.0750
 1038loPI    C315927   6.226   4.798   5.646  0.2911 -0.0736 -0.0226
 1038loPI   PO415928   6.437   4.935   6.128  0.0005  0.1542 -0.0502
 1038loPI   GL115929   6.507   4.883   6.558 -0.0573  0.0536  0.0162
 1038loPI   GL215930   6.190   4.955   6.612  0.0528  0.0830 -0.2729
 1038loPI   C1A15931   6.534   4.809   6.964 -0.0719  0.1927  0.2223
 1038loPI   C2A15932   6.574   4.751   7.365  0.1323  0.1553 -0.1817
 1038loPI   C3A15933   6.537   4.819   7.764  0.2904 -0.2604 -0.0320
 1038loPI   C4A15934   6.458   4.882   8.246 -0.1645  0.3840  0.2745
 1038loPI   C5A15935   6.626   5.073   8.604  0.0435 -0.1100  0.1883
 1038loPI   C6A15936   6.640   5.256   8.983  0.1368  0.1505 -0.2053
 1038loPI   C1B15937   6.117   5.024   7.054  0.2176  0.2235  0.3453
 1038loPI   C2B15938   6.007   4.965   7.433  0.0014 -0.1284  0.1175
 1038loPI   C3B15939   6.038   5.053   7.846 -0.3025  0.2980 -0.3801
 1038loPI   C4B15940   5.978   5.066   8.270 -0.0503 -0.2564  0.1429
 1039loPI    C115941   2.035  10.970   5.770  0.1066  0.2412 -0.0070
 1039loPI    C215942   1.651  10.870   5.717  0.1909 -0.1398  0.0692
 1039loPI    C315943   1.848  11.068   5.430  0.0117 -0.1770 -0.0817
 1039loPI   PO415944   2.080  10.794   5.921 -0.0294 -0.0688  0.2932
 1039loPI   GL115945   1.977  10.789   6.334 -0.0287  0.0852 -0.0201
 1039loPI   GL215946   1.717  10.729   6.525 -0.2290  0.1812 -0.1888
 1039loPI   C1A15947   2.185  10.978   6.623  0.1016  0.0480  0.0015
 1039loPI   C2A15948   2.220  11.099   7.031 -0.0299  0.0763 -0.0765
 1039loPI   C3A15949   2.273  11.016   7.417 -0.2006  0.1383 -0.0863
 1039loPI   C4A15950   2.301  11.121   7.850 -0.0755  0.0009  0.0494
 1039loPI   C5A15951   2.330  11.363   8.253  0.0112  0.2137  0.1096
 1039loPI   C6A15952   2.541  11.457   8.612  0.1918 -0.0780  0.0863
 1039loPI   C1B15953   1.779  10.702   6.891 -0.2909  0.3880 -0.0223
 1039loPI   C2B15954   1.810  10.793   7.310  0.0193 -0.0542  0.1191
 1039loPI   C3B15955   1.837  10.839   7.793 -0.4253 -0.1390  0.1552
 1039loPI   C4B15956   1.920  11.009   8.169 -0.2153  0.1632 -0.0665
 1040loPI    C115957   7.567   2.509   6.081  0.0026  0.0910 -0.0872
 1040loPI    C215958   7.658   2.775   5.796  0.3596 -0.1163 -0.1725
 1040loPI    C315959   7.524   2.412   5.695  0.2110 -0.0921 -0.0661
 1040loPI   PO415960   7.447   2.560   6.198 -0.0457  0.0650  0.1918
 1040loPI   GL115961   7.464   2.527   6.662 -0.3631 -0.1505 -0.1607
 1040loPI   GL215962   7.438   2.190   6.588 -0.1251  0.4558  0.2027
 1040loPI   C1A15963   7.409   2.622   7.102  0.0172  0.1653  0.2856
 1040loPI   C2A15964   7.435   2.706   7.491 -0.1377  0.1767 -0.1922
 1040loPI   C3A15965   7.444   2.721   7.917  0.5091 -0.1380  0.0984
 1040loPI   C4A15966   7.574   2.734   8.319 -0.1753 -0.0318  0.0414
 1040loPI   C5A15967   7.346   2.935   8.733  0.0712  0.1199  0.2327
 1040loPI   C6A15968   7.244   3.166   9.086 -0.2210  0.1711 -0.2531
 1040loPI   C1B15969   7.434   2.155   7.075  0.0746  0.0962  0.2433
 1040loPI   C2B15970   7.454   2.099   7.545 -0.2866  0.2949  0.3826
 1040loPI   C3B15971   7.482   2.231   8.000 -0.3174  0.0518  0.0373
 1040loPI   C4B15972   7.429   2.276   8.365 -0.0578  0.1933 -0.0053
 1041loPI    C115973   5.152   7.096   5.646  0.1110 -0.0973  0.1283
 1041loPI    C215974   5.231   7.355   5.352 -0.0727 -0.1273  0.0512
 1041loPI    C315975   5.244   6.961   5.281  0.1616 -0.1399  0.1567
 1041loPI   PO415976   5.236   7.227   5.878 -0.1818 -0.0452  0.0762
 1041loPI   GL115977   5.170   7.214   6.261  0.1410  0.0274  0.3199
 1041loPI   GL215978   5.487   7.313   6.334  0.0793 -0.0999 -0.1501
 1041loPI   C1A15979   5.085   7.082   6.648  0.1811 -0.1210  0.0011
 1041loPI   C2A15980   5.081   7.010   7.090 -0.2207 -0.2065 -0.2691
 1041loPI   C3A15981   5.068   7.108   7.593 -0.0496 -0.0602  0.2807
 1041loPI   C4A15982   5.167   7.102   8.074 -0.1895  0.1612  0.2942
 1041loPI   C5A15983   4.982   6.888   8.505 -0.1490  0.3139 -0.2179
 1041loPI   C6A15984   4.816   7.134   8.828  0.1336  0.1407 -0.2148
 1041loPI   C1B15985   5.543   7.326   6.822  0.0058  0.0809 -0.2033
 1041loPI   C2B15986   5.507   7.246   7.250 -0.1872 -0.0800 -0.0787
 1041loPI   C3B15987   5.495   7.356   7.690  0.1065 -0.1512  0.2115
 1041loPI   C4B15988   5.622   7.332   8.084 -0.0494 -0.1813 -0.0225
 1042loPI    C115989  11.096  12.287   5.631  0.3322 -0.0009 -0.1718
 1042loPI    C215990  11.060  11.913   5.770  0.0763  0.1191  0.0979
 1042loPI    C315991  11.215  11.978   5.407  0.2376 -0.2388  0.0986
 1042loPI   PO415992  11.207  12.408   5.750 -0.0295 -0.2385  0.1939
 1042loPI   GL115993  11.196  12.427   6.198  0.1252 -0.0698  0.0794
 1042loPI   GL215994  11.022  12.213   6.205  0.0833  0.0028 -0.3358
 1042loPI   C1A15995  11.004  12.566   6.568 -0.0338  0.1904 -0.0824
 1042loPI   C2A15996  11.129  12.716   6.936 -0.1618 -0.1980 -0.0277
 1042loPI   C3A15997  11.087  12.685   7.348 -0.0889 -0.1456 -0.1855
 1042loPI   C4A15998  11.023  12.771   7.756  0.0150  0.2610  0.1578
 1042loPI   C5A15999  11.133  12.761   8.130 -0.0216  0.1305  0.4531
 1042loPI   C6A16000  10.982  12.633   8.555 -0.0502 -0.1363  0.1466
 1042loPI   C1B16001  11.028  12.036   6.599  0.0835 -0.0475  0.1284
 1042loPI   C2B16002  11.062  12.221   7.086  0.0497  0.4334 -0.4014
 1042loPI   C3B16003  11.044  12.229   7.595  0.1118 -0.3407  0.1914
 1042loPI   C4B16004  11.065  12.295   8.041  0.1693 -0.1207 -0.1237
 1043loPI    C116005   7.937   5.789   6.155  0.0398 -0.1300  0.0035
 1043loPI    C216006   7.682   5.578   5.929  0.0992 -0.1180 -0.0749
 1043loPI    C316007   7.804   5.940   5.810  0.1521 -0.1232 -0.0371
 1043loPI   PO416008   8.054   5.686   6.317  0.1900 -0.1857 -0.0297
 1043loPI   GL116009   8.068   5.738   6.685  0.1843 -0.2192  0.2720
 1043loPI   GL216010   8.086   5.446   6.856 -0.3523  0.1356  0.0362
 1043loPI   C1A16011   7.928   6.058   7.041 -0.1384 -0.0741 -0.1601
 1043loPI   C2A16012   7.806   6.060   7.376  0.3023 -0.1372  0.0405
 1043loPI   C3A16013   7.818   6.115   7.760 -0.1070 -0.2110 -0.1191
 1043loPI   C4A16014   7.874   6.090   8.085 -0.2297  0.1596 -0.0319
 1043loPI   C5A16015   7.935   6.152   8.417 -0.4102 -0.2014 -0.0306
 1043loPI   C6A16016   7.632   6.206   8.754  0.0042 -0.0148 -0.0242
 1043loPI   C1B16017   7.780   5.529   7.291 -0.6480  0.1573 -0.0619
 1043loPI   C2B16018   7.822   5.533   7.801 -0.1943 -0.2031  0.1768
 1043loPI   C3B16019   7.922   5.558   8.290 -0.3014  0.2576 -0.0460
 1043loPI   C4B16020   7.804   5.642   8.702  0.0850  0.2949 -0.0948
 1044loPI    C116021   6.953   4.769   6.007  0.0789  0.1988  0.0022
 1044loPI    C216022   6.830   5.084   5.793  0.0123  0.1551 -0.0246
 1044loPI    C316023   6.702   4.717   5.699 -0.1359  0.1520  0.1823
 1044loPI   PO416024   6.877   4.771   6.264  0.0526  0.0508 -0.0512
 1044loPI   GL116025   6.984   4.560   6.570  0.0154  0.0040 -0.1168
 1044loPI   GL216026   7.147   4.848   6.701 -0.1514 -0.4022  0.3338
 1044loPI   C1A16027   6.979   4.513   7.019 -0.2030 -0.1349  0.2414
 1044loPI   C2A16028   7.016   4.428   7.438 -0.0516 -0.2310 -0.0097
 1044loPI   C3A16029   6.981   4.510   7.858  0.2651  0.1464  0.0632
 1044loPI   C4A16030   6.981   4.596   8.207  0.1412 -0.0283  0.0211
 1044loPI   C5A16031   6.983   4.657   8.662  0.2133  0.0717  0.1353
 1044loPI   C6A16032   6.973   4.663   9.067 -0.1104  0.0580 -0.1045
 1044loPI   C1B16033   7.002   5.010   7.095 -0.1279 -0.0308 -0.0124
 1044loPI   C2B16034   6.941   5.027   7.571 -0.2242 -0.2412 -0.0575
 1044loPI   C3B16035   7.008   5.071   7.897  0.1094  0.0955 -0.1703
 1044loPI   C4B16036   7.026   5.154   8.285  0.0543  0.0351 -0.2791
 1045loPI    C116037   4.414  14.965   5.910  0.0015 -0.1565 -0.0004
 1045loPI    C216038   4.275  15.305   6.068 -0.0251 -0.2940  0.2801
 1045loPI    C316039   4.238  15.237   5.675  0.0476  0.0569  0.2084
 1045loPI   PO416040   4.303  14.827   6.053  0.1789  0.0593  0.3337
 1045loPI   GL116041   4.376  15.006   6.523  0.0255 -0.0157 -0.3653
 1045loPI   GL216042   4.023  14.798   6.470  0.1813 -0.0077 -0.4721
 1045loPI   C1A16043   4.411  15.024   7.029 -0.2369  0.0117 -0.1496
 1045loPI   C2A16044   4.433  14.992   7.451 -0.1695  0.1399  0.0395
 1045loPI   C3A16045   4.449  14.933   7.857 -0.2130  0.0399 -0.0188
 1045loPI   C4A16046   4.606  14.819   8.282 -0.1708  0.2378  0.1449
 1045loPI   C5A16047   4.857  15.062   8.545 -0.0562 -0.0118 -0.3827
 1045loPI   C6A16048   4.796  15.049   8.963  0.0244 -0.0202  0.0863
 1045loPI   C1B16049   3.921  14.820   6.899 -0.0361 -0.0658  0.0502
 1045loPI   C2B16050   3.967  14.799   7.408  0.0118  0.3824 -0.2953
 1045loPI   C3B16051   3.985  14.766   7.831  0.0786 -0.2052 -0.0113
 1045loPI   C4B16052   4.044  14.844   8.313  0.3023  0.1979 -0.3265
 1046loPI    C116053   8.516  15.385   5.790 -0.0467 -0.1572 -0.2158
 1046loPI    C216054   8.743  15.305   5.470  0.2707 -0.0828 -0.0141
 1046loPI    C316055   8.532  15.644   5.486  0.3578 -0.0249 -0.0885
 1046loPI   PO416056   8.652  15.404   5.976  0.0074  0.2438  0.0137
 1046loPI   GL116057   8.651  15.126   6.278 -0.2173 -0.0889  0.0500
 1046loPI   GL216058   8.291  15.236   6.436  0.2274  0.1350 -0.0404
 1046loPI   C1A16059   8.841  15.152   6.633 -0.2976  0.0429 -0.2029
 1046loPI   C2A16060   8.858  15.008   7.044  0.0221 -0.1813 -0.0434
 1046loPI   C3A16061   8.905  15.087   7.503  0.1351  0.0615 -0.1741
 1046loPI   C4A16062   8.884  15.076   7.950  0.1160 -0.0721 -0.0091
 1046loPI   C5A16063   8.731  15.201   8.333 -0.0485  0.1484  0.0746
 1046loPI   C6A16064   8.827  15.096   8.838  0.1827  0.0787 -0.0694
 1046loPI   C1B16065   8.401  15.316   6.909 -0.0202  0.2908  0.1777
 1046loPI   C2B16066   8.492  15.303   7.324  0.0987 -0.2540 -0.0681
 1046loPI   C3B16067   8.431  15.286   7.812 -0.0898 -0.0537 -0.0494
 1046loPI   C4B16068   8.292  15.223   8.109 -0.1216 -0.0778  0.1144
 1047loPI    C116069  10.519   0.401   5.896 -0.1954  0.0601  0.0596
 1047loPI    C216070  10.180   0.313   5.703 -0.1161 -0.1862  0.0294
 1047loPI    C316071  10.519   0.371   5.497 -0.1374  0.0544  0.0598
 1047loPI   PO416072  10.510   0.306   6.176 -0.0778 -0.1000 -0.5315
 1047loPI   GL116073  10.464   0.187   6.446 -0.1466  0.0129 -0.4102
 1047loPI   GL216074  10.196   0.071   6.592  0.1101 -0.0589 -0.0198
 1047loPI   C1A16075  10.617   0.241   6.823 -0.1448 -0.2923  0.2117
 1047loPI   C2A16076  10.598   0.380   7.247  0.3126  0.2259 -0.0564
 1047loPI   C3A16077  10.495   0.410   7.642 -0.2698 -0.0881  0.0453
 1047loPI   C4A16078  10.545   0.512   8.009 -0.0689 -0.2286  0.0734
 1047loPI   C5A16079  10.581   0.459   8.406 -0.0660 -0.0955  0.2252
 1047loPI   C6A16080  10.439   0.708   8.739 -0.0653  0.0642  0.2231
 1047loPI   C1B16081  10.179   0.075   7.047  0.2901  0.0608  0.1856
 1047loPI   C2B16082  10.159   0.063   7.472  0.0740 -0.2350 -0.0414
 1047loPI   C3B16083  10.167   0.121   7.898  0.1803 -0.1751  0.0033
 1047loPI   C4B16084  10.172   0.110   8.325  0.1579 -0.1623 -0.1951
 1048loPI    C116085  12.127   1.013   5.843  0.2699 -0.0775  0.0883
 1048loPI    C216086  12.323   0.952   5.500 -0.0790 -0.1866 -0.0970
 1048loPI    C316087  12.068   1.258   5.532  0.1001 -0.0583  0.1350
 1048loPI   PO416088  12.290   1.020   6.028 -0.0967  0.2552  0.0924
 1048loPI   GL116089  12.366   1.188   6.459 -0.1692 -0.0649  0.3153
 1048loPI   GL216090  12.450   1.472   6.330  0.0634 -0.2129  0.1575
 1048loPI   C1A16091  12.299   1.419   6.832 -0.2226 -0.0252 -0.0446
 1048loPI   C2A16092  12.278   1.415   7.236  0.0740 -0.1444 -0.2879
 1048loPI   C3A16093  12.375   1.416   7.628  0.0934  0.1104 -0.0994
 1048loPI   C4A16094  12.336   1.447   8.068 -0.2152 -0.0796 -0.1760
 1048loPI   C5A16095  12.610   1.381   8.391  0.4092 -0.1874 -0.0326
 1048loPI   C6A16096  12.948   1.215   8.603  0.0842  0.1956 -0.1964
 1048loPI   C1B16097  12.734   1.639   6.641 -0.1031  0.2130 -0.0156
 1048loPI   C2B16098  12.739   1.724   7.116 -0.0086 -0.1642 -0.1982
 1048loPI   C3B16099  12.848   1.649   7.583  0.1550  0.1228  0.0446
 1048loPI   C4B16100  12.764   1.654   7.942  0.1739 -0.2415 -0.1292
 1049loPI    C116101   7.216  17.137   6.026  0.0542  0.0593  0.1174
 1049loPI    C216102   6.872  16.965   5.916  0.0114  0.2733 -0.0922
 1049loPI    C316103   6.974  17.321   5.766  0.4541  0.0892 -0.2457
 1049loPI   PO416104   7.191  17.134   6.258 -0.0078  0.1658 -0.2345
 1049loPI   GL116105   6.971  17.149   6.611 -0.0854  0.3008 -0.0488
 1049loPI   GL216106   6.770  16.922   6.456 -0.1567 -0.0073  0.0282
 1049loPI   C1A16107   7.059  17.168   7.067  0.1772 -0.0883 -0.3178
 1049loPI   C2A16108   7.091  17.235   7.586 -0.2082 -0.1254  0.1412
 1049loPI   C3A16109   7.092  17.213   8.003  0.1729  0.1155  0.3617
 1049loPI   C4A16110   6.955  16.887   8.363 -0.1557 -0.0961 -0.2486
 1049loPI   C5A16111   6.977  16.643   8.688 -0.1709  0.0583 -0.2106
 1049loPI   C6A16112   6.753  16.246   8.881 -0.3989  0.1128 -0.2606
 1049loPI   C1B16113   6.990  16.697   6.848  0.1219  0.3917 -0.0310
 1049loPI   C2B16114   7.109  16.650   7.289  0.1286 -0.0661 -0.1549
 1049loPI   C3B16115   7.377  16.412   7.524 -0.0427 -0.2349  0.3144
 1049loPI   C4B16116   7.605  16.408   7.896 -0.2386  0.1376 -0.1624
 1050loPI    C116117   4.282   0.437   5.914  0.0358 -0.0287 -0.0276
 1050loPI    C216118   4.616   0.219   5.886  0.0476 -0.0274  0.0942
 1050loPI    C316119   4.281   0.095   5.707  0.0853 -0.0837  0.0623
 1050loPI   PO416120   4.322   0.564   6.137 -0.2732 -0.2106  0.1222
 1050loPI   GL116121   4.206   0.477   6.591 -0.1556 -0.2188 -0.0083
 1050loPI   GL216122   4.272   0.753   6.761  0.2028  0.2080 -0.3655
 1050loPI   C1A16123   4.350   0.317   7.015 -0.2610 -0.2255 -0.1348
 1050loPI   C2A16124   4.296   0.177   7.354  0.0018 -0.0841  0.2030
 1050loPI   C3A16125   4.397   0.246   7.703  0.2973  0.0343  0.1093
 1050loPI   C4A16126   4.351   0.344   8.134 -0.0969  0.2772  0.2121
 1050loPI   C5A16127   4.571   0.501   8.429  0.2664  0.0407 -0.2349
 1050loPI   C6A16128   4.710   0.850   8.626  0.1493  0.1276  0.0476
 1050loPI   C1B16129   4.216   0.983   7.070 -0.1139  0.1066  0.0415
 1050loPI   C2B16130   4.211   1.093   7.439  0.0354 -0.0040  0.0253
 1050loPI   C3B16131   4.306   1.071   7.747  0.0893 -0.0842 -0.0903
 1050loPI   C4B16132   4.348   0.797   8.053 -0.3327  0.0055 -0.1049
 1051loPI    C116133   1.059  10.281   5.750  0.1481  0.2198  0.1373
 1051loPI    C216134   1.406  10.442   5.635  0.2364 -0.1227 -0.0892
 1051loPI    C316135   1.238  10.152   5.416 -0.0970 -0.0935  0.1219
 1051loPI   PO416136   1.107  10.273   6.041  0.2622  0.0866 -0.0049
 1051loPI   GL116137   1.381  10.138   6.386  0.0405  0.0187  0.0871
 1051loPI   GL216138   1.491   9.864   6.396  0.3322  0.2517  0.0297
 1051loPI   C1A16139   1.363  10.436   6.731  0.1530  0.0437  0.2357
 1051loPI   C2A16140   1.311  10.488   7.185 -0.1058  0.1041  0.0728
 1051loPI   C3A16141   1.396  10.559   7.616 -0.2348  0.2330  0.1887
 1051loPI   C4A16142   1.339  10.605   8.136 -0.1757 -0.0859  0.0288
 1051loPI   C5A16143   1.254  10.532   8.580 -0.0238  0.0153 -0.2771
 1051loPI   C6A16144   1.244  10.813   8.889  0.0271 -0.1951 -0.2283
 1051loPI   C1B16145   1.271   9.934   6.783 -0.0701  0.0006 -0.2069
 1051loPI   C2B16146   1.298   9.951   7.174 -0.0566  0.0146  0.0725
 1051loPI   C3B16147   1.409  10.059   7.593  0.3685 -0.2969  0.0629
 1051loPI   C4B16148   1.417  10.101   8.049 -0.0176 -0.0653  0.1545
 1052loPI    C116149   9.670   6.983   6.174 -0.1542  0.1229 -0.0359
 1052loPI    C216150   9.856   6.776   5.887 -0.3328  0.1155 -0.1477
 1052loPI    C316151   9.599   7.067   5.790 -0.0611  0.4130  0.0084
 1052loPI   PO416152   9.815   7.024   6.393  0.2265  0.0829  0.3240
 1052loPI   GL116153   9.773   6.856   6.745 -0.1433  0.3637 -0.0435
 1052loPI   GL216154  10.085   6.580   6.768  0.0745 -0.0183 -0.2358
 1052loPI   C1A16155   9.631   6.761   7.128 -0.0970 -0.0739  0.2357
 1052loPI   C2A16156   9.609   6.630   7.507 -0.1767 -0.2945  0.0752
 1052loPI   C3A16157   9.610   6.732   7.916 -0.2610  0.4063  0.3196
 1052loPI   C4A16158   9.688   6.736   8.326  0.3621 -0.2137 -0.0594
 1052loPI   C5A16159   9.704   6.822   8.749 -0.1256  0.1092  0.0751
 1052loPI   C6A16160   9.607   6.938   9.143  0.0961  0.0592 -0.1304
 1052loPI   C1B16161  10.053   6.366   7.152  0.1897  0.3744 -0.0687
 1052loPI   C2B16162  10.129   6.411   7.589 -0.1669 -0.1158 -0.1335
 1052loPI   C3B16163  10.046   6.555   8.096  0.2446 -0.0648  0.0462
 1052loPI   C4B16164  10.184   6.475   8.557 -0.0639 -0.0394  0.0568
 1053loPI    C116165   5.723   6.043   5.797 -0.3304  0.1370 -0.1017
 1053loPI    C216166   5.981   6.250   5.571  0.1337 -0.0727  0.2193
 1053loPI    C316167   5.886   5.874   5.473 -0.2099  0.0679 -0.0061
 1053loPI   PO416168   5.800   6.055   6.017  0.3159  0.2262  0.0442
 1053loPI   GL116169   5.603   5.972   6.427 -0.2498 -0.0663  0.3060
 1053loPI   GL216170   5.401   5.721   6.555 -0.1057 -0.1912 -0.1666
 1053loPI   C1A16171   5.572   6.228   6.779  0.1697  0.1729 -0.1293
 1053loPI   C2A16172   5.510   6.274   7.253  0.1872  0.4093 -0.1383
 1053loPI   C3A16173   5.542   6.303   7.653 -0.0291 -0.0903  0.0803
 1053loPI   C4A16174   5.640   6.269   8.051  0.2679 -0.3277 -0.1251
 1053loPI   C5A16175   5.647   6.208   8.468 -0.2649  0.0110  0.2079
 1053loPI   C6A16176   5.731   6.334   8.982  0.0465  0.1875  0.1301
 1053loPI   C1B16177   5.530   5.746   6.975 -0.1503  0.0812  0.1157
 1053loPI   C2B16178   5.571   5.725   7.384 -0.1046  0.0702 -0.0131
 1053loPI   C3B16179   5.531   5.716   7.830 -0.2814  0.0156  0.0149
 1053loPI   C4B16180   5.703   5.795   8.165 -0.2445 -0.0660  0.0575
 1054loPI    C116181   2.110   8.059   5.981  0.0859 -0.0511  0.0451
 1054loPI    C216182   1.818   8.181   5.736  0.2027 -0.0361 -0.0885
 1054loPI    C316183   1.901   7.791   5.769  0.0389 -0.0569  0.0987
 1054loPI   PO416184   2.108   8.215   6.207  0.1131  0.3622  0.0972
 1054loPI   GL116185   1.904   8.218   6.573 -0.1686 -0.1052  0.0017
 1054loPI   GL216186   1.809   7.951   6.699 -0.3460 -0.2507 -0.0776
 1054loPI   C1A16187   1.919   8.261   7.060  0.2591  0.1898 -0.1256
 1054loPI   C2A16188   1.881   8.212   7.521  0.0542  0.1653 -0.0847
 1054loPI   C3A16189   1.927   8.263   7.978  0.2685  0.1923 -0.2786
 1054loPI   C4A16190   1.930   8.223   8.388  0.0458 -0.1192 -0.1495
 1054loPI   C5A16191   2.045   8.053   8.711 -0.1194 -0.0026  0.1248
 1054loPI   C6A16192   2.129   7.785   9.091  0.1697 -0.3130  0.0211
 1054loPI   C1B16193   1.869   7.681   7.027  0.0921  0.0088 -0.0137
 1054loPI   C2B16194   1.911   7.733   7.441  0.1343 -0.3505 -0.2643
 1054loPI   C3B16195   1.933   7.750   7.871 -0.1952  0.0574 -0.1952
 1054loPI   C4B16196   1.972   7.745   8.309  0.2298  0.2664  0.1267
 1055loPI    C116197  17.076  15.290   5.685  0.4146 -0.1536 -0.0358
 1055loPI    C216198  17.031  14.932   5.857 -0.0851 -0.0645  0.0348
 1055loPI    C316199  16.981  14.971   5.462 -0.0055 -0.0753  0.0235
 1055loPI   PO416200  16.970  15.472   5.955 -0.0469  0.1022 -0.0072
 1055loPI   GL116201  16.752  15.448   6.361 -0.0022 -0.0610  0.1942
 1055loPI   GL216202  16.897  15.069   6.282 -0.0637  0.1644  0.1190
 1055loPI   C1A16203  16.740  15.622   6.723  0.2799  0.0503 -0.2208
 1055loPI   C2A16204  16.771  15.689   7.187  0.3084  0.0167 -0.0611
 1055loPI   C3A16205  16.759  15.711   7.648 -0.0449 -0.0257  0.0612
 1055loPI   C4A16206  16.817  15.675   8.162  0.0515 -0.0715  0.1297
 1055loPI   C5A16207  16.581  15.875   8.595 -0.1789 -0.0471  0.0681
 1055loPI   C6A16208  16.295  16.084   8.825  0.0584  0.0206  0.1911
 1055loPI   C1B16209  16.794  15.062   6.705  0.0447 -0.1088  0.1501
 1055loPI   C2B16210  16.807  15.148   7.103  0.0801 -0.1009  0.0200
 1055loPI   C3B16211  16.789  15.254   7.535 -0.1890 -0.1695 -0.2560
 1055loPI   C4B16212  16.809  15.189   8.015  0.4539 -0.1386 -0.0991
 1056loPI    C116213   3.223   0.764   6.138 -0.1234  0.0018 -0.0849
 1056loPI    C216214   2.848   0.816   6.008 -0.0878  0.1666 -0.1232
 1056loPI    C316215   3.148   0.779   5.746 -0.0526  0.2234 -0.0913
 1056loPI   PO416216   3.385   0.859   6.301  0.1483 -0.2289 -0.3102
 1056loPI   GL116217   3.318   0.814   6.734  0.0964 -0.2414  0.1343
 1056loPI   GL216218   3.721   0.954   6.840  0.2994  0.0886  0.1482
 1056loPI   C1A16219   3.319   0.726   7.219 -0.0474  0.2939 -0.2298
 1056loPI   C2A16220   3.343   0.725   7.557  0.0091  0.0982  0.3764
 1056loPI   C3A16221   3.326   0.705   7.979  0.0732  0.0184  0.0798
 1056loPI   C4A16222   3.337   0.785   8.414  0.0492 -0.0179 -0.2278
 1056loPI   C5A16223   3.231   0.891   8.789 -0.0487 -0.0409  0.2184
 1056loPI   C6A16224   2.779   0.939   9.063  0.0889  0.0770 -0.0823
 1056loPI   C1B16225   3.762   1.000   7.308 -0.3309  0.1010 -0.0856
 1056loPI   C2B16226   3.732   1.023   7.735 -0.0413 -0.0858 -0.1186
 1056loPI   C3B16227   3.823   1.181   8.138 -0.2074  0.2354  0.2226
 1056loPI   C4B16228   3.868   1.422   8.482 -0.2539  0.0434  0.0802
 1057loPI    C116229   0.905   4.881   5.873 -0.0486 -0.0612  0.0306
 1057loPI    C216230   1.098   4.899   5.523  0.1096 -0.0701  0.1169
 1057loPI    C316231   0.699   4.918   5.532  0.1081 -0.0057 -0.0590
 1057loPI   PO416232   0.968   4.730   6.072 -0.1121  0.0377  0.2479
 1057loPI   GL116233   0.766   4.531   6.383  0.0873 -0.0928 -0.1410
 1057loPI   GL216234   0.729   4.829   6.502 -0.0781 -0.0930  0.0904
 1057loPI   C1A16235   0.678   4.238   6.700 -0.1821  0.0132  0.1173
 1057loPI   C2A16236   0.704   4.208   7.079 -0.0110  0.0660 -0.1985
 1057loPI   C3A16237   0.863   4.239   7.502  0.0876  0.2417 -0.1293
 1057loPI   C4A16238   0.891   4.339   7.989 -0.1707 -0.0301  0.0301
 1057loPI   C5A16239   0.630   4.374   8.278  0.0123  0.3527  0.1925
 1057loPI   C6A16240   0.316   4.608   8.521 -0.0204 -0.1215  0.1751
 1057loPI   C1B16241   0.747   4.763   6.986 -0.2979 -0.0199  0.2607
 1057loPI   C2B16242   0.785   4.785   7.401  0.2198  0.1718  0.0571
 1057loPI   C3B16243   0.730   4.843   7.837 -0.0096  0.1444 -0.1250
 1057loPI   C4B16244   0.828   4.887   8.316 -0.0766  0.0081  0.2005
 1058loPI    C116245  16.331   7.258   5.787 -0.0703  0.1914 -0.0719
 1058loPI    C216246  16.144   6.906   5.809 -0.1944  0.2666  0.1027
 1058loPI    C316247  16.539   6.919   5.750 -0.1890  0.0987  0.0966
 1058loPI   PO416248  16.194   7.348   6.033 -0.0559 -0.0696  0.0879
 1058loPI   GL116249  16.100   7.308   6.492  0.0691 -0.0607  0.3427
 1058loPI   GL216250  15.914   7.121   6.642 -0.0919 -0.1467 -0.1874
 1058loPI   C1A16251  16.240   7.534   6.875  0.1751 -0.0898  0.1278
 1058loPI   C2A16252  16.474   7.615   7.243  0.0698 -0.1311  0.0802
 1058loPI   C3A16253  16.558   7.543   7.640  0.0613  0.1951  0.2494
 1058loPI   C4A16254  16.588   7.657   8.047 -0.0930 -0.0685  0.1411
 1058loPI   C5A16255  16.784   7.622   8.415 -0.0116 -0.0093 -0.0553
 1058loPI   C6A16256  17.094   7.513   8.671  0.1876 -0.2871 -0.2070
 1058loPI   C1B16257  15.919   7.199   7.120  0.0191  0.0283  0.0696
 1058loPI   C2B16258  16.114   7.351   7.484 -0.1737 -0.3287  0.1428
 1058loPI   C3B16259  16.148   7.330   7.860 -0.0895 -0.0434  0.0356
 1058loPI   C4B16260  15.985   7.279   8.221 -0.0118  0.4152  0.1072
 1059loPI    C116261  13.824  16.830   5.433  0.2002 -0.0138  0.0570
 1059loPI    C216262  13.846  17.191   5.603  0.0927  0.0105  0.0202
 1059loPI    C316263  13.650  17.145   5.258  0.1924 -0.0647 -0.0268
 1059loPI   PO416264  13.775  16.622   5.693 -0.1246 -0.0797  0.2617
 1059loPI   GL116265  13.772  16.511   6.196  0.2382  0.1480 -0.2181
 1059loPI   GL216266  13.737  16.795   6.397  0.0578 -0.0375  0.1679
 1059loPI   C1A16267  13.725  16.381   6.679 -0.1983  0.1416  0.3514
 1059loPI   C2A16268  13.684  16.394   7.140 -0.0810 -0.0158 -0.1925
 1059loPI   C3A16269  13.643  16.357   7.598 -0.2696 -0.1136 -0.0425
 1059loPI   C4A16270  13.655  16.327   7.987  0.0598 -0.2176 -0.0744
 1059loPI   C5A16271  13.655  16.445   8.479 -0.1879 -0.1569 -0.0421
 1059loPI   C6A16272  13.568  16.770   8.695  0.0890 -0.0593  0.1020
 1059loPI   C1B16273  13.721  16.893   6.759  0.0248 -0.0578 -0.1368
 1059loPI   C2B16274  13.747  16.859   7.260  0.2075  0.2185 -0.3143
 1059loPI   C3B16275  13.593  16.892   7.712 -0.4458  0.1715 -0.0139
 1059loPI   C4B16276  13.623  16.854   8.171  0.0231  0.0227  0.0853
 1060loPI    C116277  12.940   5.725   5.804 -0.1009  0.2361 -0.0829
 1060loPI    C216278  12.859   5.518   5.472  0.1075  0.0210 -0.0022
 1060loPI    C316279  13.234   5.635   5.548  0.0442  0.1525  0.1105
 1060loPI   PO416280  12.831   5.622   6.028 -0.2330 -0.1469 -0.0266
 1060loPI   GL116281  12.948   5.446   6.339  0.0060 -0.4230 -0.1939
 1060loPI   GL216282  12.627   5.461   6.464  0.0341  0.0478 -0.1504
 1060loPI   C1A16283  13.118   5.620   6.703  0.0289 -0.1892  0.2015
 1060loPI   C2A16284  13.148   5.592   7.085  0.2560 -0.2169  0.0630
 1060loPI   C3A16285  13.183   5.591   7.494  0.1321  0.1174  0.0643
 1060loPI   C4A16286  13.242   5.660   7.876  0.0349  0.0039 -0.0364
 1060loPI   C5A16287  13.281   5.913   8.307 -0.1012  0.0256  0.2746
 1060loPI   C6A16288  13.157   6.003   8.748 -0.0162 -0.1638  0.2795
 1060loPI   C1B16289  12.739   5.356   6.849  0.0540 -0.0832  0.1738
 1060loPI   C2B16290  12.723   5.397   7.282 -0.0902 -0.1122  0.0105
 1060loPI   C3B16291  12.797   5.353   7.654 -0.0515 -0.1784  0.3173
 1060loPI   C4B16292  12.776   5.474   8.109 -0.1198 -0.0975  0.1211
 1061loPI    C116293   8.401   3.982   5.983  0.1602  0.2133 -0.0818
 1061loPI    C216294   8.040   4.032   5.820 -0.0037 -0.3630  0.0825
 1061loPI    C316295   8.359   3.979   5.585 -0.0189  0.1365 -0.0629
 1061loPI   PO416296   8.338   3.753   6.127  0.2825 -0.0540  0.1041
 1061loPI   GL116297   8.229   3.487   6.403 -0.1238  0.0893 -0.0521
 1061loPI   GL216298   8.261   3.726   6.583 -0.0397  0.1066 -0.0742
 1061loPI   C1A16299   8.192   3.166   6.654  0.0246 -0.2035 -0.0655
 1061loPI   C2A16300   8.249   3.132   7.072  0.0792 -0.2495  0.1459
 1061loPI   C3A16301   8.279   3.236   7.503 -0.1245  0.1119  0.0800
 1061loPI   C4A16302   8.307   3.291   7.967 -0.1134 -0.0671 -0.2119
 1061loPI   C5A16303   8.355   3.325   8.461 -0.0470 -0.2579  0.2191
 1061loPI   C6A16304   8.183   3.242   8.845 -0.1263 -0.2283  0.2683
 1061loPI   C1B16305   8.321   3.631   7.051 -0.0137  0.1257  0.3290
 1061loPI   C2B16306   8.307   3.734   7.506 -0.0064  0.1843 -0.1605
 1061loPI   C3B16307   8.298   3.802   7.920 -0.1264  0.0183  0.1378
 1061loPI   C4B16308   8.320   3.861   8.348 -0.1546 -0.0198 -0.2097
 1062loPI    C116309  12.295   3.148   5.971 -0.0201  0.1898  0.0058
 1062loPI    C216310  12.337   2.794   6.152 -0.1539  0.1115 -0.1143
 1062loPI    C316311  12.378   2.822   5.755 -0.1619  0.2276 -0.1074
 1062loPI   PO416312  12.479   3.317   6.127  0.0080 -0.1292 -0.0443
 1062loPI   GL116313  12.776   3.280   6.375  0.2530  0.0503 -0.0214
 1062loPI   GL216314  12.970   3.491   6.279 -0.0920 -0.0995  0.1642
 1062loPI   C1A16315  12.773   3.286   6.831 -0.2948  0.1223  0.1205
 1062loPI   C2A16316  12.721   3.334   7.216  0.0228  0.0892  0.2671
 1062loPI   C3A16317  12.807   3.270   7.642  0.2533  0.4271  0.0211
 1062loPI   C4A16318  12.710   3.183   8.125  0.0359  0.1475  0.4355
 1062loPI   C5A16319  12.711   3.291   8.445  0.0481 -0.0330 -0.1322
 1062loPI   C6A16320  12.477   3.591   8.716  0.1772 -0.0726 -0.1555
 1062loPI   C1B16321  13.163   3.536   6.654 -0.3178  0.0404 -0.0410
 1062loPI   C2B16322  13.166   3.544   7.063  0.2062  0.1610 -0.1064
 1062loPI   C3B16323  13.227   3.489   7.545  0.1124 -0.1873 -0.0937
 1062loPI   C4B16324  13.167   3.546   7.984 -0.5409 -0.0164  0.1058
 1063loPI    C116325   3.859   5.480   5.768  0.0397  0.1551  0.0488
 1063loPI    C216326   4.089   5.210   5.583 -0.2264  0.1149 -0.2316
 1063loPI    C316327   4.113   5.597   5.482  0.1268  0.1991  0.1432
 1063loPI   PO416328   3.647   5.295   5.939  0.0767 -0.1020  0.1033
 1063loPI   GL116329   3.599   5.033   6.325 -0.0454 -0.0984  0.1848
 1063loPI   GL216330   3.837   5.053   6.603 -0.0231  0.1306  0.1453
 1063loPI   C1A16331   3.425   4.861   6.697 -0.1155  0.1990 -0.1205
 1063loPI   C2A16332   3.357   4.874   7.124  0.0016  0.2394 -0.1092
 1063loPI   C3A16333   3.377   4.988   7.628 -0.0090  0.2017  0.1458
 1063loPI   C4A16334   3.387   4.996   8.081  0.1338 -0.2188 -0.1102
 1063loPI   C5A16335   3.274   4.953   8.504 -0.0502  0.3210  0.2204
 1063loPI   C6A16336   3.310   5.025   8.872 -0.4152 -0.2983 -0.2045
 1063loPI   C1B16337   3.860   5.122   7.063  0.0754  0.2433 -0.0234
 1063loPI   C2B16338   3.734   5.255   7.457 -0.0395  0.1617  0.1275
 1063loPI   C3B16339   3.830   5.205   7.878 -0.0008 -0.0036 -0.2411
 1063loPI   C4B16340   3.812   5.306   8.411  0.0201  0.0466 -0.0119
 1064loPI    C116341   1.618  14.741   5.883  0.0658 -0.3139 -0.3044
 1064loPI    C216342   1.828  14.594   6.190 -0.1099  0.0781  0.0119
 1064loPI    C316343   2.015  14.705   5.854  0.1199 -0.0831  0.0844
 1064loPI   PO416344   1.437  14.871   6.062 -0.0799 -0.1523  0.1328
 1064loPI   GL116345   1.232  14.866   6.494 -0.0933 -0.0168 -0.0603
 1064loPI   GL216346   1.393  14.629   6.463  0.1905 -0.1718  0.3508
 1064loPI   C1A16347   1.228  14.778   6.959 -0.1856 -0.2269  0.0308
 1064loPI   C2A16348   1.197  14.727   7.385  0.3700  0.2071  0.0836
 1064loPI   C3A16349   1.312  14.700   7.798  0.0327 -0.0942  0.3189
 1064loPI   C4A16350   1.341  14.788   8.235 -0.0610  0.2679  0.0236
 1064loPI   C5A16351   1.376  14.585   8.735 -0.0629 -0.1079  0.1482
 1064loPI   C6A16352   1.222  14.416   9.116 -0.1692  0.0338  0.0912
 1064loPI   C1B16353   1.672  14.434   6.834 -0.1017 -0.2897 -0.0989
 1064loPI   C2B16354   1.635  14.478   7.273 -0.1061  0.3112 -0.2793
 1064loPI   C3B16355   1.719  14.418   7.803 -0.0823 -0.1221  0.1492
 1064loPI   C4B16356   1.688  14.431   8.273  0.3232  0.0257  0.0082
 1065loPI    C116357   5.547   3.761   6.060 -0.2570 -0.2152  0.3079
 1065loPI    C216358   5.305   4.076   6.011  0.0603  0.0015  0.0915
 1065loPI    C316359   5.197   3.716   5.873 -0.1299  0.0991 -0.0172
 1065loPI   PO416360   5.610   3.651   6.240  0.1565 -0.2688 -0.1240
 1065loPI   GL116361   5.612   3.566   6.676  0.1761 -0.0554  0.3388
 1065loPI   GL216362   5.681   3.277   6.654 -0.0514 -0.3033 -0.2019
 1065loPI   C1A16363   5.614   3.680   7.129 -0.0277  0.1147 -0.2989
 1065loPI   C2A16364   5.638   3.616   7.524  0.0806 -0.1873 -0.1236
 1065loPI   C3A16365   5.709   3.741   7.958  0.0742 -0.1480  0.0441
 1065loPI   C4A16366   5.674   3.576   8.384  0.2865  0.2244  0.0101
 1065loPI   C5A16367   5.283   3.342   8.618 -0.0294  0.2114  0.3173
 1065loPI   C6A16368   4.854   3.322   8.824  0.2574  0.4365 -0.0836
 1065loPI   C1B16369   5.784   3.222   7.095  0.2861 -0.1668  0.2097
 1065loPI   C2B16370   5.698   3.127   7.556  0.1760 -0.3742 -0.3271
 1065loPI   C3B16371   5.659   3.128   7.979 -0.1015 -0.2244  0.3741
 1065loPI   C4B16372   5.748   3.056   8.464 -0.0176 -0.2446  0.0906
 1066loPI    C116373   4.875   4.069   5.764 -0.0636 -0.0282  0.1150
 1066loPI    C216374   4.598   3.901   5.529 -0.1087  0.0730  0.0955
 1066loPI    C316375   4.983   3.897   5.419 -0.1203  0.0558  0.0552
 1066loPI   PO416376   4.807   3.985   6.106 -0.0850 -0.1987  0.2118
 1066loPI   GL116377   4.832   3.921   6.567  0.1182 -0.0831 -0.0027
 1066loPI   GL216378   4.737   4.162   6.767 -0.0666 -0.1710 -0.0658
 1066loPI   C1A16379   5.111   3.883   6.927  0.2444 -0.0167 -0.0413
 1066loPI   C2A16380   5.219   3.832   7.382 -0.2499  0.1583  0.0064
 1066loPI   C3A16381   5.279   3.915   7.767 -0.1569 -0.1388  0.1027
 1066loPI   C4A16382   5.270   3.908   8.273  0.1872 -0.1556 -0.0883
 1066loPI   C5A16383   5.289   3.897   8.666 -0.2224  0.0084  0.0149
 1066loPI   C6A16384   5.289   4.151   9.021 -0.1706  0.3023  0.1457
 1066loPI   C1B16385   4.745   4.123   7.245  0.4264  0.0887 -0.0961
 1066loPI   C2B16386   4.689   4.092   7.715  0.1070  0.2056 -0.2573
 1066loPI   C3B16387   4.782   4.209   8.088  0.0999 -0.0079  0.1212
 1066loPI   C4B16388   4.885   4.154   8.465 -0.0077  0.0339  0.1283
 1067loPI    C116389   2.961   2.372   5.600  0.0959  0.0343 -0.0057
 1067loPI    C216390   2.847   2.498   5.238  0.0058 -0.1001 -0.0249
 1067loPI    C316391   3.195   2.307   5.283  0.0549 -0.0112 -0.0269
 1067loPI   PO416392   2.862   2.237   5.784 -0.2877  0.2154  0.0546
 1067loPI   GL116393   2.911   2.286   6.198  0.3717 -0.1007 -0.4133
 1067loPI   GL216394   3.181   2.073   6.188 -0.0178  0.0722 -0.0755
 1067loPI   C1A16395   2.637   2.265   6.583 -0.2161 -0.0431  0.0848
 1067loPI   C2A16396   2.523   2.341   7.059 -0.1910  0.3976  0.2019
 1067loPI   C3A16397   2.556   2.359   7.493 -0.2742  0.0882  0.0686
 1067loPI   C4A16398   2.542   2.320   7.925  0.0209 -0.0411  0.1105
 1067loPI   C5A16399   2.506   2.466   8.382 -0.1003  0.0721 -0.0016
 1067loPI   C6A16400   2.820   2.614   8.800  0.3887 -0.0677  0.2547
 1067loPI   C1B16401   3.068   2.035   6.636 -0.0363  0.1802 -0.2728
 1067loPI   C2B16402   3.060   2.141   7.086 -0.0704  0.0697  0.1277
 1067loPI   C3B16403   3.035   1.997   7.499 -0.1092 -0.2927 -0.2161
 1067loPI   C4B16404   3.048   2.012   8.032 -0.0738 -0.1162 -0.0917
 1068loPI    C116405   0.352  10.851   5.697 -0.0748 -0.1177  0.1073
 1068loPI    C216406   0.547  10.598   5.456  0.0872  0.1614 -0.0606
 1068loPI    C316407   0.264  10.838   5.307  0.0839  0.2304  0.0556
 1068loPI   PO416408   0.271  10.748   5.980  0.1969  0.0824 -0.1458
 1068loPI   GL116409   0.283  10.919   6.443  0.0611 -0.1687  0.0493
 1068loPI   GL216410   0.072  10.752   6.594 -0.3556 -0.2001 -0.3948
 1068loPI   C1A16411   0.455  10.989   6.827  0.1693 -0.0798 -0.3783
 1068loPI   C2A16412   0.459  11.060   7.330 -0.1131 -0.1914  0.3210
 1068loPI   C3A16413   0.530  11.049   7.786  0.0407  0.0635 -0.3099
 1068loPI   C4A16414   0.460  11.032   8.143 -0.0967  0.1632 -0.1940
 1068loPI   C5A16415   0.377  11.137   8.539 -0.0423 -0.1111  0.0492
 1068loPI   C6A16416   0.186  11.248   8.916 -0.1282  0.0868 -0.1548
 1068loPI   C1B16417   0.006  10.662   7.026 -0.1007 -0.1808  0.2340
 1068loPI   C2B16418  -0.071  10.716   7.437  0.0505 -0.0509 -0.1237
 1068loPI   C3B16419   0.058  10.815   7.865  0.3485 -0.0177  0.1775
 1068loPI   C4B16420   0.001  10.860   8.345  0.0927  0.0643 -0.3371
 1069loPI    C116421  12.670   0.124   5.717 -0.0323 -0.1474 -0.0071
 1069loPI    C216422  12.883  -0.204   5.634  0.0454 -0.0457 -0.2194
 1069loPI    C316423  12.826   0.073   5.352  0.1290  0.2077  0.0073
 1069loPI   PO416424  12.677   0.123   6.004 -0.0702 -0.1414 -0.3461
 1069loPI   GL116425  12.813   0.345   6.329 -0.1786  0.1647 -0.2489
 1069loPI   GL216426  12.854   0.033   6.466 -0.1411  0.4818  0.1713
 1069loPI   C1A16427  12.775   0.637   6.697  0.1201  0.0482 -0.1644
 1069loPI   C2A16428  12.639   0.731   7.116 -0.0382 -0.0830  0.2048
 1069loPI   C3A16429  12.813   0.622   7.559  0.2559 -0.0294  0.3261
 1069loPI   C4A16430  12.812   0.580   7.953 -0.0703  0.2239  0.3305
 1069loPI   C5A16431  12.854   0.763   8.398  0.1344 -0.0742  0.2088
 1069loPI   C6A16432  13.139   0.730   8.659 -0.1043 -0.1460 -0.3521
 1069loPI   C1B16433  12.740   0.149   6.877  0.2143 -0.1048  0.0282
 1069loPI   C2B16434  12.682   0.154   7.288 -0.0647 -0.2423  0.2198
 1069loPI   C3B16435  12.804   0.102   7.683  0.0767 -0.0087 -0.0091
 1069loPI   C4B16436  12.874   0.104   8.095 -0.3493  0.2167  0.2399
 1070loPI    C116437  14.390   5.656   5.652  0.4454 -0.0238 -0.1976
 1070loPI    C216438  14.521   6.026   5.575  0.1700  0.0938 -0.1154
 1070loPI    C316439  14.282   5.840   5.314  0.0774  0.0859 -0.0254
 1070loPI   PO416440  14.256   5.679   5.806  0.1375  0.0971  0.0914
 1070loPI   GL116441  14.317   5.683   6.289 -0.3919  0.0286 -0.0553
 1070loPI   GL216442  14.345   5.941   6.407 -0.1172  0.1281  0.0731
 1070loPI   C1A16443  14.353   5.343   6.566 -0.2871  0.0650  0.0683
 1070loPI   C2A16444  14.455   5.275   6.950 -0.1362 -0.1042  0.0080
 1070loPI   C3A16445  14.413   5.344   7.396 -0.2463 -0.3224 -0.0316
 1070loPI   C4A16446  14.525   5.387   7.798 -0.0582  0.1678  0.1937
 1070loPI   C5A16447  14.577   5.433   8.248  0.0639  0.1193 -0.1249
 1070loPI   C6A16448  14.682   5.259   8.663 -0.0595 -0.0742  0.0841
 1070loPI   C1B16449  14.436   5.833   6.814  0.2511  0.2558  0.0843
 1070loPI   C2B16450  14.514   5.819   7.222  0.0030  0.2727  0.0646
 1070loPI   C3B16451  14.525   5.869   7.647  0.2355 -0.0724 -0.0623
 1070loPI   C4B16452  14.635   5.878   8.068  0.0525  0.2348  0.0716
 1071loPI    C116453   4.984  10.242   5.552  0.1592  0.0153 -0.1356
 1071loPI    C216454   4.835  10.106   5.207 -0.0797  0.2816 -0.1417
 1071loPI    C316455   5.152  10.349   5.205  0.0736  0.0849 -0.1560
 1071loPI   PO416456   4.724  10.241   5.681  0.0392 -0.0218  0.0083
 1071loPI   GL116457   4.637  10.088   6.100  0.3326 -0.2425  0.4912
 1071loPI   GL216458   4.726  10.290   6.267  0.2563 -0.0926 -0.1676
 1071loPI   C1A16459   4.578   9.934   6.572  0.3248 -0.1441  0.1312
 1071loPI   C2A16460   4.532   9.852   6.985  0.0143  0.0981  0.0076
 1071loPI   C3A16461   4.575   9.841   7.471 -0.0656  0.0264 -0.0282
 1071loPI   C4A16462   4.553   9.834   7.924  0.0812 -0.2055 -0.1866
 1071loPI   C5A16463   4.523   9.944   8.303  0.0994  0.0175  0.0361
 1071loPI   C6A16464   4.634  10.294   8.559  0.1536 -0.0699 -0.4821
 1071loPI   C1B16465   4.551  10.477   6.696 -0.2239 -0.1189 -0.1757
 1071loPI   C2B16466   4.572  10.335   7.080  0.2474 -0.0293 -0.0514
 1071loPI   C3B16467   4.544  10.337   7.606 -0.1894  0.0303  0.2057
 1071loPI   C4B16468   4.451  10.394   8.049 -0.0280 -0.1762  0.1278
 1072loPI    C116469   2.290   3.115   5.875 -0.2226 -0.1451  0.0704
 1072loPI    C216470   2.288   3.076   5.477  0.0051 -0.0103  0.0543
 1072loPI    C316471   2.088   3.377   5.650  0.0837  0.0585  0.0263
 1072loPI   PO416472   2.527   3.130   5.917 -0.2307  0.1689  0.0509
 1072loPI   GL116473   2.735   3.169   6.384  0.3205  0.3686 -0.2497
 1072loPI   GL216474   2.497   3.347   6.343  0.1197 -0.1075  0.1997
 1072loPI   C1A16475   3.026   3.098   6.672 -0.0240 -0.2365 -0.5827
 1072loPI   C2A16476   3.146   3.043   7.100  0.1516  0.0966  0.1053
 1072loPI   C3A16477   3.045   3.095   7.450  0.3360  0.0267 -0.1931
 1072loPI   C4A16478   3.056   3.126   7.863 -0.1423  0.0267 -0.0203
 1072loPI   C5A16479   3.055   3.128   8.327 -0.0195  0.0091  0.2533
 1072loPI   C6A16480   2.956   3.116   8.782 -0.1262 -0.0805 -0.0123
 1072loPI   C1B16481   2.593   3.289   6.792 -0.1729 -0.2837 -0.3406
 1072loPI   C2B16482   2.517   3.328   7.189  0.1476 -0.0761 -0.1832
 1072loPI   C3B16483   2.623   3.377   7.655 -0.1037  0.1249 -0.0795
 1072loPI   C4B16484   2.659   3.329   8.079  0.0621 -0.1641 -0.2192
 1073loPI    C116485  12.365   4.116   5.832 -0.1353 -0.1781 -0.0956
 1073loPI    C216486  12.580   4.385   5.627  0.1046 -0.3056 -0.0147
 1073loPI    C316487  12.444   4.056   5.444 -0.3615 -0.0390 -0.1657
 1073loPI   PO416488  12.334   4.243   6.022  0.3386  0.1746  0.1163
 1073loPI   GL116489  12.368   4.194   6.407  0.1903 -0.2377 -0.0581
 1073loPI   GL216490  12.670   4.293   6.579  0.0262 -0.1039 -0.0658
 1073loPI   C1A16491  12.330   4.046   6.829  0.2122  0.0493  0.0754
 1073loPI   C2A16492  12.358   4.073   7.285 -0.0289 -0.0526 -0.0151
 1073loPI   C3A16493  12.312   4.038   7.701 -0.3696 -0.0923 -0.1065
 1073loPI   C4A16494  12.355   4.104   8.084  0.1524  0.2515  0.0727
 1073loPI   C5A16495  12.311   4.136   8.459 -0.0871 -0.0239 -0.1041
 1073loPI   C6A16496  12.310   4.093   8.869  0.3570  0.0176  0.1965
 1073loPI   C1B16497  12.743   4.340   7.017 -0.3456  0.2377  0.2055
 1073loPI   C2B16498  12.757   4.311   7.493 -0.3417  0.0765  0.1306
 1073loPI   C3B16499  12.754   4.388   7.915 -0.3190  0.0721 -0.0145
 1073loPI   C4B16500  12.762   4.367   8.409 -0.0137 -0.3310 -0.4471
 1074loPI    C116501   5.589   6.897   5.989  0.0103 -0.2236  0.0932
 1074loPI    C216502   5.812   6.579   5.892  0.0121 -0.1322 -0.2140
 1074loPI    C316503   5.456   6.635   5.717 -0.0789 -0.0703 -0.0126
 1074loPI   PO416504   5.577   6.855   6.243 -0.1591  0.0678 -0.2856
 1074loPI   GL116505   5.389   6.754   6.526 -0.2612  0.1820  0.0015
 1074loPI   GL216506   5.230   6.608   6.617 -0.0748  0.4055  0.0166
 1074loPI   C1A16507   5.511   6.810   6.946  0.2231 -0.1986 -0.2148
 1074loPI   C2A16508   5.430   6.776   7.397 -0.3542 -0.0089  0.2307
 1074loPI   C3A16509   5.589   6.818   7.867  0.0465  0.1421  0.1090
 1074loPI   C4A16510   5.522   6.870   8.314  0.1103  0.1417  0.1064
 1074loPI   C5A16511   5.444   7.280   8.510  0.1143 -0.2081  0.0038
 1074loPI   C6A16512   5.225   7.519   8.761 -0.0719  0.0466 -0.3276
 1074loPI   C1B16513   5.108   6.487   7.102 -0.0038  0.1202 -0.3155
 1074loPI   C2B16514   5.036   6.488   7.534 -0.2270 -0.0421 -0.0200
 1074loPI   C3B16515   5.108   6.585   7.938 -0.2212  0.0185  0.1093
 1074loPI   C4B16516   5.235   6.428   8.283 -0.4142 -0.2745  0.1616
 1075loPI    C116517   3.370   4.918   5.795  0.0155 -0.0072 -0.0686
 1075loPI    C216518   3.151   4.862   5.465  0.1301 -0.1264 -0.1251
 1075loPI    C316519   3.239   5.233   5.586  0.0655 -0.0818 -0.2139
 1075loPI   PO416520   3.183   4.736   5.953  0.2640 -0.4349  0.0319
 1075loPI   GL116521   3.060   4.651   6.286 -0.0686  0.1331  0.2091
 1075loPI   GL216522   2.879   4.362   6.166 -0.1083  0.0142 -0.1928
 1075loPI   C1A16523   2.991   4.570   6.661 -0.0149  0.3289 -0.1138
 1075loPI   C2A16524   2.933   4.586   7.125  0.3353  0.1433  0.1055
 1075loPI   C3A16525   2.970   4.702   7.508 -0.0652 -0.1083 -0.0432
 1075loPI   C4A16526   2.928   4.715   7.923 -0.0451  0.1457 -0.0906
 1075loPI   C5A16527   2.890   4.723   8.301 -0.0089  0.2234 -0.3092
 1075loPI   C6A16528   2.824   4.859   8.747 -0.0527  0.0346  0.0882
 1075loPI   C1B16529   2.601   4.219   6.488  0.3588  0.0069 -0.0698
 1075loPI   C2B16530   2.533   4.318   6.974  0.0231 -0.1554  0.0870
 1075loPI   C3B16531   2.516   4.422   7.379 -0.0853  0.0354 -0.0565
 1075loPI   C4B16532   2.532   4.357   7.839  0.0914  0.1967  0.0912
 1076loPI    C116533  10.600  16.627   5.850 -0.1603 -0.1035  0.0189
 1076loPI    C216534  10.869  16.830   5.636 -0.0919  0.0520  0.2487
 1076loPI    C316535  10.663  16.532   5.467  0.1333  0.0136  0.0358
 1076loPI   PO416536  10.511  16.760   6.008 -0.1673  0.1738  0.1450
 1076loPI   GL116537  10.568  16.595   6.414  0.0648  0.3184 -0.1055
 1076loPI   GL216538  10.608  16.213   6.268 -0.0306 -0.0992 -0.0840
 1076loPI   C1A16539  10.649  16.590   6.851  0.0822  0.1682  0.0627
 1076loPI   C2A16540  10.618  16.646   7.264 -0.1834 -0.0419 -0.1435
 1076loPI   C3A16541  10.627  16.742   7.758 -0.1742 -0.0574 -0.0535
 1076loPI   C4A16542  10.720  16.722   8.142 -0.2847 -0.0660  0.0593
 1076loPI   C5A16543  10.658  17.022   8.417 -0.0066  0.0015  0.2314
 1076loPI   C6A16544  10.470  17.213   8.691 -0.2470 -0.0295 -0.2842
 1076loPI   C1B16545  10.638  16.127   6.681 -0.1067  0.2424  0.0428
 1076loPI   C2B16546  10.645  16.115   7.094  0.0908 -0.1869  0.0617
 1076loPI   C3B16547  10.600  16.199   7.454 -0.2058  0.1223 -0.0481
 1076loPI   C4B16548  10.694  16.226   7.903  0.1688 -0.2032 -0.2186
 1077loPI    C116549  13.003   8.883   6.207 -0.0173 -0.0385  0.3329
 1077loPI    C216550  13.223   9.092   6.468  0.1885 -0.0009  0.1327
 1077loPI    C316551  13.360   9.026   6.098 -0.0345 -0.1823  0.0796
 1077loPI   PO416552  12.909   8.691   6.319 -0.0162  0.0734  0.1218
 1077loPI   GL116553  12.801   8.462   6.512 -0.0360 -0.1490  0.1369
 1077loPI   GL216554  12.663   8.243   6.577 -0.2632 -0.0261 -0.0927
 1077loPI   C1A16555  12.747   8.565   6.988  0.3977  0.0133  0.2914
 1077loPI   C2A16556  12.814   8.520   7.359 -0.0114 -0.0314  0.3479
 1077loPI   C3A16557  12.842   8.586   7.865  0.1289  0.1257  0.3123
 1077loPI   C4A16558  12.890   8.612   8.325  0.0112 -0.1569  0.3032
 1077loPI   C5A16559  12.777   8.389   8.677 -0.4533 -0.2323 -0.4199
 1077loPI   C6A16560  12.856   8.458   9.111 -0.0559  0.2466  0.2198
 1077loPI   C1B16561  12.791   8.063   6.970  0.2616  0.0433 -0.3523
 1077loPI   C2B16562  12.846   8.012   7.431  0.1228 -0.0085  0.1203
 1077loPI   C3B16563  12.784   8.042   7.849  0.0868 -0.1166  0.1363
 1077loPI   C4B16564  12.846   8.142   8.240  0.0331  0.1046  0.0492
 1078loPI    C116565   3.271   9.360   5.941  0.0103  0.0833  0.0915
 1078loPI    C216566   3.593   9.296   5.711  0.0527  0.0654  0.1555
 1078loPI    C316567   3.242   9.388   5.543 -0.0184 -0.3645  0.0577
 1078loPI   PO416568   3.260   9.308   6.209 -0.2190  0.1886 -0.0016
 1078loPI   GL116569   3.275   9.442   6.533  0.0047  0.0593  0.0044
 1078loPI   GL216570   3.574   9.387   6.622 -0.1763 -0.0794 -0.0964
 1078loPI   C1A16571   3.222   9.603   6.894 -0.4466  0.0768  0.0580
 1078loPI   C2A16572   3.205   9.546   7.266 -0.0276  0.0261  0.1056
 1078loPI   C3A16573   3.206   9.501   7.718  0.1381  0.0606  0.2006
 1078loPI   C4A16574   3.219   9.546   8.097 -0.1451 -0.2101 -0.1419
 1078loPI   C5A16575   3.178   9.486   8.545  0.0192  0.0195 -0.2647
 1078loPI   C6A16576   2.787   9.515   8.812 -0.3092 -0.0073  0.1317
 1078loPI   C1B16577   3.645   9.288   7.085  0.1661 -0.1079 -0.1103
 1078loPI   C2B16578   3.702   9.247   7.410 -0.3290 -0.1350 -0.1280
 1078loPI   C3B16579   3.757   9.350   7.903  0.0143  0.0595  0.1389
 1078loPI   C4B16580   3.694   9.380   8.347  0.1538  0.3489  0.1640
 1079loPI    C116581   7.827   1.145   5.871  0.1171 -0.0448 -0.0557
 1079loPI    C216582   8.094   0.892   5.714  0.0162 -0.0430 -0.2317
 1079loPI    C316583   7.708   0.865   5.612 -0.0473 -0.0276  0.0006
 1079loPI   PO416584   7.867   1.152   6.146  0.0561  0.1939 -0.0930
 1079loPI   GL116585   7.777   1.362   6.539 -0.1984  0.0411 -0.3199
 1079loPI   GL216586   7.474   1.584   6.587  0.0005 -0.2133  0.2772
 1079loPI   C1A16587   7.939   1.384   6.933 -0.1894 -0.0929  0.0603
 1079loPI   C2A16588   7.930   1.435   7.400 -0.0367 -0.0213  0.0634
 1079loPI   C3A16589   7.876   1.519   7.784 -0.2490 -0.1381 -0.2543
 1079loPI   C4A16590   7.991   1.427   8.263 -0.0218 -0.0134  0.0709
 1079loPI   C5A16591   8.123   1.426   8.711  0.1607 -0.1367  0.1042
 1079loPI   C6A16592   8.059   1.504   9.049  0.1165  0.0069 -0.0950
 1079loPI   C1B16593   7.535   1.691   7.007  0.0263  0.1756 -0.1245
 1079loPI   C2B16594   7.437   1.627   7.435 -0.1595  0.1594 -0.2652
 1079loPI   C3B16595   7.398   1.650   7.842 -0.0432  0.3277 -0.3862
 1079loPI   C4B16596   7.608   1.771   8.180 -0.4080  0.2993  0.0916
 1080loPI    C116597   3.160   8.461   5.808 -0.1326 -0.1855  0.1983
 1080loPI    C216598   3.268   8.086   5.715  0.0514 -0.0314 -0.2388
 1080loPI    C316599   2.962   8.260   5.524 -0.0155  0.0528 -0.0576
 1080loPI   PO416600   3.019   8.432   6.049  0.0244 -0.2294  0.2704
 1080loPI   GL116601   2.857   8.548   6.472 -0.0287 -0.1043 -0.0599
 1080loPI   GL216602   2.891   8.234   6.543 -0.1612  0.0481  0.1529
 1080loPI   C1A16603   2.782   8.728   6.853 -0.0053 -0.3067  0.1396
 1080loPI   C2A16604   2.800   8.732   7.276 -0.0074 -0.1985 -0.3278
 1080loPI   C3A16605   2.829   8.802   7.747 -0.2195  0.0162 -0.0241
 1080loPI   C4A16606   2.715   8.825   8.278  0.3741  0.0622 -0.0022
 1080loPI   C5A16607   2.961   9.018   8.688 -0.1573  0.0226 -0.1447
 1080loPI   C6A16608   3.053   8.974   9.166  0.0301 -0.1993 -0.3043
 1080loPI   C1B16609   2.785   8.266   6.947 -0.1854  0.0207  0.1917
 1080loPI   C2B16610   2.818   8.278   7.480 -0.2475 -0.0147  0.4356
 1080loPI   C3B16611   2.813   8.322   7.849  0.2980 -0.0009 -0.0120
 1080loPI   C4B16612   2.825   8.367   8.269  0.0158  0.2027  0.1923
 1081loPI    C116613   6.312  15.584   6.136 -0.1489 -0.0762  0.0620
 1081loPI    C216614   6.312  15.459   5.756  0.2118 -0.0152  0.0374
 1081loPI    C316615   6.228  15.202   6.051  0.0868 -0.1007 -0.0708
 1081loPI   PO416616   6.112  15.755   6.175  0.2064 -0.0903  0.1174
 1081loPI   GL116617   5.753  15.634   6.524 -0.1893  0.0672 -0.0475
 1081loPI   GL216618   6.073  15.474   6.590 -0.2898 -0.2306  0.2298
 1081loPI   C1A16619   5.694  15.320   6.920 -0.1387 -0.0864  0.2450
 1081loPI   C2A16620   5.783  15.279   7.268 -0.1597  0.0802  0.0289
 1081loPI   C3A16621   5.715  15.287   7.685  0.1216 -0.2185 -0.1949
 1081loPI   C4A16622   5.766  15.285   8.104 -0.0127 -0.0701 -0.1629
 1081loPI   C5A16623   5.886  15.320   8.608  0.2733  0.1698 -0.0669
 1081loPI   C6A16624   5.808  15.045   8.933 -0.1018 -0.1114  0.0327
 1081loPI   C1B16625   6.131  15.572   6.990  0.0241  0.1889 -0.0350
 1081loPI   C2B16626   6.212  15.575   7.417 -0.2458  0.1037 -0.2627
 1081loPI   C3B16627   6.194  15.591   7.842 -0.2275  0.0408  0.1922
 1081loPI   C4B16628   6.047  15.667   8.280 -0.3902 -0.0496 -0.1296
 1082loPI    C116629   1.741   7.305   5.909 -0.0460  0.0980  0.0353
 1082loPI    C216630   1.861   7.022   5.653  0.1219  0.2345 -0.0392
 1082loPI    C316631   1.681   7.351   5.516  0.1056  0.2544  0.0295
 1082loPI   PO416632   1.901   7.415   6.098  0.3124  0.3834  0.0574
 1082loPI   GL116633   1.725   7.484   6.545 -0.0657 -0.0136 -0.0719
 1082loPI   GL216634   1.916   7.216   6.739 -0.0375 -0.1089 -0.1208
 1082loPI   C1A16635   1.495   7.395   6.913  0.3737  0.4753 -0.1888
 1082loPI   C2A16636   1.487   7.472   7.404 -0.0949  0.0235 -0.3669
 1082loPI   C3A16637   1.513   7.507   7.771 -0.0993 -0.0944 -0.1028
 1082loPI   C4A16638   1.470   7.563   8.237  0.0697 -0.0745 -0.1701
 1082loPI   C5A16639   1.609   7.456   8.570  0.3977 -0.0200  0.0547
 1082loPI   C6A16640   1.321   7.394   8.931 -0.1291  0.0608 -0.0799
 1082loPI   C1B16641   1.896   7.176   7.188  0.3750  0.2408 -0.0124
 1082loPI   C2B16642   1.883   7.260   7.648  0.0265  0.1423 -0.0337
 1082loPI   C3B16643   2.039   7.311   8.080 -0.0736 -0.1122 -0.1208
 1082loPI   C4B16644   2.057   7.277   8.522  0.2662  0.0271  0.1262
 1083loPI    C116645   1.486   5.072   5.730 -0.1577  0.0861 -0.0567
 1083loPI    C216646   1.870   5.157   5.803 -0.1482  0.0058 -0.0116
 1083loPI    C316647   1.660   5.383   5.549 -0.0410 -0.0146 -0.1193
 1083loPI   PO416648   1.407   5.000   5.992  0.2842 -0.0305  0.0924
 1083loPI   GL116649   1.541   4.742   6.314  0.1959  0.0812 -0.1826
 1083loPI   GL216650   1.310   4.634   6.428  0.0480 -0.0508 -0.0347
 1083loPI   C1A16651   1.624   4.812   6.742 -0.1423  0.0430  0.2498
 1083loPI   C2A16652   1.608   4.805   7.073  0.0903  0.1681 -0.1223
 1083loPI   C3A16653   1.589   4.854   7.462  0.0689  0.1915  0.1255
 1083loPI   C4A16654   1.596   4.877   7.854 -0.2110  0.3251  0.1319
 1083loPI   C5A16655   1.696   4.892   8.250  0.3295 -0.4486 -0.1685
 1083loPI   C6A16656   1.758   5.124   8.674  0.0353  0.0438  0.1007
 1083loPI   C1B16657   1.145   4.434   6.806  0.0510 -0.2025 -0.1131
 1083loPI   C2B16658   1.198   4.507   7.232  0.1557  0.2220 -0.0478
 1083loPI   C3B16659   1.172   4.612   7.692  0.0588 -0.1051  0.2006
 1083loPI   C4B16660   1.276   4.683   8.172  0.0552  0.3258 -0.2404
 1084loPI    C116661  16.419  16.999   5.624 -0.2326 -0.2816  0.2614
 1084loPI    C216662  16.459  16.602   5.641  0.1223 -0.2604  0.0401
 1084loPI    C316663  16.309  16.774   5.313  0.1816 -0.1972  0.0460
 1084loPI   PO416664  16.293  17.035   5.874  0.2064 -0.1985 -0.1050
 1084loPI   GL116665  16.303  17.066   6.310  0.1610  0.0770 -0.1210
 1084loPI   GL216666  16.212  17.449   6.417 -0.0847  0.0875 -0.1111
 1084loPI   C1A16667  16.428  16.856   6.791 -0.1417  0.0909  0.2571
 1084loPI   C2A16668  16.264  16.927   7.213 -0.1749 -0.3994 -0.2959
 1084loPI   C3A16669  16.240  16.955   7.621 -0.1743 -0.1158 -0.0174
 1084loPI   C4A16670  16.227  16.982   8.038  0.0468 -0.0105 -0.1580
 1084loPI   C5A16671  16.348  17.024   8.490  0.0948 -0.0960 -0.2072
 1084loPI   C6A16672  16.554  16.990   8.924 -0.0828  0.2149 -0.5728
 1084loPI   C1B16673  16.345  17.365   6.874  0.0263 -0.0405 -0.1707
 1084loPI   C2B16674  16.284  17.448   7.357  0.2254  0.1157  0.0242
 1084loPI   C3B16675  16.199  17.475   7.791 -0.0140 -0.0340  0.0499
 1084loPI   C4B16676  16.386  17.452   8.221 -0.1496 -0.1615 -0.0703
 1085loPI    C116677   9.481  16.837   5.794 -0.1670 -0.1966  0.1318
 1085loPI    C216678   9.082  16.819   5.782 -0.1654 -0.0976 -0.1288
 1085loPI    C316679   9.300  16.557   5.574 -0.0941 -0.1323 -0.0109
 1085loPI   PO416680   9.528  16.901   6.009 -0.0583 -0.1915 -0.0556
 1085loPI   GL116681   9.790  17.076   6.256 -0.0764  0.2466 -0.0363
 1085loPI   GL216682   9.557  17.307   6.370 -0.2230 -0.2957  0.2029
 1085loPI   C1A16683   9.836  17.113   6.753 -0.0315 -0.0517  0.1886
 1085loPI   C2A16684   9.704  17.187   7.184  0.1726  0.1599 -0.0114
 1085loPI   C3A16685   9.717  17.231   7.602 -0.1182 -0.2099 -0.0030
 1085loPI   C4A16686   9.759  17.292   8.035  0.0182 -0.3420 -0.1625
 1085loPI   C5A16687   9.683  17.299   8.478 -0.0230 -0.0303 -0.1325
 1085loPI   C6A16688   9.594  17.274   8.897  0.0069  0.1171  0.3219
 1085loPI   C1B16689   9.331  17.489   6.672 -0.1292  0.1397 -0.2357
 1085loPI   C2B16690   9.270  17.482   7.067 -0.1649 -0.0284 -0.1788
 1085loPI   C3B16691   9.305  17.415   7.467 -0.1784  0.2423 -0.1669
 1085loPI   C4B16692   9.294  17.550   7.847 -0.0455  0.1251  0.0837
 1086loPI    C116693  13.098  13.441   5.693  0.4204  0.1101  0.2026
 1086loPI    C216694  13.111  13.550   5.309 -0.3142 -0.2476  0.0567
 1086loPI    C316695  13.223  13.182   5.416 -0.2936 -0.2122  0.1578
 1086loPI   PO416696  13.067  13.656   5.823  0.0723 -0.0764 -0.1925
 1086loPI   GL116697  12.882  13.523   6.134 -0.0038 -0.0271 -0.0643
 1086loPI   GL216698  12.685  13.362   6.273  0.0620  0.0234 -0.0974
 1086loPI   C1A16699  12.870  13.793   6.566  0.0112 -0.0677 -0.1336
 1086loPI   C2A16700  12.827  13.684   7.030 -0.0731 -0.0163 -0.3263
 1086loPI   C3A16701  12.776  13.725   7.516 -0.1285  0.2826  0.2945
 1086loPI   C4A16702  12.878  13.849   7.841  0.1927 -0.0840  0.1183
 1086loPI   C5A16703  12.996  13.940   8.296 -0.0295  0.2230 -0.1202
 1086loPI   C6A16704  13.368  13.871   8.557  0.4197 -0.0016 -0.0256
 1086loPI   C1B16705  12.472  13.522   6.591 -0.1372  0.0328  0.0483
 1086loPI   C2B16706  12.333  13.480   6.979 -0.1375 -0.1301 -0.2218
 1086loPI   C3B16707  12.290  13.547   7.451 -0.3246  0.1470  0.2325
 1086loPI   C4B16708  12.355  13.524   7.910 -0.1505  0.2064  0.0385
 1087loPI    C116709   0.847  16.416   5.697 -0.0713 -0.0765  0.1769
 1087loPI    C216710   0.920  16.036   5.594  0.1384  0.0375 -0.1085
 1087loPI    C316711   1.213  16.308   5.577  0.0058  0.2016  0.1542
 1087loPI   PO416712   0.718  16.381   5.937 -0.1301 -0.0458 -0.0845
 1087loPI   GL116713   0.711  16.557   6.303  0.0506 -0.1866  0.0236
 1087loPI   GL216714   0.364  16.627   6.493  0.1532  0.0382 -0.0396
 1087loPI   C1A16715   0.723  16.398   6.780 -0.1228  0.1200 -0.2347
 1087loPI   C2A16716   0.733  16.483   7.116 -0.0788 -0.0453 -0.0198
 1087loPI   C3A16717   0.783  16.483   7.507 -0.0906 -0.0915  0.0472
 1087loPI   C4A16718   0.816  16.526   7.975 -0.2984  0.1428 -0.0033
 1087loPI   C5A16719   0.637  16.593   8.462 -0.0423 -0.1885 -0.1527
 1087loPI   C6A16720   0.562  16.981   8.685 -0.2632  0.4408 -0.1489
 1087loPI   C1B16721   0.256  16.688   6.927  0.0216  0.0371 -0.0609
 1087loPI   C2B16722   0.221  16.631   7.290 -0.0576  0.2610 -0.1552
 1087loPI   C3B16723   0.299  16.762   7.746  0.0859 -0.0568 -0.0869
 1087loPI   C4B16724   0.266  16.724   8.174  0.1899 -0.1030  0.0068
 1088loPI    C116725   4.330  14.069   5.710  0.0681  0.2311 -0.0861
 1088loPI    C216726   4.215  13.784   5.453  0.1146  0.1134  0.0224
 1088loPI    C316727   4.140  14.169   5.373 -0.0111  0.0657 -0.0915
 1088loPI   PO416728   4.217  14.009   5.953  0.0347  0.0836 -0.1026
 1088loPI   GL116729   4.296  14.060   6.295 -0.1192 -0.2723 -0.0561
 1088loPI   GL216730   4.339  14.365   6.377 -0.1665  0.0237  0.0338
 1088loPI   C1A16731   4.329  14.026   6.786  0.0737  0.0745 -0.0877
 1088loPI   C2A16732   4.394  14.019   7.150 -0.0065 -0.0496  0.0719
 1088loPI   C3A16733   4.362  14.007   7.512  0.0216 -0.1647 -0.1532
 1088loPI   C4A16734   4.460  13.981   7.880  0.1820  0.1853  0.4031
 1088loPI   C5A16735   4.513  13.967   8.255  0.2076  0.1478 -0.2105
 1088loPI   C6A16736   4.474  14.276   8.581 -0.1305 -0.2130  0.0058
 1088loPI   C1B16737   4.342  14.546   6.807  0.2389 -0.0872  0.4328
 1088loPI   C2B16738   4.413  14.513   7.245  0.1904 -0.0354 -0.2385
 1088loPI   C3B16739   4.377  14.505   7.640 -0.4020 -0.2167 -0.0001
 1088loPI   C4B16740   4.397  14.460   8.077  0.0497  0.0939 -0.1875
 1089loPI    C116741  17.042   6.983   5.900 -0.1411 -0.1157 -0.2107
 1089loPI    C216742  16.846   7.304   5.765  0.2391  0.0910 -0.2859
 1089loPI    C316743  17.053   7.074   5.511  0.0701 -0.1461 -0.2132
 1089loPI   PO416744  17.176   7.111   6.082  0.2530  0.0187  0.0517
 1089loPI   GL116745  17.197   7.117   6.535 -0.0899 -0.0941  0.0944
 1089loPI   GL216746  17.459   7.014   6.554  0.0811 -0.5513  0.2216
 1089loPI   C1A16747  17.131   6.733   6.833  0.2626 -0.0211 -0.0411
 1089loPI   C2A16748  17.159   6.723   7.157 -0.0830  0.0007 -0.0261
 1089loPI   C3A16749  17.101   6.784   7.662 -0.0478  0.0695  0.2989
 1089loPI   C4A16750  17.104   6.941   8.027 -0.0485 -0.0327  0.2538
 1089loPI   C5A16751  17.020   7.080   8.427  0.0297  0.1571 -0.0262
 1089loPI   C6A16752  17.291   7.071   8.647 -0.2734  0.0705 -0.0567
 1089loPI   C1B16753  17.494   7.079   7.021 -0.3875  0.5470 -0.1217
 1089loPI   C2B16754  17.516   7.050   7.394  0.2217 -0.1000  0.0139
 1089loPI   C3B16755  17.469   7.128   7.776  0.2330 -0.2027  0.1446
 1089loPI   C4B16756  17.558   7.240   8.209  0.0633  0.0981  0.0621
 1090loPI    C116757   8.738   6.302   6.120  0.1112 -0.2123 -0.0110
 1090loPI    C216758   8.737   6.699   6.067 -0.0464 -0.2280 -0.1338
 1090loPI    C316759   8.891   6.460   5.786 -0.0794 -0.2620 -0.1232
 1090loPI   PO416760   8.850   6.328   6.394  0.2438  0.0876 -0.0464
 1090loPI   GL116761   8.848   6.285   6.752  0.0315  0.2176 -0.2330
 1090loPI   GL216762   8.696   6.607   6.974  0.2925 -0.4574  0.0510
 1090loPI   C1A16763   8.779   6.170   7.213  0.0616  0.0042 -0.0193
 1090loPI   C2A16764   8.703   6.180   7.658  0.2628 -0.3352  0.1039
 1090loPI   C3A16765   8.726   6.108   7.992 -0.2192  0.0800  0.1559
 1090loPI   C4A16766   8.765   6.176   8.427 -0.0127  0.1168  0.2692
 1090loPI   C5A16767   8.475   6.132   8.844 -0.0423  0.0683  0.4599
 1090loPI   C6A16768   8.084   5.998   8.905 -0.1503  0.1407 -0.0296
 1090loPI   C1B16769   8.747   6.626   7.458  0.1221  0.0262  0.3246
 1090loPI   C2B16770   8.689   6.663   7.880  0.1150  0.0422  0.0979
 1090loPI   C3B16771   8.818   6.625   8.205 -0.1409 -0.2328  0.0649
 1090loPI   C4B16772   8.878   6.611   8.679 -0.1761  0.0927 -0.2156
 1091loPI    C116773   1.728  13.042   5.986  0.0001 -0.0845  0.0870
 1091loPI    C216774   1.909  13.075   5.631  0.0467  0.0333  0.1212
 1091loPI    C316775   1.538  12.928   5.653  0.1197 -0.1657  0.0457
 1091loPI   PO416776   1.930  12.981   6.107 -0.2827 -0.1832  0.1469
 1091loPI   GL116777   1.940  13.185   6.494  0.2429  0.3873  0.4512
 1091loPI   GL216778   2.268  13.137   6.467  0.0059 -0.1635 -0.1021
 1091loPI   C1A16779   1.650  13.378   6.831 -0.1328  0.0376 -0.0502
 1091loPI   C2A16780   1.678  13.339   7.288 -0.2875  0.2621  0.1069
 1091loPI   C3A16781   1.719  13.408   7.781  0.0385 -0.4320 -0.2954
 1091loPI   C4A16782   1.727  13.481   8.212 -0.2569 -0.2952 -0.2677
 1091loPI   C5A16783   1.733  13.443   8.674 -0.0128  0.1181  0.1430
 1091loPI   C6A16784   1.584  13.248   9.104  0.2219  0.4014 -0.0032
 1091loPI   C1B16785   2.116  13.134   6.956 -0.2089  0.2250  0.1621
 1091loPI   C2B16786   2.148  13.179   7.412 -0.0584  0.0129  0.0252
 1091loPI   C3B16787   2.168  13.158   7.885 -0.0031 -0.1121  0.0871
 1091loPI   C4B16788   2.174  13.261   8.256 -0.1924  0.2140 -0.0643
 1092loPI    C116789  17.185  13.019   5.904  0.3093  0.2719  0.0571
 1092loPI    C216790  17.412  13.013   5.575  0.1170 -0.0214 -0.0743
 1092loPI    C316791  17.024  13.104   5.547  0.1184  0.0357  0.0846
 1092loPI   PO416792  17.247  13.145   6.032  0.2791  0.1118  0.1488
 1092loPI   GL116793  17.327  13.204   6.442 -0.0587 -0.3898 -0.0437
 1092loPI   GL216794  17.090  13.081   6.483  0.1020  0.1574  0.0539
 1092loPI   C1A16795  17.321  13.361   6.931  0.0718  0.1743  0.1545
 1092loPI   C2A16796  17.325  13.392   7.368  0.2121  0.0956  0.1038
 1092loPI   C3A16797  17.244  13.341   7.797 -0.1499  0.1459  0.0820
 1092loPI   C4A16798  17.270  13.442   8.126  0.1726 -0.1603 -0.1621
 1092loPI   C5A16799  17.170  13.599   8.632  0.1299 -0.3621 -0.2272
 1092loPI   C6A16800  16.895  13.924   8.721 -0.2491 -0.3633  0.0800
 1092loPI   C1B16801  16.992  13.055   6.801  0.0514  0.1481 -0.0649
 1092loPI   C2B16802  16.816  13.103   7.229  0.0513  0.3125 -0.2760
 1092loPI   C3B16803  16.897  13.087   7.602  0.0397  0.2558  0.1437
 1092loPI   C4B16804  16.831  13.154   7.980 -0.1811  0.1532  0.1179
 1093loPI    C116805  17.082   7.668   6.092 -0.0732 -0.0965  0.1443
 1093loPI    C216806  17.012   8.061   6.088  0.3333 -0.0205 -0.0874
 1093loPI    C316807  17.036   7.859   5.744  0.0547 -0.2653  0.0328
 1093loPI   PO416808  17.016   7.603   6.305  0.0323  0.0637 -0.0052
 1093loPI   GL116809  17.010   7.602   6.728 -0.1668 -0.1133  0.1213
 1093loPI   GL216810  17.355   7.601   6.662  0.0131  0.0325 -0.2721
 1093loPI   C1A16811  17.006   7.761   7.025 -0.1033 -0.0780 -0.0280
 1093loPI   C2A16812  16.939   7.804   7.407  0.0914  0.3106  0.0343
 1093loPI   C3A16813  16.936   7.885   7.820  0.0215  0.1070 -0.0703
 1093loPI   C4A16814  17.074   7.907   8.161  0.2907 -0.2115 -0.0214
 1093loPI   C5A16815  17.311   7.980   8.597 -0.0470  0.0403  0.1592
 1093loPI   C6A16816  17.611   7.783   8.860  0.1316 -0.2553 -0.0089
 1093loPI   C1B16817  17.456   7.563   7.023  0.0467  0.1002  0.1814
 1093loPI   C2B16818  17.482   7.598   7.505  0.0174  0.1348  0.1554
 1093loPI   C3B16819  17.548   7.624   7.853 -0.0275  0.1649  0.0452
 1093loPI   C4B16820  17.582   7.756   8.331 -0.0306 -0.0564  0.1156
 1094loPI    C116821   0.571   9.915   5.893  0.0372  0.1716  0.0167
 1094loPI    C216822   0.641  10.116   5.554  0.1880  0.0332 -0.0354
 1094loPI    C316823   0.836   9.775   5.628 -0.1282 -0.1413  0.0128
 1094loPI   PO416824   0.626  10.021   6.126 -0.0659  0.0779  0.1603
 1094loPI   GL116825   0.881   9.986   6.438 -0.2516  0.1192  0.3216
 1094loPI   GL216826   0.890  10.310   6.501  0.1648 -0.1091 -0.2810
 1094loPI   C1A16827   0.830   9.774   6.922 -0.0949 -0.2143 -0.1031
 1094loPI   C2A16828   0.858   9.656   7.322  0.2127  0.0151 -0.1237
 1094loPI   C3A16829   0.958   9.756   7.787 -0.0374 -0.1489  0.0471
 1094loPI   C4A16830   0.943   9.795   8.168 -0.1089  0.1970 -0.1422
 1094loPI   C5A16831   1.318   9.917   8.514  0.3116 -0.5078  0.0111
 1094loPI   C6A16832   1.632  10.200   8.738  0.0643  0.0522 -0.0042
 1094loPI   C1B16833   0.868  10.291   7.019  0.2055 -0.0672  0.0878
 1094loPI   C2B16834   0.925  10.201   7.411 -0.0829 -0.0071  0.2107
 1094loPI   C3B16835   0.954  10.275   7.837 -0.0321  0.2774  0.0485
 1094loPI   C4B16836   0.911  10.342   8.258 -0.0398  0.3187 -0.2069
 1095loPI    C116837   4.489   4.994   5.889  0.1967  0.0098  0.0992
 1095loPI    C216838   4.864   4.977   5.751  0.1154  0.0836 -0.1344
 1095loPI    C316839   4.559   5.021   5.496 -0.0706 -0.1980  0.0345
 1095loPI   PO416840   4.578   5.086   6.160 -0.1706 -0.3191  0.1769
 1095loPI   GL116841   4.379   5.361   6.472  0.1026 -0.3286  0.0802
 1095loPI   GL216842   4.313   5.723   6.476 -0.0349  0.0320  0.0755
 1095loPI   C1A16843   4.338   5.403   6.900  0.2121 -0.0953 -0.2890
 1095loPI   C2A16844   4.156   5.468   7.245  0.0783 -0.0913  0.2048
 1095loPI   C3A16845   4.184   5.454   7.667 -0.0848  0.1358  0.0065
 1095loPI   C4A16846   4.261   5.421   8.122 -0.2020  0.1436 -0.1106
 1095loPI   C5A16847   4.444   5.542   8.495  0.2721  0.2463 -0.1166
 1095loPI   C6A16848   4.371   5.324   8.862  0.4683 -0.0270  0.0120
 1095loPI   C1B16849   4.242   5.913   6.966  0.3099 -0.0457 -0.2800
 1095loPI   C2B16850   4.235   5.978   7.449  0.0416 -0.0051 -0.2391
 1095loPI   C3B16851   4.182   5.942   7.893  0.1999  0.1885 -0.2731
 1095loPI   C4B16852   4.267   5.931   8.355  0.1295  0.1993 -0.0371
 1096loPI    C116853  16.397   6.867   6.273  0.1052 -0.0236  0.0534
 1096loPI    C216854  16.784   6.767   6.252  0.1034 -0.0409  0.0994
 1096loPI    C316855  16.672   7.146   6.190  0.1257 -0.0396  0.0671
 1096loPI   PO416856  16.280   6.818   6.474 -0.0802 -0.5053 -0.0108
 1096loPI   GL116857  16.383   6.769   6.862 -0.2958  0.2939 -0.0344
 1096loPI   GL216858  16.656   6.614   6.815  0.0346 -0.0726  0.4010
 1096loPI   C1A16859  16.398   7.019   7.127  0.1209  0.2967 -0.0937
 1096loPI   C2A16860  16.533   7.051   7.529  0.0518  0.0335 -0.1935
 1096loPI   C3A16861  16.667   7.131   7.920  0.0871  0.2121  0.0513
 1096loPI   C4A16862  16.478   7.201   8.347  0.1082 -0.0796  0.0746
 1096loPI   C5A16863  16.523   7.179   8.710  0.2137 -0.2089 -0.1061
 1096loPI   C6A16864  16.707   6.921   8.913 -0.0926  0.0849  0.0288
 1096loPI   C1B16865  16.632   6.595   7.321  0.0951  0.2861 -0.1341
 1096loPI   C2B16866  16.691   6.540   7.752  0.0725 -0.1220  0.0128
 1096loPI   C3B16867  16.700   6.682   8.139  0.1729  0.2622  0.0887
 1096loPI   C4B16868  16.587   6.716   8.484 -0.0541 -0.0554 -0.1031
 1097loPI    C116869  16.213  11.193   5.888 -0.0386 -0.0336  0.0916
 1097loPI    C216870  16.574  11.183   5.716  0.0329  0.1270  0.2297
 1097loPI    C316871  16.245  11.203   5.489  0.1049 -0.1204  0.1006
 1097loPI   PO416872  16.247  11.403   6.086  0.1709 -0.3319 -0.0459
 1097loPI   GL116873  16.271  11.286   6.529  0.1696 -0.0772 -0.0227
 1097loPI   GL216874  16.530  11.066   6.655 -0.1992 -0.2651  0.0958
 1097loPI   C1A16875  16.136  11.454   6.885 -0.0846 -0.1129 -0.1795
 1097loPI   C2A16876  16.171  11.504   7.318  0.0386 -0.0435  0.2087
 1097loPI   C3A16877  16.124  11.523   7.638 -0.3036  0.0665 -0.1519
 1097loPI   C4A16878  16.051  11.564   8.008  0.1987  0.2369  0.0299
 1097loPI   C5A16879  16.105  11.674   8.394  0.0420  0.1204 -0.1022
 1097loPI   C6A16880  16.185  12.072   8.602  0.1435 -0.1007  0.0091
 1097loPI   C1B16881  16.466  11.175   7.068 -0.0084  0.1595 -0.0777
 1097loPI   C2B16882  16.449  11.163   7.553  0.0932  0.0888  0.1098
 1097loPI   C3B16883  16.507  11.332   7.912 -0.0996 -0.0065 -0.0528
 1097loPI   C4B16884  16.525  11.343   8.324 -0.0599  0.0063 -0.0842
 1098loPI    C116885   9.452  15.325   5.837  0.1566 -0.1600 -0.1587
 1098loPI    C216886   9.108  15.511   5.753  0.0336 -0.3374 -0.0555
 1098loPI    C316887   9.423  15.554   5.511 -0.0381 -0.1153 -0.1115
 1098loPI   PO416888   9.480  15.334   6.084  0.0291 -0.2308 -0.0776
 1098loPI   GL116889   9.540  15.542   6.344  0.2279 -0.0375  0.1648
 1098loPI   GL216890   9.787  15.578   6.564 -0.4221  0.2040 -0.2517
 1098loPI   C1A16891   9.269  15.401   6.697  0.1524 -0.1090 -0.3353
 1098loPI   C2A16892   9.266  15.283   7.040 -0.2246  0.1985 -0.1239
 1098loPI   C3A16893   9.295  15.415   7.411 -0.0690 -0.0477 -0.3245
 1098loPI   C4A16894   9.304  15.313   7.832 -0.0062 -0.3357  0.0791
 1098loPI   C5A16895   9.252  15.385   8.214  0.0468 -0.2447  0.3624
 1098loPI   C6A16896   9.023  15.707   8.416  0.1424  0.0745 -0.3616
 1098loPI   C1B16897   9.747  15.612   7.025  0.0884  0.0149 -0.0475
 1098loPI   C2B16898   9.777  15.617   7.466 -0.1126 -0.2317  0.3679
 1098loPI   C3B16899   9.685  15.626   7.932 -0.2303  0.1969 -0.1703
 1098loPI   C4B16900   9.582  15.799   8.388  0.1720 -0.2533  0.1007
 1099loPI    C116901  15.685   5.815   5.978 -0.0771  0.1214 -0.0603
 1099loPI    C216902  15.679   6.202   6.082  0.0390  0.1208 -0.0499
 1099loPI    C316903  15.747   6.098   5.701 -0.3309  0.1214 -0.1194
 1099loPI   PO416904  15.657   5.681   6.206 -0.0281 -0.0097  0.1768
 1099loPI   GL116905  15.653   5.441   6.566 -0.2753  0.0946  0.1664
 1099loPI   GL216906  15.319   5.286   6.509 -0.2357 -0.0758 -0.1029
 1099loPI   C1A16907  15.862   5.562   7.065 -0.1194 -0.0456 -0.1267
 1099loPI   C2A16908  15.930   5.556   7.523  0.2353  0.1520 -0.0218
 1099loPI   C3A16909  15.960   5.530   7.918  0.1822  0.0681 -0.1770
 1099loPI   C4A16910  16.016   5.476   8.424  0.0955 -0.3546 -0.0506
 1099loPI   C5A16911  16.307   5.349   8.700  0.0155 -0.0611 -0.1475
 1099loPI   C6A16912  16.508   5.576   9.061  0.0917  0.2144  0.1199
 1099loPI   C1B16913  15.341   5.270   6.984 -0.1312  0.1600  0.1460
 1099loPI   C2B16914  15.273   5.330   7.459 -0.3427 -0.0593 -0.0191
 1099loPI   C3B16915  15.521   5.325   7.800  0.0007 -0.0202  0.1374
 1099loPI   C4B16916  15.541   5.332   8.236  0.1206 -0.1672  0.0517
 1100loPI    C116917  12.795   5.094   5.932  0.1543  0.1552 -0.1857
 1100loPI    C216918  12.547   5.135   5.621 -0.3360 -0.1787  0.1470
 1100loPI    C316919  12.833   4.856   5.612 -0.0013  0.1639 -0.2114
 1100loPI   PO416920  12.731   5.026   6.184 -0.2635 -0.1194  0.0786
 1100loPI   GL116921  12.927   4.816   6.510  0.0958  0.0517 -0.1231
 1100loPI   GL216922  13.112   5.093   6.586 -0.2218  0.3434 -0.2237
 1100loPI   C1A16923  12.627   4.874   6.848  0.0607 -0.3989  0.1963
 1100loPI   C2A16924  12.690   4.831   7.313 -0.0011  0.1778 -0.2047
 1100loPI   C3A16925  12.726   4.852   7.751 -0.0255 -0.1554 -0.0679
 1100loPI   C4A16926  12.764   4.939   8.207  0.1371 -0.0442 -0.1775
 1100loPI   C5A16927  12.779   4.851   8.637 -0.0401 -0.1538  0.1433
 1100loPI   C6A16928  12.522   4.557   8.855  0.0638  0.0829  0.0555
 1100loPI   C1B16929  13.069   5.034   7.066 -0.1189 -0.4729 -0.0502
 1100loPI   C2B16930  13.152   5.052   7.498 -0.4136 -0.0157 -0.1987
 1100loPI   C3B16931  13.213   5.130   7.916  0.2526 -0.0213  0.0004
 1100loPI   C4B16932  13.172   5.206   8.315  0.0722 -0.0103 -0.1476
 1101loPI    C116933   9.766   4.255   6.115 -0.2692  0.0153 -0.0159
 1101loPI    C216934   9.409   4.186   5.950 -0.2610  0.2737 -0.1472
 1101loPI    C316935   9.669   4.430   5.769  0.0508 -0.0455 -0.1402
 1101loPI   PO416936   9.701   4.310   6.378 -0.0673  0.0719 -0.2200
 1101loPI   GL116937   9.754   4.141   6.795  0.1124  0.2122  0.0016
 1101loPI   GL216938   9.980   4.367   6.772 -0.0470 -0.0521  0.2371
 1101loPI   C1A16939   9.630   4.024   7.200  0.1969 -0.3067  0.2463
 1101loPI   C2A16940   9.600   4.085   7.650 -0.0738  0.0559 -0.1698
 1101loPI   C3A16941   9.692   4.017   8.078  0.0378  0.1729  0.1135
 1101loPI   C4A16942   9.683   4.070   8.518  0.0446 -0.3080  0.1447
 1101loPI   C5A16943   9.785   4.201   8.842  0.1402 -0.1574 -0.2437
 1101loPI   C6A16944   9.985   4.420   9.137 -0.0113 -0.0207 -0.1464
 1101loPI   C1B16945   9.880   4.534   7.163 -0.1936 -0.0439  0.2518
 1101loPI   C2B16946   9.795   4.582   7.596 -0.2390  0.1162 -0.0683
 1101loPI   C3B16947   9.688   4.544   7.987 -0.0618  0.0319 -0.0691
 1101loPI   C4B16948   9.629   4.554   8.410  0.0745 -0.1801 -0.2883
 1102loPI    C116949  10.241   4.146   6.121  0.0234 -0.1005  0.0721
 1102loPI    C216950  10.045   4.016   5.798  0.1668 -0.0100 -0.0529
 1102loPI    C316951  10.122   4.406   5.841 -0.2442  0.0387  0.3105
 1102loPI   PO416952  10.154   3.998   6.343 -0.0785 -0.0296 -0.0613
 1102loPI   GL116953  10.296   3.991   6.770 -0.0384 -0.1235  0.3657
 1102loPI   GL216954  10.600   4.048   6.897  0.0519  0.0296 -0.0743
 1102loPI   C1A16955  10.140   4.122   7.150  0.0130 -0.1228 -0.1686
 1102loPI   C2A16956  10.120   4.153   7.604 -0.1498 -0.1930  0.0261
 1102loPI   C3A16957  10.175   4.335   8.016  0.0277  0.2252  0.1069
 1102loPI   C4A16958  10.169   4.320   8.441  0.0046 -0.1969  0.1878
 1102loPI   C5A16959  10.307   4.183   8.880  0.0890  0.1410  0.2377
 1102loPI   C6A16960  10.413   4.199   9.204 -0.4750  0.0635 -0.1273
 1102loPI   C1B16961  10.597   4.025   7.407  0.3354 -0.0689 -0.0163
 1102loPI   C2B16962  10.601   4.113   7.790  0.1019  0.2963  0.1599
 1102loPI   C3B16963  10.567   4.035   8.067  0.1969  0.0604  0.1249
 1102loPI   C4B16964  10.606   4.183   8.476  0.0901  0.0411 -0.2977
 1103loPI    C116965  13.633   6.841   5.603  0.0712  0.0159  0.1246
 1103loPI    C216966  13.769   7.022   5.273 -0.1176  0.2823  0.1899
 1103loPI    C316967  13.385   6.912   5.298 -0.0459  0.0323  0.2231
 1103loPI   PO416968  13.738   6.994   5.821  0.1159 -0.3129 -0.3089
 1103loPI   GL116969  13.926   6.934   6.366  0.3170  0.0812  0.0159
 1103loPI   GL216970  13.778   7.194   6.319  0.0902 -0.0574 -0.1383
 1103loPI   C1A16971  14.080   7.080   6.802  0.1170 -0.0519 -0.1164
 1103loPI   C2A16972  14.099   7.183   7.209  0.0086 -0.1099 -0.0797
 1103loPI   C3A16973  14.152   7.228   7.635 -0.0746 -0.0014 -0.0091
 1103loPI   C4A16974  14.318   7.212   7.930  0.1324 -0.0538 -0.1963
 1103loPI   C5A16975  14.182   7.226   8.368  0.0115  0.0706  0.1127
 1103loPI   C6A16976  14.452   7.282   8.755  0.2943  0.1046 -0.1703
 1103loPI   C1B16977  13.630   7.388   6.784 -0.2109  0.2763  0.1537
 1103loPI   C2B16978  13.705   7.468   7.243 -0.1255 -0.1292 -0.2522
 1103loPI   C3B16979  13.702   7.466   7.620 -0.1123 -0.2926  0.2195
 1103loPI   C4B16980  13.680   7.605   8.106 -0.0259  0.0761  0.3623
 1104loPI    C116981  11.669   6.648   5.580  0.0734  0.1051 -0.0182
 1104loPI    C216982  11.617   7.000   5.398  0.0954  0.2404  0.2325
 1104loPI    C316983  11.305   6.756   5.454  0.0908  0.1923  0.0056
 1104loPI   PO416984  11.828   6.706   5.870  0.1156  0.0087 -0.0204
 1104loPI   GL116985  11.794   6.840   6.214 -0.1469  0.5405  0.3130
 1104loPI   GL216986  12.001   6.640   6.359 -0.1215  0.1783 -0.1289
 1104loPI   C1A16987  11.743   6.947   6.664 -0.1428  0.2344  0.2995
 1104loPI   C2A16988  11.836   7.015   7.049 -0.0952 -0.1941  0.0294
 1104loPI   C3A16989  11.859   7.076   7.470  0.0142  0.1681  0.3942
 1104loPI   C4A16990  11.894   6.886   7.805 -0.0363 -0.0672  0.1894
 1104loPI   C5A16991  12.037   6.930   8.157 -0.0809  0.2527 -0.1675
 1104loPI   C6A16992  12.023   7.027   8.523  0.0227  0.1484  0.1790
 1104loPI   C1B16993  12.175   6.648   6.794  0.1376 -0.1615 -0.1800
 1104loPI   C2B16994  12.341   6.774   7.101 -0.0347 -0.2493  0.5138
 1104loPI   C3B16995  12.321   6.665   7.523  0.0448 -0.2304 -0.1673
 1104loPI   C4B16996  12.378   6.692   7.898 -0.0739 -0.1675 -0.0184
 1105loPI    C116997  12.239   4.699   5.765  0.0884 -0.1471 -0.0889
 1105loPI    C216998  12.291   4.773   5.375  0.2198 -0.2840 -0.0982
 1105loPI    C316999  12.096   4.444   5.492  0.1294 -0.2134 -0.0486
 1105loPI   PO417000  12.405   4.760   5.920  0.1641 -0.0007  0.0248
 1105loPI   GL117001  12.395   4.737   6.424  0.0600 -0.0531  0.1985
 1105loPI   GL217002  12.225   4.945   6.366  0.0087  0.0102 -0.1339
 1105loPI   C1A17003  12.197   4.553   6.797  0.1167  0.1687  0.2551
 1105loPI   C2A17004  12.339   4.586   7.115 -0.4506  0.1147 -0.2629
 1105loPI   C3A17005  12.323   4.566   7.520  0.1919 -0.0837  0.0288
 1105loPI   C4A17006  12.318   4.599   8.031 -0.1049 -0.0505  0.4599
 1105loPI   C5A17007  12.335   4.702   8.399 -0.2545 -0.3671 -0.0123
 1105loPI   C6A17008  12.236   4.979   8.797 -0.0464 -0.1104  0.0987
 1105loPI   C1B17009  12.144   5.128   6.741  0.0332  0.0297  0.4744
 1105loPI   C2B17010  12.207   5.148   7.144  0.2737 -0.1259 -0.3938
 1105loPI   C3B17011  12.319   5.142   7.575 -0.1939 -0.1320 -0.1221
 1105loPI   C4B17012  12.365   5.144   7.999 -0.2481  0.0038 -0.1711
 1106loPI    C117013  14.116  16.269   5.478 -0.1204  0.0978 -0.0054
 1106loPI    C217014  14.264  16.535   5.218  0.1120 -0.0619 -0.0396
 1106loPI    C317015  13.914  16.356   5.143  0.0577  0.0760 -0.1197
 1106loPI   PO417016  14.254  16.406   5.717 -0.1782  0.2121  0.1665
 1106loPI   GL117017  14.342  16.559   6.148 -0.1112 -0.1186 -0.2834
 1106loPI   GL217018  14.596  16.462   6.334  0.2442 -0.0218  0.4089
 1106loPI   C1A17019  14.189  16.629   6.517 -0.2300  0.1338 -0.0337
 1106loPI   C2A17020  14.173  16.660   6.997 -0.0553 -0.0333  0.0911
 1106loPI   C3A17021  14.135  16.609   7.396  0.1386  0.0654  0.0314
 1106loPI   C4A17022  14.069  16.691   7.804 -0.1151 -0.4001 -0.0212
 1106loPI   C5A17023  14.170  16.573   8.216  0.0273  0.1477 -0.2152
 1106loPI   C6A17024  14.087  16.830   8.644 -0.3364 -0.2732 -0.2036
 1106loPI   C1B17025  14.510  16.332   6.728  0.0861  0.0964  0.1077
 1106loPI   C2B17026  14.607  16.389   7.202  0.0275 -0.2048 -0.3226
 1106loPI   C3B17027  14.589  16.409   7.620  0.1245  0.2906 -0.1418
 1106loPI   C4B17028  14.559  16.426   8.013 -0.0388  0.3758 -0.2341
 1107loPI    C117029  16.014   4.872   5.615  0.1194  0.0573 -0.2236
 1107loPI    C217030  15.827   4.625   5.362  0.0178  0.0555 -0.1473
 1107loPI    C317031  16.193   4.761   5.275 -0.0430  0.1072 -0.3268
 1107loPI   PO417032  16.070   4.733   5.935  0.1278  0.2728  0.1629
 1107loPI   GL117033  16.279   4.732   6.411 -0.2993  0.1655  0.0485
 1107loPI   GL217034  16.581   4.749   6.376 -0.0973 -0.1063  0.1122
 1107loPI   C1A17035  16.292   4.707   6.834  0.1392  0.1902  0.2553
 1107loPI   C2A17036  16.320   4.686   7.273 -0.0638 -0.0046  0.0953
 1107loPI   C3A17037  16.331   4.756   7.676  0.1254  0.3812 -0.1697
 1107loPI   C4A17038  16.373   4.786   8.098 -0.1158 -0.0969  0.1904
 1107loPI   C5A17039  16.341   4.906   8.470 -0.0016  0.1515  0.0627
 1107loPI   C6A17040  16.209   4.699   8.851  0.2113 -0.0036  0.2228
 1107loPI   C1B17041  16.801   4.501   6.767  0.1745 -0.0341  0.0216
 1107loPI   C2B17042  16.820   4.459   7.220 -0.1213 -0.0343  0.0517
 1107loPI   C3B17043  16.779   4.452   7.641 -0.1208 -0.1957  0.0674
 1107loPI   C4B17044  16.809   4.518   8.063 -0.2766 -0.3218 -0.1898
 1108loPI    C117045  13.158   4.420   5.752 -0.0316  0.0972  0.0526
 1108loPI    C217046  13.432   4.682   5.625 -0.2193  0.2623 -0.0189
 1108loPI    C317047  13.265   4.426   5.367  0.2253 -0.1811  0.1165
 1108loPI   PO417048  13.268   4.330   5.986  0.3225 -0.1023 -0.0956
 1108loPI   GL117049  13.187   4.379   6.364  0.0693  0.0532 -0.1782
 1108loPI   GL217050  13.118   4.051   6.453  0.0049 -0.1230 -0.2333
 1108loPI   C1A17051  13.145   4.547   6.895 -0.3910 -0.2286  0.1361
 1108loPI   C2A17052  13.150   4.568   7.318  0.0805 -0.2226 -0.0198
 1108loPI   C3A17053  13.172   4.636   7.732 -0.0367  0.1169  0.2665
 1108loPI   C4A17054  13.161   4.672   8.157 -0.0954  0.3572  0.0314
 1108loPI   C5A17055  13.266   4.730   8.635  0.0907  0.1326 -0.1510
 1108loPI   C6A17056  13.426   4.709   8.949  0.3205  0.0458 -0.1009
 1108loPI   C1B17057  13.124   4.015   6.771  0.1947 -0.0627  0.2055
 1108loPI   C2B17058  13.151   4.073   7.181  0.0246  0.0868 -0.1018
 1108loPI   C3B17059  13.241   3.997   7.597 -0.1895 -0.0419 -0.2958
 1108loPI   C4B17060  13.190   4.150   7.985 -0.0648 -0.2747  0.1291
 1109loPI    C117061  10.944   1.164   5.943 -0.1092  0.0378 -0.0214
 1109loPI    C217062  10.988   0.894   5.651 -0.2031 -0.0337  0.0296
 1109loPI    C317063  10.741   1.205   5.601 -0.0648  0.0656 -0.0446
 1109loPI   PO417064  11.162   1.072   6.121 -0.2490 -0.1576 -0.1654
 1109loPI   GL117065  11.442   0.752   6.390  0.1169 -0.2663  0.2659
 1109loPI   GL217066  11.414   0.437   6.288  0.1493 -0.1281  0.2387
 1109loPI   C1A17067  11.569   0.875   6.795  0.4060 -0.1924  0.0197
 1109loPI   C2A17068  11.479   0.860   7.226 -0.2566 -0.1248 -0.0240
 1109loPI   C3A17069  11.493   0.976   7.674 -0.0537  0.0376 -0.0565
 1109loPI   C4A17070  11.457   0.929   8.078  0.2723 -0.1410  0.2243
 1109loPI   C5A17071  11.301   1.099   8.432 -0.0142 -0.2290 -0.0086
 1109loPI   C6A17072  11.263   1.195   8.768  0.0724  0.1673 -0.1809
 1109loPI   C1B17073  11.464   0.309   6.786 -0.2133 -0.1047  0.1292
 1109loPI   C2B17074  11.485   0.332   7.212  0.2663  0.0276 -0.2159
 1109loPI   C3B17075  11.449   0.432   7.630 -0.0441 -0.0098 -0.1583
 1109loPI   C4B17076  11.460   0.400   8.088 -0.4350 -0.2078 -0.3760
 1110loPI    C117077  11.007  12.933   5.666 -0.0506  0.1084  0.0104
 1110loPI    C217078  11.144  12.760   5.333 -0.1015  0.0212  0.0344
 1110loPI    C317079  10.765  12.700   5.449 -0.0591 -0.0184  0.1538
 1110loPI   PO417080  11.241  12.910   5.782  0.2196  0.0085 -0.3893
 1110loPI   GL117081  11.388  12.904   6.241  0.2727  0.1964 -0.0333
 1110loPI   GL217082  11.137  12.909   6.327 -0.2544  0.4945  0.1126
 1110loPI   C1A17083  11.524  12.954   6.669 -0.0356  0.0693 -0.1835
 1110loPI   C2A17084  11.522  12.958   7.096  0.2161 -0.0161 -0.0063
 1110loPI   C3A17085  11.511  12.977   7.563 -0.0857  0.1192 -0.0906
 1110loPI   C4A17086  11.552  12.953   8.038  0.0624 -0.1202  0.2555
 1110loPI   C5A17087  11.712  13.148   8.441 -0.0648 -0.0883 -0.1259
 1110loPI   C6A17088  11.539  13.149   8.809  0.1074 -0.0801 -0.0009
 1110loPI   C1B17089  11.095  13.210   6.746 -0.0506 -0.3267 -0.3923
 1110loPI   C2B17090  11.075  13.186   7.236  0.4020 -0.1815 -0.0898
 1110loPI   C3B17091  11.081  13.346   7.618 -0.1309 -0.1561 -0.1970
 1110loPI   C4B17092  11.088  13.308   8.023 -0.0136  0.0190 -0.1437
 1111loPI    C117093   7.730  11.657   6.082 -0.0816  0.0532 -0.0485
 1111loPI    C217094   8.029  11.876   5.930  0.1303 -0.1845  0.0177
 1111loPI    C317095   7.754  11.716   5.687  0.1818 -0.1473 -0.0653
 1111loPI   PO417096   7.655  11.805   6.244  0.0465 -0.1329  0.0636
 1111loPI   GL117097   7.753  12.082   6.536  0.0521 -0.3907  0.1248
 1111loPI   GL217098   7.530  12.323   6.629  0.4819  0.2874 -0.3458
 1111loPI   C1A17099   7.934  11.893   6.965 -0.0947 -0.2138  0.0591
 1111loPI   C2A17100   7.925  11.956   7.347 -0.0851 -0.1771  0.2382
 1111loPI   C3A17101   7.869  11.914   7.759 -0.1365  0.3380 -0.0712
 1111loPI   C4A17102   7.769  11.918   8.236 -0.0603  0.0443 -0.0519
 1111loPI   C5A17103   7.515  11.649   8.513  0.0617  0.1667  0.3074
 1111loPI   C6A17104   7.191  11.593   8.755  0.0438  0.2565 -0.1097
 1111loPI   C1B17105   7.548  12.179   7.080 -0.1492 -0.2920 -0.0877
 1111loPI   C2B17106   7.469  12.157   7.541 -0.0748 -0.1189  0.0793
 1111loPI   C3B17107   7.491  12.286   7.931  0.1724  0.1528  0.2470
 1111loPI   C4B17108   7.459  12.217   8.409  0.2126 -0.4054 -0.1463
 1112loPI    C117109   6.242   3.996   6.023 -0.0754  0.2673 -0.1239
 1112loPI    C217110   6.026   3.664   5.972 -0.0290  0.2067  0.0649
 1112loPI    C317111   5.951   3.987   5.749 -0.0325  0.0505 -0.1648
 1112loPI   PO417112   6.323   4.020   6.295 -0.0168 -0.0607 -0.1408
 1112loPI   GL117113   6.259   3.949   6.753 -0.0931  0.0899  0.3238
 1112loPI   GL217114   5.936   3.912   6.750  0.1492  0.2023  0.2636
 1112loPI   C1A17115   6.500   3.768   6.985 -0.3807  0.3853  0.1375
 1112loPI   C2A17116   6.565   3.672   7.462  0.1607  0.1616 -0.0152
 1112loPI   C3A17117   6.534   3.648   7.917  0.2057 -0.0986 -0.1536
 1112loPI   C4A17118   6.625   3.659   8.382  0.1056 -0.2278  0.0726
 1112loPI   C5A17119   6.836   3.636   8.737 -0.1662 -0.1858 -0.0663
 1112loPI   C6A17120   7.229   3.630   8.748 -0.2185 -0.0347 -0.0033
 1112loPI   C1B17121   6.077   4.036   7.223 -0.2022  0.0746 -0.2205
 1112loPI   C2B17122   6.116   3.903   7.636  0.1651  0.0119  0.0098
 1112loPI   C3B17123   6.199   4.034   8.004  0.0286 -0.0827  0.1733
 1112loPI   C4B17124   6.198   4.007   8.415  0.1705 -0.0520  0.0948
 1113loPI    C117125   3.404   5.702   5.801  0.1689  0.0535  0.0228
 1113loPI    C217126   3.608   5.996   5.621 -0.0681  0.0071 -0.3322
 1113loPI    C317127   3.515   5.664   5.418  0.0553 -0.2472  0.0172
 1113loPI   PO417128   3.454   5.732   6.050  0.0012  0.1424  0.4424
 1113loPI   GL117129   3.177   5.901   6.256  0.0960 -0.0114  0.0774
 1113loPI   GL217130   2.957   5.650   6.443  0.0575 -0.1323 -0.1810
 1113loPI   C1A17131   3.331   5.901   6.733  0.0286 -0.1487  0.3537
 1113loPI   C2A17132   3.277   5.931   7.159  0.0002  0.0323 -0.0198
 1113loPI   C3A17133   3.315   6.026   7.572  0.1695  0.1289  0.1253
 1113loPI   C4A17134   3.345   6.122   8.031 -0.1665 -0.0829 -0.0836
 1113loPI   C5A17135   3.262   6.116   8.512  0.1199  0.3729  0.1053
 1113loPI   C6A17136   3.501   6.010   8.833  0.1426  0.1302 -0.1362
 1113loPI   C1B17137   2.888   5.646   6.920  0.0211 -0.0366  0.0460
 1113loPI   C2B17138   2.886   5.702   7.446  0.0547  0.0049 -0.0685
 1113loPI   C3B17139   2.890   5.793   7.830  0.1077 -0.3800  0.2821
 1113loPI   C4B17140   2.929   5.803   8.240  0.0639  0.1334  0.1255
 1114loPI    C117141  10.232  15.807   5.748 -0.0673 -0.1791 -0.1361
 1114loPI    C217142  10.207  16.198   5.826  0.0158 -0.2363  0.1913
 1114loPI    C317143  10.286  16.074   5.454 -0.0169  0.0563  0.0835
 1114loPI   PO417144  10.374  15.718   6.003  0.1101 -0.0190  0.3299
 1114loPI   GL117145  10.440  15.751   6.391 -0.0461  0.2583  0.1216
 1114loPI   GL217146  10.712  15.595   6.570 -0.0862 -0.1097 -0.0787
 1114loPI   C1A17147  10.224  15.844   6.797 -0.1887  0.0534 -0.2302
 1114loPI   C2A17148  10.244  15.870   7.216 -0.2668 -0.1925  0.2068
 1114loPI   C3A17149  10.258  15.939   7.691  0.2858 -0.2564  0.0984
 1114loPI   C4A17150  10.008  15.979   8.085 -0.3012 -0.0482 -0.2311
 1114loPI   C5A17151  10.004  16.177   8.402 -0.0419  0.0409 -0.1114
 1114loPI   C6A17152  10.032  16.219   8.877  0.0441  0.2755  0.0843
 1114loPI   C1B17153  10.572  15.531   6.956 -0.1055 -0.0080 -0.1714
 1114loPI   C2B17154  10.644  15.619   7.363 -0.0168 -0.0007 -0.2478
 1114loPI   C3B17155  10.655  15.628   7.773 -0.0250  0.0264  0.1542
 1114loPI   C4B17156  10.510  15.832   8.210  0.4057  0.0010  0.1243
 1115loPI    C117157   4.024   5.940   5.859  0.0519 -0.0610  0.1856
 1115loPI    C217158   4.386   6.048   5.728 -0.0494  0.0331 -0.0225
 1115loPI    C317159   4.071   6.067   5.483 -0.2144  0.0500  0.1877
 1115loPI   PO417160   4.023   5.938   6.096  0.0897 -0.0925  0.1318
 1115loPI   GL117161   3.837   5.570   6.334 -0.1313  0.3563 -0.0163
 1115loPI   GL217162   3.458   5.496   6.454 -0.0311 -0.0949  0.2134
 1115loPI   C1A17163   3.869   5.569   6.686  0.3218  0.2355 -0.1819
 1115loPI   C2A17164   3.717   5.640   7.053 -0.1741 -0.0305  0.1607
 1115loPI   C3A17165   3.766   5.771   7.439 -0.1451  0.0758  0.1633
 1115loPI   C4A17166   3.759   5.698   7.906 -0.0456  0.0332 -0.0452
 1115loPI   C5A17167   3.737   5.861   8.338  0.1684  0.0840  0.0131
 1115loPI   C6A17168   3.893   6.185   8.549  0.0212  0.0763 -0.0851
 1115loPI   C1B17169   3.346   5.396   6.853  0.2342  0.1187 -0.1598
 1115loPI   C2B17170   3.311   5.448   7.253  0.0991  0.0632 -0.0934
 1115loPI   C3B17171   3.381   5.524   7.665  0.0753 -0.2875 -0.0869
 1115loPI   C4B17172   3.378   5.510   8.168  0.1562  0.0533 -0.1985
 1116loPI    C117173  14.153  15.660   5.512 -0.0094 -0.2374 -0.1127
 1116loPI    C217174  13.989  15.871   5.214 -0.0816  0.0727  0.1414
 1116loPI    C317175  14.374  15.762   5.194 -0.0709  0.1405 -0.0391
 1116loPI   PO417176  14.060  15.730   5.684 -0.1691  0.1685 -0.2092
 1116loPI   GL117177  14.008  15.719   6.131 -0.0600 -0.2004  0.5105
 1116loPI   GL217178  14.224  15.502   6.320 -0.0401  0.0384 -0.0487
 1116loPI   C1A17179  13.794  15.413   6.572  0.3742  0.0788 -0.0384
 1116loPI   C2A17180  13.695  15.293   6.875 -0.1847  0.1256 -0.0528
 1116loPI   C3A17181  13.698  15.345   7.331 -0.1155 -0.0813  0.1404
 1116loPI   C4A17182  13.700  15.329   7.779  0.1723  0.1185  0.1966
 1116loPI   C5A17183  13.685  15.344   8.205 -0.0182  0.4339  0.3908
 1116loPI   C6A17184  13.719  15.531   8.653 -0.0807  0.2206 -0.1423
 1116loPI   C1B17185  14.210  15.609   6.700  0.0337 -0.3276 -0.1405
 1116loPI   C2B17186  14.099  15.618   7.036  0.2775 -0.2067  0.0990
 1116loPI   C3B17187  14.168  15.574   7.488  0.0626 -0.3471  0.0903
 1116loPI   C4B17188  14.079  15.683   7.937 -0.1000 -0.0502  0.1254
 1117loPI    C117189  17.235  10.971   5.839  0.1279  0.2034  0.0212
 1117loPI    C217190  17.056  11.313   5.735  0.0776  0.1859  0.0496
 1117loPI    C317191  17.135  11.036   5.457  0.0072  0.1685  0.0467
 1117loPI   PO417192  17.156  10.982   6.178 -0.0314  0.0902 -0.0339
 1117loPI   GL117193  17.046  11.055   6.610 -0.0676  0.2313 -0.1025
 1117loPI   GL217194  17.256  11.262   6.642 -0.0102  0.0886  0.0308
 1117loPI   C1A17195  16.908  10.848   6.934 -0.1108  0.0467  0.0159
 1117loPI   C2A17196  16.851  10.916   7.287 -0.0884 -0.1094 -0.0219
 1117loPI   C3A17197  16.946  11.053   7.696  0.1329 -0.1083 -0.0121
 1117loPI   C4A17198  16.943  11.039   8.060 -0.2660  0.2148 -0.3199
 1117loPI   C5A17199  16.919  11.044   8.501 -0.1060  0.4343  0.0953
 1117loPI   C6A17200  17.156  10.984   8.806 -0.1888  0.1475 -0.1093
 1117loPI   C1B17201  17.401  11.222   7.112  0.1890  0.0343 -0.0856
 1117loPI   C2B17202  17.461  11.343   7.619  0.0244 -0.0149 -0.0067
 1117loPI   C3B17203  17.403  11.324   8.062 -0.0933  0.0403 -0.1503
 1117loPI   C4B17204  17.315  11.410   8.467 -0.0825 -0.1097 -0.0914
 1118loPI    C117205   6.308   3.239   5.570  0.0538  0.2052 -0.1384
 1118loPI    C217206   6.024   3.488   5.437  0.0849  0.1521 -0.3072
 1118loPI    C317207   6.127   3.169   5.220 -0.2465 -0.2426  0.0970
 1118loPI   PO417208   6.189   3.195   5.846  0.1879  0.3395  0.1097
 1118loPI   GL117209   6.279   3.259   6.299  0.2208  0.1795  0.0775
 1118loPI   GL217210   6.069   3.581   6.422 -0.2786  0.1670  0.3412
 1118loPI   C1A17211   6.086   3.024   6.626  0.1939  0.0398  0.1490
 1118loPI   C2A17212   6.215   2.922   7.005  0.0209  0.0585 -0.1820
 1118loPI   C3A17213   6.126   2.980   7.440  0.1194  0.1862  0.2761
 1118loPI   C4A17214   6.124   2.893   7.821  0.0823  0.2269 -0.0207
 1118loPI   C5A17215   6.168   2.786   8.383  0.0462 -0.1561  0.0502
 1118loPI   C6A17216   6.107   2.797   8.806 -0.0880  0.3162  0.0402
 1118loPI   C1B17217   6.105   3.489   6.807  0.1251 -0.2820  0.0437
 1118loPI   C2B17218   6.132   3.476   7.296 -0.1410 -0.0048 -0.0549
 1118loPI   C3B17219   6.071   3.437   7.763  0.0259 -0.0726  0.0016
 1118loPI   C4B17220   6.108   3.358   8.189  0.3177  0.0427  0.0198
 1119loPI    C117221   7.333  10.220   6.444  0.1493 -0.5250 -0.1605
 1119loPI    C217222   7.106   9.899   6.514 -0.2349 -0.2585 -0.1515
 1119loPI    C317223   7.042  10.121   6.188 -0.0548 -0.1194 -0.0934
 1119loPI   PO417224   7.610  10.155   6.566  0.0650 -0.0018 -0.0684
 1119loPI   GL117225   7.918  10.437   6.721  0.1323 -0.0059 -0.2077
 1119loPI   GL217226   8.148  10.513   6.446  0.1744 -0.1778  0.2108
 1119loPI   C1A17227   7.883  10.380   7.244 -0.0895  0.4362  0.1688
 1119loPI   C2A17228   7.867  10.231   7.637 -0.0152 -0.2400  0.1860
 1119loPI   C3A17229   7.742  10.240   8.020  0.2013 -0.2224 -0.0598
 1119loPI   C4A17230   7.765  10.333   8.500 -0.1359  0.1315 -0.1375
 1119loPI   C5A17231   7.539  10.610   8.793  0.2825 -0.1106 -0.0998
 1119loPI   C6A17232   7.194  10.760   9.083 -0.1049  0.2584 -0.2074
 1119loPI   C1B17233   8.347  10.606   6.808  0.1825  0.1595 -0.3373
 1119loPI   C2B17234   8.299  10.697   7.298 -0.1495 -0.1061 -0.1267
 1119loPI   C3B17235   8.161  10.652   7.701  0.1216 -0.0921 -0.1142
 1119loPI   C4B17236   8.221  10.505   8.025  0.2237 -0.1563  0.1777
 1120loPI    C117237  12.746  11.513   5.827 -0.0398  0.0434 -0.0223
 1120loPI    C217238  12.841  11.126   5.797  0.1184  0.0944 -0.1963
 1120loPI    C317239  12.891  11.369   5.483  0.0046  0.2530 -0.0928
 1120loPI   PO417240  12.849  11.642   6.108 -0.1631  0.1070  0.2021
 1120loPI   GL117241  13.128  11.957   6.413 -0.3659 -0.1927 -0.0391
 1120loPI   GL217242  13.271  12.279   6.680 -0.0855  0.2098  0.1568
 1120loPI   C1A17243  13.147  11.841   6.810  0.0794 -0.1078 -0.0038
 1120loPI   C2A17244  13.217  11.969   7.282 -0.0007  0.0351  0.2358
 1120loPI   C3A17245  13.268  12.016   7.719 -0.1029  0.2007  0.0157
 1120loPI   C4A17246  13.332  12.032   8.188 -0.2259  0.0687  0.0720
 1120loPI   C5A17247  13.097  11.847   8.538  0.1504 -0.1942 -0.3051
 1120loPI   C6A17248  13.081  11.938   8.964 -0.0004  0.2547  0.1545
 1120loPI   C1B17249  13.218  12.574   7.026 -0.1587 -0.2804  0.0254
 1120loPI   C2B17250  13.293  12.500   7.447  0.0460 -0.2175 -0.0757
 1120loPI   C3B17251  13.281  12.506   7.889  0.1600  0.0506  0.1409
 1120loPI   C4B17252  13.214  12.530   8.359 -0.0180  0.1675 -0.0490
 1121loPI    C117253   9.709   0.572   5.836  0.2216 -0.0991 -0.1783
 1121loPI    C217254   9.669   0.897   6.065 -0.1784 -0.3463  0.1149
 1121loPI    C317255   9.827   0.929   5.699 -0.1678  0.1672  0.1569
 1121loPI   PO417256   9.560   0.403   6.110  0.0132  0.0482 -0.1234
 1121loPI   GL117257   9.683   0.498   6.499 -0.0264 -0.3384 -0.0414
 1121loPI   GL217258   9.727   0.845   6.687 -0.0364  0.0872  0.2189
 1121loPI   C1A17259   9.770   0.310   6.832  0.0944  0.2337  0.0213
 1121loPI   C2A17260   9.734   0.330   7.320  0.1337 -0.0992  0.1285
 1121loPI   C3A17261   9.718   0.413   7.794 -0.1079 -0.2755  0.2250
 1121loPI   C4A17262   9.618   0.424   8.218  0.1472 -0.0804  0.1764
 1121loPI   C5A17263   9.239   0.180   8.352  0.0515  0.0702 -0.2432
 1121loPI   C6A17264   8.920   0.099   8.659 -0.1458 -0.5633  0.2894
 1121loPI   C1B17265   9.703   0.844   7.084  0.1047  0.0217  0.0273
 1121loPI   C2B17266   9.678   0.958   7.574 -0.0730 -0.1889 -0.0611
 1121loPI   C3B17267   9.695   0.963   8.064 -0.1438 -0.0819 -0.0866
 1121loPI   C4B17268   9.661   0.844   8.462  0.0875 -0.2463 -0.1569
 1122loPI    C117269   9.733  16.357   5.706 -0.2106  0.0469  0.0479
 1122loPI    C217270   9.730  15.970   5.604  0.0060 -0.0019  0.2208
 1122loPI    C317271   9.744  16.251   5.320  0.1814 -0.1277  0.1030
 1122loPI   PO417272   9.718  16.325   5.927 -0.2302  0.2437  0.1299
 1122loPI   GL117273   9.738  16.488   6.213  0.0909 -0.2158  0.0227
 1122loPI   GL217274  10.121  16.390   6.286  0.1800 -0.2817  0.0507
 1122loPI   C1A17275   9.786  16.648   6.539  0.4802  0.0160  0.0923
 1122loPI   C2A17276   9.794  16.620   6.933  0.3849  0.1414 -0.0717
 1122loPI   C3A17277   9.762  16.735   7.492 -0.3374  0.1145 -0.1704
 1122loPI   C4A17278   9.728  16.788   7.943 -0.0040 -0.1106 -0.0326
 1122loPI   C5A17279   9.643  16.775   8.386 -0.1479 -0.0317 -0.0575
 1122loPI   C6A17280   9.525  16.700   8.762 -0.3176  0.0817  0.3720
 1122loPI   C1B17281  10.208  16.330   6.704 -0.1256  0.0739  0.0400
 1122loPI   C2B17282  10.251  16.424   7.076  0.2189 -0.2182  0.1046
 1122loPI   C3B17283  10.140  16.436   7.512  0.0464 -0.0747  0.0810
 1122loPI   C4B17284  10.168  16.452   7.990  0.1862  0.0576 -0.2899
 1123loPI    C117285  10.155   8.737   5.700  0.0309 -0.0916  0.0021
 1123loPI    C217286  10.215   8.365   5.832 -0.1049 -0.1091  0.0156
 1123loPI    C317287  10.130   8.429   5.446 -0.2240 -0.1062  0.0418
 1123loPI   PO417288  10.202   8.868   5.978  0.0048 -0.1811 -0.1103
 1123loPI   GL117289  10.044   8.948   6.345 -0.0408 -0.0888  0.3614
 1123loPI   GL217290   9.743   8.879   6.507  0.1536  0.0185  0.2046
 1123loPI   C1A17291  10.040   9.122   6.757  0.0296  0.1004 -0.0061
 1123loPI   C2A17292  10.079   9.027   7.226 -0.0529  0.2103  0.1928
 1123loPI   C3A17293  10.073   8.981   7.594  0.1726  0.1275  0.1306
 1123loPI   C4A17294  10.024   9.018   8.057  0.0917 -0.0449  0.4398
 1123loPI   C5A17295   9.860   9.055   8.511  0.0481 -0.2646 -0.2886
 1123loPI   C6A17296   9.727   9.302   8.789 -0.3279 -0.1474  0.2678
 1123loPI   C1B17297   9.653   8.795   6.958 -0.2312 -0.0124  0.0745
 1123loPI   C2B17298   9.627   8.751   7.375  0.3241 -0.0926 -0.1822
 1123loPI   C3B17299   9.575   8.739   7.805  0.0927 -0.0736 -0.1531
 1123loPI   C4B17300   9.629   8.722   8.269  0.0132  0.0732  0.3946
 1124loPI    C117301   1.275   9.352   5.928  0.0749 -0.0546  0.2760
 1124loPI    C217302   1.165   8.993   5.792 -0.0064  0.0596  0.0350
 1124loPI    C317303   1.472   9.185   5.622 -0.0727  0.1790  0.0495
 1124loPI   PO417304   1.323   9.330   6.143  0.1638  0.2090  0.1195
 1124loPI   GL117305   1.128   9.462   6.506 -0.1951  0.0458  0.0853
 1124loPI   GL217306   0.930   9.227   6.709  0.2035  0.0425  0.0372
 1124loPI   C1A17307   1.243   9.453   7.000 -0.0853 -0.0082  0.1604
 1124loPI   C2A17308   1.351   9.528   7.487  0.0588  0.0946  0.0690
 1124loPI   C3A17309   1.398   9.603   7.925  0.0394  0.0319 -0.2159
 1124loPI   C4A17310   1.549   9.529   8.295  0.2339 -0.2248  0.0806
 1124loPI   C5A17311   1.934   9.280   8.472  0.2580 -0.0298 -0.0388
 1124loPI   C6A17312   1.887   8.858   8.549  0.1051  0.1455  0.0911
 1124loPI   C1B17313   0.856   9.171   7.152 -0.1688  0.2163  0.1353
 1124loPI   C2B17314   0.951   9.250   7.610 -0.0003  0.0394 -0.0067
 1124loPI   C3B17315   1.015   9.334   8.051 -0.0579 -0.0151 -0.2243
 1124loPI   C4B17316   1.098   9.412   8.446 -0.0975 -0.0821 -0.2822
 1125loPI    C117317   6.244  12.076   5.929 -0.0250 -0.0609  0.0154
 1125loPI    C217318   6.527  11.829   5.791  0.0884  0.0403  0.0654
 1125loPI    C317319   6.233  11.951   5.549  0.2544  0.1720 -0.0733
 1125loPI   PO417320   6.147  11.943   6.188  0.0539 -0.1581 -0.1067
 1125loPI   GL117321   6.080  11.784   6.585  0.1997 -0.2721 -0.0756
 1125loPI   GL217322   6.163  11.553   6.657 -0.0237  0.2620  0.1040
 1125loPI   C1A17323   6.185  11.947   6.984 -0.1505  0.1473 -0.2146
 1125loPI   C2A17324   6.225  12.032   7.415  0.3327  0.0397  0.2308
 1125loPI   C3A17325   6.199  11.963   7.894 -0.1757 -0.1045  0.1790
 1125loPI   C4A17326   6.200  11.953   8.278  0.1624  0.1307  0.0413
 1125loPI   C5A17327   5.975  11.926   8.657  0.1649 -0.0231 -0.0603
 1125loPI   C6A17328   6.015  11.950   9.015  0.0658  0.3738  0.2895
 1125loPI   C1B17329   6.155  11.449   7.055  0.0175 -0.0031 -0.4621
 1125loPI   C2B17330   6.196  11.483   7.386 -0.0858  0.2222  0.2615
 1125loPI   C3B17331   6.319  11.354   7.784 -0.1381  0.0112  0.0107
 1125loPI   C4B17332   6.175  11.434   8.217 -0.0046  0.0374 -0.0278
 1126loPI    C117333   2.877  15.845   6.034  0.0592 -0.1021 -0.1187
 1126loPI    C217334   2.903  15.450   5.981 -0.2005 -0.1477  0.0741
 1126loPI    C317335   2.710  15.675   5.713  0.1253 -0.1211 -0.1430
 1126loPI   PO417336   2.993  15.888   6.212 -0.3112  0.2086  0.0009
 1126loPI   GL117337   3.134  15.799   6.656  0.1312  0.3128 -0.1098
 1126loPI   GL217338   3.404  15.983   6.725 -0.1121 -0.2699  0.1237
 1126loPI   C1A17339   3.129  15.700   7.099 -0.6234 -0.0310  0.1026
 1126loPI   C2A17340   3.103  15.740   7.568 -0.0511  0.1663  0.0677
 1126loPI   C3A17341   3.164  15.781   7.988 -0.5044  0.1456  0.1760
 1126loPI   C4A17342   3.071  15.773   8.469 -0.0737 -0.1313 -0.0073
 1126loPI   C5A17343   3.219  15.962   8.778  0.0066 -0.1272 -0.3545
 1126loPI   C6A17344   3.034  16.096   9.124  0.1735  0.1425 -0.0152
 1126loPI   C1B17345   3.498  15.940   7.136 -0.2006 -0.1749 -0.0814
 1126loPI   C2B17346   3.519  16.000   7.611  0.0709  0.0471 -0.0464
 1126loPI   C3B17347   3.632  16.107   7.987 -0.0455 -0.1605  0.0882
 1126loPI   C4B17348   3.565  15.964   8.407  0.4540 -0.0735 -0.0874
 1127loPI    C117349   5.656   8.543   5.701  0.0408 -0.1010  0.0277
 1127loPI    C217350   6.024   8.640   5.576 -0.0152  0.0415 -0.0276
 1127loPI    C317351   5.703   8.806   5.403 -0.1106 -0.1882 -0.0743
 1127loPI   PO417352   5.726   8.561   5.993  0.0593 -0.1080  0.0725
 1127loPI   GL117353   5.626   8.400   6.412  0.0600 -0.0805  0.0598
 1127loPI   GL217354   5.934   8.503   6.477 -0.2963 -0.0345 -0.0237
 1127loPI   C1A17355   5.549   8.386   6.914 -0.0998 -0.0996  0.0170
 1127loPI   C2A17356   5.628   8.375   7.361  0.0309 -0.0979  0.1052
 1127loPI   C3A17357   5.467   8.348   7.766  0.2595 -0.1232 -0.0136
 1127loPI   C4A17358   5.601   8.356   8.144  0.2164  0.0431  0.0852
 1127loPI   C5A17359   5.775   8.334   8.475  0.1512 -0.3055 -0.0802
 1127loPI   C6A17360   5.941   8.061   8.770  0.1008 -0.1068 -0.3978
 1127loPI   C1B17361   6.067   8.683   6.847  0.0321  0.0725 -0.0437
 1127loPI   C2B17362   6.044   8.623   7.338 -0.1372 -0.3119  0.0024
 1127loPI   C3B17363   5.972   8.612   7.724  0.1704 -0.0741 -0.0973
 1127loPI   C4B17364   6.010   8.692   8.163 -0.3197 -0.1367  0.0541
 1128loPI    C117365   0.161   4.657   5.669  0.1748 -0.0006 -0.1353
 1128loPI    C217366   0.157   4.487   5.307 -0.1473  0.1047 -0.1846
 1128loPI    C317367   0.178   4.885   5.340  0.1091  0.0843 -0.0802
 1128loPI   PO417368   0.049   4.611   5.758  0.1821 -0.0437 -0.0276
 1128loPI   GL117369   0.026   4.609   6.185 -0.1446 -0.2052 -0.1671
 1128loPI   GL217370   0.291   4.419   6.302  0.0814  0.1828 -0.0387
 1128loPI   C1A17371  -0.156   4.801   6.537 -0.0798  0.0608 -0.3804
 1128loPI   C2A17372  -0.129   4.746   6.991  0.0842 -0.0156  0.0173
 1128loPI   C3A17373  -0.148   4.727   7.382  0.1844 -0.3150  0.4115
 1128loPI   C4A17374  -0.171   4.776   7.811 -0.0711 -0.0160  0.0892
 1128loPI   C5A17375  -0.056   4.777   8.270 -0.4405  0.2253  0.1147
 1128loPI   C6A17376  -0.148   4.660   8.709 -0.0517 -0.1104  0.1568
 1128loPI   C1B17377   0.273   4.490   6.703  0.1479  0.1960 -0.1215
 1128loPI   C2B17378   0.283   4.479   7.154 -0.0444  0.1402  0.0322
 1128loPI   C3B17379   0.334   4.557   7.580 -0.0494 -0.1924  0.1593
 1128loPI   C4B17380   0.283   4.536   8.004  0.0535  0.1985  0.2739
 1129loPI    C117381   6.261   2.426   6.056  0.0050 -0.2802 -0.1400
 1129loPI    C217382   6.052   2.717   6.234  0.2906 -0.1241 -0.0528
 1129loPI    C317383   6.058   2.690   5.835  0.1170 -0.1219 -0.0562
 1129loPI   PO417384   6.233   2.210   6.281 -0.4254 -0.0587 -0.1612
 1129loPI   GL117385   6.097   2.100   6.699 -0.0843  0.2765  0.1058
 1129loPI   GL217386   6.040   1.927   6.775  0.2714 -0.1721 -0.1614
 1129loPI   C1A17387   6.110   2.415   6.955 -0.0125 -0.1031 -0.1733
 1129loPI   C2A17388   6.183   2.463   7.399  0.1438 -0.0559  0.0247
 1129loPI   C3A17389   6.153   2.361   7.854 -0.0174  0.0245 -0.0038
 1129loPI   C4A17390   6.156   2.290   8.292 -0.1986 -0.1433 -0.0098
 1129loPI   C5A17391   6.276   2.337   8.676  0.0841 -0.2888  0.0495
 1129loPI   C6A17392   6.586   2.331   8.988  0.1730  0.2442  0.1568
 1129loPI   C1B17393   6.126   1.946   7.214 -0.2026  0.1536  0.1909
 1129loPI   C2B17394   6.100   1.886   7.685 -0.0682 -0.1921  0.0670
 1129loPI   C3B17395   6.098   1.833   8.094 -0.0737 -0.2984 -0.0968
 1129loPI   C4B17396   6.095   1.859   8.515  0.1530  0.1767 -0.0356
 1130loPI    C117397   4.505  12.312   5.702  0.1249 -0.0551  0.0889
 1130loPI    C217398   4.638  12.115   5.381  0.0366  0.0895 -0.0378
 1130loPI    C317399   4.539  12.501   5.351 -0.3388  0.0054  0.0709
 1130loPI   PO417400   4.668  12.274   5.927  0.1217 -0.0800  0.3027
 1130loPI   GL117401   4.719  12.251   6.391  0.2100 -0.1752 -0.2155
 1130loPI   GL217402   4.373  12.321   6.541  0.1381 -0.0402  0.2163
 1130loPI   C1A17403   4.841  12.226   6.812 -0.0376  0.3466 -0.1789
 1130loPI   C2A17404   4.921  12.256   7.258  0.2699 -0.2394  0.0535
 1130loPI   C3A17405   4.834  12.280   7.622 -0.0222  0.3701 -0.1642
 1130loPI   C4A17406   4.908  12.152   8.067  0.0593 -0.2299  0.0834
 1130loPI   C5A17407   4.886  12.210   8.491 -0.2210 -0.0485  0.0875
 1130loPI   C6A17408   4.880  12.146   8.927  0.3027 -0.0410 -0.2701
 1130loPI   C1B17409   4.389  12.439   6.971 -0.1636 -0.1552  0.0055
 1130loPI   C2B17410   4.414  12.444   7.420  0.2941  0.0433  0.1496
 1130loPI   C3B17411   4.436  12.467   7.880  0.1447 -0.1192 -0.1198
 1130loPI   C4B17412   4.501  12.553   8.287  0.2732 -0.0765 -0.2429
 1131loPI    C117413   5.766   5.534   6.109  0.3296 -0.2642  0.2470
 1131loPI    C217414   6.089   5.541   5.872  0.0323 -0.1607 -0.1666
 1131loPI    C317415   5.816   5.252   5.830 -0.0702 -0.0879 -0.0121
 1131loPI   PO417416   5.777   5.514   6.311  0.0369  0.0340  0.4464
 1131loPI   GL117417   5.935   5.501   6.681  0.0144  0.2249  0.0858
 1131loPI   GL217418   5.738   5.271   6.763  0.2644 -0.0534  0.0191
 1131loPI   C1A17419   6.024   5.492   7.101  0.0756  0.2309  0.1093
 1131loPI   C2A17420   5.993   5.436   7.541 -0.3228  0.1159  0.1746
 1131loPI   C3A17421   6.125   5.516   7.988  0.0139 -0.1541 -0.2443
 1131loPI   C4A17422   6.125   5.593   8.358  0.0994 -0.1295  0.0764
 1131loPI   C5A17423   5.896   5.804   8.710  0.0268 -0.1638  0.2045
 1131loPI   C6A17424   5.475   5.898   9.007 -0.1353  0.5015  0.1817
 1131loPI   C1B17425   5.631   5.216   7.235  0.2144  0.2129  0.0466
 1131loPI   C2B17426   5.511   5.259   7.622  0.1277  0.1691  0.1170
 1131loPI   C3B17427   5.608   5.296   8.067 -0.0640 -0.0006  0.0024
 1131loPI   C4B17428   5.551   5.410   8.539 -0.0773 -0.1996 -0.1746
 1132loPI    C117429  10.958   5.522   5.940  0.0984 -0.1200  0.0411
 1132loPI    C217430  10.821   5.835   5.732  0.0747 -0.0894  0.1025
 1132loPI    C317431  10.640   5.480   5.701  0.0100 -0.0607  0.1468
 1132loPI   PO417432  10.995   5.643   6.228 -0.0184  0.0196 -0.2752
 1132loPI   GL117433  10.825   5.918   6.561  0.3613  0.1622  0.1079
 1132loPI   GL217434  10.572   5.622   6.618  0.0458  0.3592  0.1758
 1132loPI   C1A17435  10.965   5.972   6.866  0.0495 -0.0177  0.0897
 1132loPI   C2A17436  10.961   5.938   7.296 -0.0533 -0.0445  0.1101
 1132loPI   C3A17437  10.998   5.979   7.726 -0.0104 -0.0163  0.0071
 1132loPI   C4A17438  10.946   5.973   8.155  0.1176  0.0994 -0.1804
 1132loPI   C5A17439  11.150   6.135   8.503  0.0583 -0.1710  0.3486
 1132loPI   C6A17440  11.199   6.585   8.733 -0.0612 -0.1245 -0.0818
 1132loPI   C1B17441  10.500   5.642   7.139  0.0701  0.2616 -0.0336
 1132loPI   C2B17442  10.567   5.640   7.659  0.2706  0.0325  0.0262
 1132loPI   C3B17443  10.530   5.704   8.126 -0.0093 -0.0004  0.2503
 1132loPI   C4B17444  10.628   5.581   8.544  0.0597 -0.1037 -0.2054
 1133loPI    C117445  15.412  13.805   5.675 -0.1706 -0.0370  0.0631
 1133loPI    C217446  15.570  14.144   5.533  0.1565 -0.0720  0.3305
 1133loPI    C317447  15.644  13.797   5.349  0.0174 -0.0314  0.1953
 1133loPI   PO417448  15.215  13.903   5.866 -0.1443  0.0885 -0.2229
 1133loPI   GL117449  15.272  13.852   6.357 -0.2536 -0.2912  0.2189
 1133loPI   GL217450  15.232  14.167   6.403 -0.0107 -0.1269  0.0575
 1133loPI   C1A17451  15.545  13.858   6.661  0.0923 -0.1646 -0.2271
 1133loPI   C2A17452  15.604  13.804   7.093 -0.1322 -0.1609 -0.0449
 1133loPI   C3A17453  15.558  13.915   7.552  0.0872 -0.2109  0.0364
 1133loPI   C4A17454  15.653  13.843   7.948 -0.1122 -0.1282 -0.0607
 1133loPI   C5A17455  15.541  13.870   8.437 -0.0607  0.2174  0.0588
 1133loPI   C6A17456  15.239  13.785   8.827 -0.1712 -0.1924  0.1569
 1133loPI   C1B17457  15.054  14.063   6.802 -0.0843  0.0019  0.3345
 1133loPI   C2B17458  15.120  14.091   7.240  0.0806  0.0203 -0.2847
 1133loPI   C3B17459  15.112  14.088   7.700  0.1423  0.0043 -0.0019
 1133loPI   C4B17460  15.102  14.012   8.077 -0.0513  0.1036  0.1171
 1134loPI    C117461  16.736  14.587   5.568  0.3917 -0.0449 -0.0452
 1134loPI    C217462  16.637  14.244   5.388 -0.0504  0.1432 -0.1742
 1134loPI    C317463  16.796  14.543   5.175  0.1170  0.1040 -0.1061
 1134loPI   PO417464  16.877  14.466   5.800 -0.0552  0.1446  0.3014
 1134loPI   GL117465  16.883  14.523   6.179 -0.2245  0.1279 -0.3458
 1134loPI   GL217466  16.541  14.733   6.151 -0.1286 -0.0719  0.0567
 1134loPI   C1A17467  16.892  14.565   6.555  0.1379 -0.0838 -0.2590
 1134loPI   C2A17468  16.845  14.659   7.035  0.0272  0.0503 -0.6367
 1134loPI   C3A17469  16.776  14.637   7.494 -0.0636  0.1566  0.4141
 1134loPI   C4A17470  16.823  14.702   7.848  0.0882 -0.3065  0.0832
 1134loPI   C5A17471  16.732  14.741   8.182 -0.0116 -0.0426  0.0786
 1134loPI   C6A17472  16.408  14.948   8.342 -0.0617 -0.1040 -0.0446
 1134loPI   C1B17473  16.396  14.843   6.555 -0.2584 -0.0251  0.2530
 1134loPI   C2B17474  16.411  14.887   6.967 -0.2326 -0.0692  0.1610
 1134loPI   C3B17475  16.397  15.007   7.421  0.3117 -0.3305  0.0359
 1134loPI   C4B17476  16.393  14.974   7.871 -0.1191 -0.1633 -0.0480
 1135loPI    C117477  13.265   2.648   5.934  0.1822  0.1068 -0.0475
 1135loPI    C217478  13.136   2.860   5.619 -0.0073 -0.0755 -0.0950
 1135loPI    C317479  13.286   2.492   5.566 -0.0401 -0.1072  0.0279
 1135loPI   PO417480  13.387   2.759   6.036 -0.2415  0.1733  0.1550
 1135loPI   GL117481  13.138   2.910   6.405 -0.1548  0.0928  0.2483
 1135loPI   GL217482  12.794   2.818   6.567 -0.3946  0.2069 -0.1166
 1135loPI   C1A17483  13.213   3.080   6.867  0.0090  0.0153 -0.2970
 1135loPI   C2A17484  13.145   3.065   7.292 -0.3818  0.1349  0.4379
 1135loPI   C3A17485  13.204   2.953   7.693 -0.0471 -0.3340 -0.1106
 1135loPI   C4A17486  13.199   3.007   8.025  0.3984  0.0077 -0.0123
 1135loPI   C5A17487  13.179   3.124   8.503  0.0535  0.0812  0.0792
 1135loPI   C6A17488  13.417   3.162   8.824  0.1182  0.0955 -0.0488
 1135loPI   C1B17489  12.789   2.681   7.013  0.1285 -0.0139 -0.0773
 1135loPI   C2B17490  12.820   2.703   7.579  0.1068  0.1467  0.0646
 1135loPI   C3B17491  12.815   2.690   8.042 -0.0560  0.1069  0.3005
 1135loPI   C4B17492  12.768   2.746   8.483  0.0571 -0.0951 -0.0763
 1136loPI    C117493   1.258   3.547   5.586 -0.1838  0.1629  0.1914
 1136loPI    C217494   1.330   3.448   5.205 -0.0403  0.1267  0.2272
 1136loPI    C317495   1.110   3.771   5.290 -0.0981  0.1176  0.1137
 1136loPI   PO417496   1.183   3.269   5.682  0.0427 -0.1480 -0.0824
 1136loPI   GL117497   1.297   3.090   6.113 -0.0205 -0.0769  0.1670
 1136loPI   GL217498   1.309   2.751   6.134 -0.0229 -0.0673 -0.0636
 1136loPI   C1A17499   1.276   2.981   6.552  0.1528 -0.2767  0.1041
 1136loPI   C2A17500   1.199   2.992   6.966 -0.2075 -0.0291  0.1232
 1136loPI   C3A17501   1.208   3.021   7.457 -0.1786 -0.2555  0.0134
 1136loPI   C4A17502   1.279   3.099   7.825  0.0578 -0.1424 -0.0755
 1136loPI   C5A17503   1.106   3.042   8.211 -0.0059  0.1799 -0.0834
 1136loPI   C6A17504   0.847   2.919   8.468  0.0031  0.1996 -0.1318
 1136loPI   C1B17505   1.208   2.525   6.599  0.0156 -0.0705  0.0685
 1136loPI   C2B17506   1.187   2.494   7.027 -0.1195  0.0415 -0.1135
 1136loPI   C3B17507   1.187   2.444   7.515 -0.0665 -0.0380 -0.2757
 1136loPI   C4B17508   1.199   2.554   7.912 -0.0615 -0.1446  0.0488
 1137loPI    C117509   7.300  16.548   5.875  0.0531  0.0216  0.0412
 1137loPI    C217510   7.210  16.826   5.601  0.0141 -0.1988 -0.1732
 1137loPI    C317511   6.966  16.514   5.657 -0.0639 -0.0703  0.2330
 1137loPI   PO417512   7.308  16.674   6.239  0.1010  0.0413 -0.0338
 1137loPI   GL117513   7.374  16.826   6.605  0.1263 -0.0596  0.0747
 1137loPI   GL217514   7.608  17.059   6.566  0.1305 -0.1109 -0.1833
 1137loPI   C1A17515   7.600  16.635   7.085  0.2529  0.0572 -0.0619
 1137loPI   C2A17516   7.554  16.915   7.341  0.0467  0.2296 -0.3382
 1137loPI   C3A17517   7.546  16.896   7.812 -0.1953 -0.0595  0.4185
 1137loPI   C4A17518   7.463  16.754   8.192 -0.0289 -0.1607  0.1313
 1137loPI   C5A17519   7.228  16.412   8.281 -0.1402 -0.1096  0.3679
 1137loPI   C6A17520   6.928  16.086   8.485 -0.1588 -0.2092 -0.0808
 1137loPI   C1B17521   7.842  17.137   6.893 -0.0670  0.3738  0.4525
 1137loPI   C2B17522   8.020  17.158   7.309  0.0312 -0.1083 -0.0114
 1137loPI   C3B17523   7.970  17.184   7.776  0.3704  0.3476  0.1004
 1137loPI   C4B17524   8.011  17.184   8.110  0.1381 -0.1641  0.3469
 1138loPI    C117525  10.630   7.715   6.014  0.0430 -0.1531 -0.0774
 1138loPI    C217526  10.234   7.741   5.960  0.0309 -0.0140  0.0704
 1138loPI    C317527  10.483   7.877   5.679 -0.0294  0.2735  0.1530
 1138loPI   PO417528  10.621   7.672   6.295  0.0855  0.2447  0.2992
 1138loPI   GL117529  10.489   7.835   6.636  0.1306  0.1954 -0.1931
 1138loPI   GL217530  10.218   7.851   6.526  0.0189 -0.2150  0.1559
 1138loPI   C1A17531  10.529   7.774   7.024 -0.0759  0.2171  0.2226
 1138loPI   C2A17532  10.513   7.781   7.447  0.3116 -0.1705  0.0816
 1138loPI   C3A17533  10.612   7.833   7.884  0.0629 -0.1071 -0.0820
 1138loPI   C4A17534  10.702   7.820   8.314 -0.0044 -0.3803 -0.1998
 1138loPI   C5A17535  10.823   8.117   8.624 -0.2594 -0.0825 -0.1562
 1138loPI   C6A17536  10.985   8.033   9.028  0.1312 -0.1478 -0.0156
 1138loPI   C1B17537  10.137   8.050   6.907  0.1494 -0.0910 -0.1374
 1138loPI   C2B17538  10.033   8.030   7.371 -0.0189  0.2460 -0.1663
 1138loPI   C3B17539  10.141   8.075   7.802 -0.5367  0.0269  0.0755
 1138loPI   C4B17540  10.215   8.071   8.240 -0.1834  0.0817  0.0087
 1139loPI    C117541  11.025   7.360   5.953 -0.1696  0.0452 -0.2385
 1139loPI    C217542  11.091   7.655   5.690 -0.0911  0.0447 -0.2194
 1139loPI    C317543  11.191   7.279   5.598  0.0303  0.0592 -0.1494
 1139loPI   PO417544  11.122   7.313   6.156 -0.2353  0.0497  0.0868
 1139loPI   GL117545  11.099   7.294   6.517  0.0758 -0.1813  0.0331
 1139loPI   GL217546  10.998   7.563   6.628 -0.0084 -0.2299 -0.0550
 1139loPI   C1A17547  11.430   7.268   6.866 -0.0741 -0.0330  0.0735
 1139loPI   C2A17548  11.422   7.298   7.292  0.0435  0.2434 -0.0032
 1139loPI   C3A17549  11.418   7.294   7.715  0.0283  0.0882  0.4848
 1139loPI   C4A17550  11.561   7.145   8.214  0.2498  0.0191 -0.0739
 1139loPI   C5A17551  11.441   7.103   8.602  0.0142  0.1660  0.0940
 1139loPI   C6A17552  11.290   7.255   8.987 -0.0911  0.4054 -0.0111
 1139loPI   C1B17553  10.971   7.450   7.041  0.1783 -0.1175 -0.1637
 1139loPI   C2B17554  10.970   7.560   7.465  0.2489 -0.0501  0.3385
 1139loPI   C3B17555  11.060   7.624   7.894 -0.1666 -0.1376  0.1374
 1139loPI   C4B17556  11.124   7.462   8.312 -0.0259 -0.0588  0.1934
 1140loPI    C117557  15.525   3.216   5.762 -0.0022 -0.0836  0.0571
 1140loPI    C217558  15.608   3.156   5.375 -0.3085 -0.0212 -0.0214
 1140loPI    C317559  15.246   3.286   5.484 -0.1670  0.1370  0.2736
 1140loPI   PO417560  15.535   3.066   5.928 -0.0330 -0.1221  0.1961
 1140loPI   GL117561  15.619   3.161   6.346  0.0777  0.0124 -0.0236
 1140loPI   GL217562  15.871   3.411   6.438  0.0551  0.0914 -0.1950
 1140loPI   C1A17563  15.443   3.214   6.685  0.0344  0.1452 -0.1518
 1140loPI   C2A17564  15.373   3.243   7.024 -0.0941 -0.0460  0.0422
 1140loPI   C3A17565  15.521   3.294   7.390 -0.0622 -0.1867  0.0982
 1140loPI   C4A17566  15.459   3.285   7.818  0.5120 -0.1015  0.0547
 1140loPI   C5A17567  15.448   3.411   8.262 -0.0641 -0.0776  0.3209
 1140loPI   C6A17568  15.814   3.504   8.575  0.2527 -0.0352  0.2675
 1140loPI   C1B17569  15.834   3.496   6.800 -0.1259  0.0837 -0.1068
 1140loPI   C2B17570  15.906   3.488   7.148  0.3319 -0.0304 -0.0777
 1140loPI   C3B17571  15.958   3.498   7.562 -0.0717 -0.0724 -0.1054
 1140loPI   C4B17572  15.923   3.507   8.051  0.1108 -0.2179  0.1128
 1141loPI    C117573   7.275   5.173   6.031 -0.0727 -0.1083  0.1047
 1141loPI    C217574   7.637   5.014   5.971  0.0115  0.1758 -0.1697
 1141loPI    C317575   7.336   4.922   5.725 -0.0111  0.2201 -0.1587
 1141loPI   PO417576   7.265   5.130   6.276  0.2890  0.0442  0.2307
 1141loPI   GL117577   7.243   5.329   6.709 -0.1642  0.0751  0.3512
 1141loPI   GL217578   6.969   5.453   6.772  0.0071  0.2354  0.0063
 1141loPI   C1A17579   7.414   5.257   6.997 -0.3447  0.1478  0.0597
 1141loPI   C2A17580   7.343   5.315   7.470  0.1984  0.0704 -0.1409
 1141loPI   C3A17581   7.449   5.273   7.923 -0.1158  0.2383 -0.2256
 1141loPI   C4A17582   7.459   5.392   8.430  0.0543  0.1213 -0.4384
 1141loPI   C5A17583   7.317   5.625   8.802 -0.1398 -0.3649  0.2283
 1141loPI   C6A17584   7.194   6.087   8.987 -0.0518 -0.2459 -0.3087
 1141loPI   C1B17585   6.948   5.506   7.283  0.0535  0.1049  0.0228
 1141loPI   C2B17586   6.975   5.586   7.777 -0.3784 -0.0547  0.0137
 1141loPI   C3B17587   7.047   5.651   8.229 -0.3911  0.3437  0.1703
 1141loPI   C4B17588   6.880   5.509   8.633  0.2689 -0.2046  0.0079
 1142loPI    C117589   7.435  12.838   5.815  0.0182 -0.1722  0.1712
 1142loPI    C217590   7.735  12.677   5.605  0.0513 -0.2019  0.2408
 1142loPI    C317591   7.651  13.066   5.568 -0.1311 -0.2659 -0.0485
 1142loPI   PO417592   7.402  12.700   6.060  0.0484 -0.4738 -0.0028
 1142loPI   GL117593   7.221  12.647   6.455 -0.0258  0.0294 -0.0470
 1142loPI   GL217594   7.116  12.952   6.596  0.1139  0.2825  0.0175
 1142loPI   C1A17595   7.429  12.744   6.865  0.1774  0.1622 -0.1657
 1142loPI   C2A17596   7.525  12.860   7.195 -0.0005  0.3292 -0.3391
 1142loPI   C3A17597   7.561  12.693   7.607 -0.0792  0.0249  0.1836
 1142loPI   C4A17598   7.468  12.793   8.024 -0.1265  0.0381 -0.0765
 1142loPI   C5A17599   7.223  12.642   8.391 -0.0562  0.0508 -0.1219
 1142loPI   C6A17600   7.010  12.871   8.664 -0.0754 -0.1167  0.2403
 1142loPI   C1B17601   7.087  13.045   7.048  0.0740  0.1138  0.3308
 1142loPI   C2B17602   7.093  13.065   7.411 -0.3263 -0.1910  0.0560
 1142loPI   C3B17603   7.115  12.975   7.741  0.0127  0.0979  0.0727
 1142loPI   C4B17604   7.071  13.023   8.128 -0.0220  0.0454 -0.0715
 1143loPI    C117605   8.514  11.716   5.967 -0.1395 -0.0113  0.1375
 1143loPI    C217606   8.461  12.034   5.729 -0.1286 -0.0864  0.0341
 1143loPI    C317607   8.688  11.728   5.606  0.1247  0.0051  0.2625
 1143loPI   PO417608   8.597  11.797   6.195 -0.2478 -0.1222  0.2277
 1143loPI   GL117609   8.719  12.100   6.507  0.2400 -0.0359 -0.1396
 1143loPI   GL217610   9.017  11.903   6.420  0.2589  0.3691  0.0242
 1143loPI   C1A17611   8.773  11.990   6.941 -0.3112 -0.0373  0.1706
 1143loPI   C2A17612   8.876  11.897   7.360  0.3406 -0.0696 -0.1164
 1143loPI   C3A17613   8.819  11.969   7.744  0.0989  0.0928 -0.1036
 1143loPI   C4A17614   8.722  11.936   8.154 -0.0221  0.2519  0.0317
 1143loPI   C5A17615   8.466  11.828   8.581 -0.0672  0.1451  0.1456
 1143loPI   C6A17616   8.367  12.118   8.973  0.0486  0.1077 -0.1152
 1143loPI   C1B17617   9.255  11.725   6.781  0.1490 -0.1260 -0.0794
 1143loPI   C2B17618   9.281  11.651   7.238 -0.2949 -0.2329  0.0553
 1143loPI   C3B17619   9.306  11.667   7.653 -0.0553 -0.0147 -0.2364
 1143loPI   C4B17620   9.124  11.610   7.959  0.1055  0.1279  0.2977
 1144loPI    C117621   0.305   2.215   5.555  0.2923  0.0635  0.2602
 1144loPI    C217622   0.428   2.575   5.430 -0.0389  0.0892 -0.0065
 1144loPI    C317623   0.369   2.281   5.166 -0.0913 -0.0624  0.1714
 1144loPI   PO417624   0.493   2.172   5.834  0.0356  0.1632  0.1865
 1144loPI   GL117625   0.600   2.040   6.286  0.2501  0.2014  0.0895
 1144loPI   GL217626   0.810   2.197   6.416 -0.0764  0.3167  0.0220
 1144loPI   C1A17627   0.322   1.978   6.712 -0.1089 -0.1280  0.3944
 1144loPI   C2A17628   0.360   1.934   7.195  0.0425  0.2096  0.3338
 1144loPI   C3A17629   0.278   1.980   7.579 -0.0960 -0.0069 -0.1544
 1144loPI   C4A17630   0.295   1.956   8.033 -0.2125  0.0052 -0.2170
 1144loPI   C5A17631   0.399   1.819   8.502 -0.1485  0.3062  0.0680
 1144loPI   C6A17632   0.383   1.768   8.892 -0.1898  0.0230  0.3198
 1144loPI   C1B17633   0.737   2.179   6.868 -0.1093 -0.1485 -0.0989
 1144loPI   C2B17634   0.746   2.239   7.334  0.1225 -0.2210  0.0684
 1144loPI   C3B17635   0.822   2.191   7.744  0.0311 -0.1889  0.0922
 1144loPI   C4B17636   0.747   2.192   8.173  0.3625  0.0906 -0.1971
 1145loPI    C117637   3.885  15.657   5.886 -0.2284  0.0996  0.1615
 1145loPI    C217638   4.155  15.816   6.136 -0.0590  0.2240 -0.0963
 1145loPI    C317639   4.219  15.822   5.741 -0.2192 -0.1693 -0.1331
 1145loPI   PO417640   3.842  15.490   5.900  0.0238  0.0396 -0.0961
 1145loPI   GL117641   3.826  15.399   6.334  0.0010  0.2462 -0.1571
 1145loPI   GL217642   3.654  15.602   6.428  0.0596 -0.3192  0.0067
 1145loPI   C1A17643   4.014  15.275   6.761  0.0771  0.0760  0.2417
 1145loPI   C2A17644   3.985  15.243   7.240  0.3382 -0.1005  0.2798
 1145loPI   C3A17645   3.969  15.275   7.667 -0.1463  0.2161  0.0920
 1145loPI   C4A17646   4.061  15.270   8.043  0.2553  0.3144 -0.2375
 1145loPI   C5A17647   4.029  15.374   8.365 -0.0874  0.2925 -0.1678
 1145loPI   C6A17648   4.174  15.247   8.798 -0.1135 -0.2034  0.0569
 1145loPI   C1B17649   3.519  15.490   6.741  0.1583  0.1453 -0.1118
 1145loPI   C2B17650   3.549  15.476   7.231  0.1354  0.2151  0.0946
 1145loPI   C3B17651   3.574  15.529   7.623 -0.0321 -0.1974 -0.0285
 1145loPI   C4B17652   3.595  15.562   8.120 -0.1331 -0.0518  0.0664
 1146loPI    C117653   8.668   4.441   6.014 -0.3032  0.0741 -0.0339
 1146loPI    C217654   8.663   4.786   5.812 -0.0720 -0.0228 -0.2099
 1146loPI    C317655   8.492   4.461   5.655 -0.2066 -0.0122 -0.0867
 1146loPI   PO417656   8.869   4.551   6.208  0.0977  0.2652 -0.1043
 1146loPI   GL117657   8.916   4.453   6.701  0.1028 -0.2749 -0.3010
 1146loPI   GL217658   9.204   4.338   6.514 -0.2276 -0.3130  0.2875
 1146loPI   C1A17659   8.841   4.448   7.075 -0.0751  0.2135  0.2089
 1146loPI   C2A17660   8.750   4.422   7.476  0.0090  0.1818 -0.0193
 1146loPI   C3A17661   8.719   4.531   7.872 -0.0211 -0.0238  0.0849
 1146loPI   C4A17662   8.863   4.573   8.308  0.0909 -0.0455  0.1859
 1146loPI   C5A17663   9.004   4.473   8.641  0.2766 -0.0103 -0.2704
 1146loPI   C6A17664   9.104   3.995   8.656 -0.1945 -0.0135 -0.1631
 1146loPI   C1B17665   9.257   4.139   6.925  0.1050 -0.0032 -0.0388
 1146loPI   C2B17666   9.172   4.011   7.419 -0.0426 -0.0297 -0.2370
 1146loPI   C3B17667   9.209   3.830   7.892  0.1852  0.1557  0.1155
 1146loPI   C4B17668   9.270   3.778   8.287 -0.0698  0.2149 -0.0347
 1147loPI    C117669  16.084   3.973   5.794 -0.2442  0.1561  0.0858
 1147loPI    C217670  16.215   4.310   5.625 -0.1382  0.0973  0.0494
 1147loPI    C317671  16.218   3.968   5.417 -0.2828  0.0812  0.0728
 1147loPI   PO417672  16.108   4.028   6.045 -0.1122  0.1654 -0.0003
 1147loPI   GL117673  16.321   3.885   6.360 -0.1157  0.1685 -0.3263
 1147loPI   GL217674  16.329   4.232   6.580  0.0834 -0.1769 -0.0468
 1147loPI   C1A17675  16.335   3.747   6.762 -0.0649 -0.1112 -0.1846
 1147loPI   C2A17676  16.336   3.737   7.211  0.0449 -0.0702  0.1693
 1147loPI   C3A17677  16.434   3.743   7.669  0.1985  0.2315 -0.0947
 1147loPI   C4A17678  16.366   3.817   8.053  0.0621  0.0930  0.1891
 1147loPI   C5A17679  16.674   3.968   8.347 -0.0155  0.1806  0.2308
 1147loPI   C6A17680  17.156   3.780   8.325  0.1770  0.1233  0.1425
 1147loPI   C1B17681  16.366   4.247   6.987 -0.1888 -0.2626  0.0456
 1147loPI   C2B17682  16.383   4.182   7.441  0.0186 -0.0772  0.0153
 1147loPI   C3B17683  16.340   4.285   7.898 -0.0376 -0.2463 -0.0317
 1147loPI   C4B17684  16.291   4.288   8.318 -0.2479  0.0347  0.0352
 1148loPI    C117685  13.262   0.335   5.782  0.1575  0.0866  0.1293
 1148loPI    C217686  13.346   0.062   5.502  0.0814  0.1980 -0.0041
 1148loPI    C317687  13.157   0.399   5.401 -0.1133  0.1565  0.2139
 1148loPI   PO417688  13.185   0.213   5.971 -0.0640  0.0537 -0.3052
 1148loPI   GL117689  13.310   0.179   6.315 -0.1349  0.3439 -0.2478
 1148loPI   GL217690  13.489   0.447   6.411  0.3543 -0.1857 -0.0851
 1148loPI   C1A17691  13.202   0.351   6.817 -0.1666 -0.2489  0.0452
 1148loPI   C2A17692  13.186   0.396   7.313  0.1760  0.1293 -0.1691
 1148loPI   C3A17693  13.277   0.347   7.785 -0.1122 -0.1421 -0.0236
 1148loPI   C4A17694  13.206   0.451   8.222  0.0643 -0.0687 -0.2316
 1148loPI   C5A17695  13.246   0.135   8.574 -0.0338 -0.1654  0.0049
 1148loPI   C6A17696  13.584  -0.065   8.762  0.1003  0.1530 -0.1084
 1148loPI   C1B17697  13.638   0.621   6.766 -0.2277 -0.1958  0.1418
 1148loPI   C2B17698  13.588   0.614   7.189 -0.3739 -0.0790 -0.0504
 1148loPI   C3B17699  13.670   0.488   7.558 -0.2525  0.0394 -0.1831
 1148loPI   C4B17700  13.645   0.658   7.972  0.1240 -0.0824  0.0754
 1149loPI    C117701  10.912   1.639   5.740  0.0001  0.2963  0.2100
 1149loPI    C217702  10.568   1.766   5.581 -0.1362 -0.3510 -0.0437
 1149loPI    C317703  10.888   1.712   5.347  0.0689  0.0036  0.1483
 1149loPI   PO417704  10.886   1.788   6.016 -0.3064 -0.1061  0.0881
 1149loPI   GL117705  10.820   1.984   6.288  0.2670  0.2908 -0.3983
 1149loPI   GL217706  10.974   2.256   6.475 -0.0454 -0.0681  0.2627
 1149loPI   C1A17707  10.516   2.028   6.704 -0.0830 -0.2980  0.0080
 1149loPI   C2A17708  10.498   1.934   7.090 -0.0327 -0.1253  0.0161
 1149loPI   C3A17709  10.553   1.969   7.474  0.0300  0.0833  0.4401
 1149loPI   C4A17710  10.607   1.985   7.906 -0.0870 -0.0822 -0.1691
 1149loPI   C5A17711  10.687   1.993   8.294  0.0395  0.0609  0.0305
 1149loPI   C6A17712  10.648   1.910   8.749 -0.1120  0.1410 -0.2359
 1149loPI   C1B17713  10.980   2.295   6.877 -0.1450 -0.0726  0.1257
 1149loPI   C2B17714  11.053   2.296   7.253  0.1842 -0.1774  0.3673
 1149loPI   C3B17715  11.110   2.247   7.667  0.2588 -0.0498  0.0423
 1149loPI   C4B17716  11.074   2.303   8.097  0.0198  0.1556  0.4142
 1150loPI    C117717  11.463   4.815   6.047 -0.0254 -0.2156  0.1538
 1150loPI    C217718  11.640   4.519   5.844 -0.0969 -0.1846  0.0452
 1150loPI    C317719  11.301   4.682   5.706  0.0019  0.0242  0.0450
 1150loPI   PO417720  11.629   4.859   6.274 -0.0055 -0.1174  0.3186
 1150loPI   GL117721  11.748   4.698   6.611 -0.3168  0.0747  0.1546
 1150loPI   GL217722  11.425   4.578   6.732  0.1005  0.0497 -0.0739
 1150loPI   C1A17723  11.814   4.810   6.995 -0.2486 -0.1104 -0.0005
 1150loPI   C2A17724  11.837   4.930   7.351  0.0264  0.0680 -0.1741
 1150loPI   C3A17725  11.891   4.853   7.760 -0.0810 -0.2007 -0.0836
 1150loPI   C4A17726  11.854   4.869   8.205  0.3461 -0.1450 -0.0362
 1150loPI   C5A17727  12.021   5.232   8.442 -0.0869  0.1626  0.0593
 1150loPI   C6A17728  12.543   5.320   8.532  0.0892 -0.2293 -0.2493
 1150loPI   C1B17729  11.423   4.526   7.189  0.0754  0.1978 -0.0662
 1150loPI   C2B17730  11.430   4.664   7.612  0.1761  0.1137 -0.0424
 1150loPI   C3B17731  11.363   4.576   8.099 -0.2977  0.0046  0.3057
 1150loPI   C4B17732  11.419   4.797   8.432  0.2516  0.2339  0.2582
 1151loPI    C117733   7.880   9.062   5.921  0.0650  0.0734  0.1956
 1151loPI    C217734   8.057   9.330   5.682  0.2076 -0.0158  0.1999
 1151loPI    C317735   7.959   8.969   5.540 -0.1145  0.0860  0.1544
 1151loPI   PO417736   7.977   9.018   6.126  0.1710  0.5285  0.2545
 1151loPI   GL117737   7.765   8.892   6.501 -0.0924 -0.1772  0.0511
 1151loPI   GL217738   7.725   9.177   6.640 -0.0788  0.1216  0.1104
 1151loPI   C1A17739   7.798   8.777   6.951 -0.0439  0.0523 -0.0232
 1151loPI   C2A17740   7.877   8.678   7.412 -0.1530  0.0487  0.0015
 1151loPI   C3A17741   7.827   8.663   7.833 -0.0887  0.0009  0.1885
 1151loPI   C4A17742   7.826   8.769   8.245  0.0760  0.0854 -0.2504
 1151loPI   C5A17743   7.991   8.952   8.578  0.0155  0.1148 -0.1569
 1151loPI   C6A17744   8.328   9.180   8.541  0.0318 -0.3798 -0.3987
 1151loPI   C1B17745   7.831   9.329   6.997  0.2479 -0.0143 -0.0498
 1151loPI   C2B17746   7.851   9.198   7.399 -0.0984 -0.1592  0.1997
 1151loPI   C3B17747   7.822   9.192   7.872 -0.2337  0.0370 -0.1322
 1151loPI   C4B17748   7.853   9.334   8.307 -0.1614 -0.0536  0.0283
 1152loPI    C117749  11.297   6.475   5.875 -0.1988 -0.3402  0.1437
 1152loPI    C217750  11.512   6.200   5.680  0.0197 -0.1178  0.0669
 1152loPI    C317751  11.129   6.259   5.583  0.0190 -0.2776 -0.0306
 1152loPI   PO417752  11.421   6.435   6.085 -0.0411 -0.1137  0.0445
 1152loPI   GL117753  11.514   6.471   6.459  0.1876  0.2989 -0.1785
 1152loPI   GL217754  11.374   6.178   6.538 -0.0080 -0.0969 -0.2825
 1152loPI   C1A17755  11.717   6.418   6.788 -0.1385 -0.0545  0.1422
 1152loPI   C2A17756  11.866   6.473   7.180 -0.2770 -0.0149 -0.1307
 1152loPI   C3A17757  11.838   6.441   7.603  0.0478  0.0014 -0.2300
 1152loPI   C4A17758  11.946   6.471   8.051  0.1541  0.0793 -0.2106
 1152loPI   C5A17759  12.057   6.434   8.466  0.2109 -0.2520 -0.1638
 1152loPI   C6A17760  12.177   6.123   8.666 -0.4153  0.0822 -0.0308
 1152loPI   C1B17761  11.398   6.178   7.059  0.0762  0.0533 -0.0810
 1152loPI   C2B17762  11.391   6.183   7.560 -0.1179  0.0974  0.0900
 1152loPI   C3B17763  11.353   6.240   8.066 -0.0111 -0.1082 -0.1104
 1152loPI   C4B17764  11.603   6.554   8.399  0.0310 -0.0154 -0.3241
 1153loPI    C117765  17.151   9.449   6.156 -0.1402 -0.0118 -0.0808
 1153loPI    C217766  17.109   9.217   5.833  0.2367  0.0483 -0.1776
 1153loPI    C317767  17.121   9.615   5.794  0.3457  0.0535 -0.0981
 1153loPI   PO417768  17.225   9.346   6.309  0.3608  0.2075 -0.0932
 1153loPI   GL117769  17.335   9.175   6.746 -0.2824  0.0957 -0.1125
 1153loPI   GL217770  17.050   9.101   6.741 -0.0897 -0.0840 -0.2864
 1153loPI   C1A17771  17.341   9.191   7.201 -0.0987 -0.3125  0.0418
 1153loPI   C2A17772  17.328   9.260   7.678  0.1039  0.2518  0.4073
 1153loPI   C3A17773  17.310   9.229   8.121 -0.0718  0.1761 -0.0659
 1153loPI   C4A17774  17.480   9.298   8.472 -0.3716  0.0233  0.2829
 1153loPI   C5A17775  17.563   9.611   8.797 -0.1265  0.1081 -0.1198
 1153loPI   C6A17776  17.711   9.831   9.146  0.1685  0.0804  0.2869
 1153loPI   C1B17777  16.847   9.377   7.033  0.0979 -0.1198 -0.0456
 1153loPI   C2B17778  16.834   9.448   7.455 -0.1580  0.1450 -0.1762
 1153loPI   C3B17779  16.871   9.471   7.876 -0.0079 -0.0565  0.0238
 1153loPI   C4B17780  16.898   9.496   8.236 -0.1998  0.0463 -0.1675
 1154loPI    C117781   5.567  17.181   6.091  0.2492 -0.1028 -0.0837
 1154loPI    C217782   5.590  17.547   5.931 -0.2331 -0.0378 -0.0204
 1154loPI    C317783   5.731  17.231   5.730 -0.1236  0.1388 -0.2255
 1154loPI   PO417784   5.543  17.265   6.338  0.3094 -0.2007 -0.2465
 1154loPI   GL117785   5.565  17.137   6.674  0.1300  0.0186 -0.0085
 1154loPI   GL217786   5.674  17.454   6.811 -0.0991  0.0084  0.0591
 1154loPI   C1A17787   5.670  16.976   7.081  0.1695 -0.2628 -0.2848
 1154loPI   C2A17788   5.797  16.838   7.598  0.2589  0.0410 -0.0030
 1154loPI   C3A17789   5.695  16.894   8.007  0.1254  0.0237  0.1572
 1154loPI   C4A17790   5.629  17.011   8.367  0.0451 -0.2267 -0.1832
 1154loPI   C5A17791   5.693  17.093   8.787  0.0813  0.0418  0.0069
 1154loPI   C6A17792   5.562  17.131   9.170 -0.0771  0.2480 -0.0329
 1154loPI   C1B17793   5.839  17.442   7.271 -0.3596  0.0385  0.1073
 1154loPI   C2B17794   5.828  17.360   7.658 -0.0461 -0.3685  0.0517
 1154loPI   C3B17795   5.663  17.458   8.044  0.1108  0.1150 -0.0626
 1154loPI   C4B17796   5.713  17.487   8.500 -0.1632 -0.1256  0.0631
 1155loPI    C117797   8.829   0.388   5.754  0.1524 -0.0135 -0.0067
 1155loPI    C217798   8.920   0.021   5.624 -0.0187 -0.0638  0.0137
 1155loPI    C317799   8.584   0.199   5.501  0.0771  0.0974 -0.0172
 1155loPI   PO417800   8.853   0.403   6.037  0.0566  0.1284  0.0806
 1155loPI   GL117801   8.785   0.261   6.385 -0.0219  0.2028  0.0089
 1155loPI   GL217802   8.932  -0.056   6.439 -0.0492  0.0033  0.0030
 1155loPI   C1A17803   8.878   0.361   6.713  0.4847 -0.1472 -0.2533
 1155loPI   C2A17804   8.852   0.378   7.205  0.4006 -0.0504 -0.0171
 1155loPI   C3A17805   8.812   0.381   7.726 -0.2418 -0.0825  0.0632
 1155loPI   C4A17806   8.793   0.442   8.155 -0.0189  0.1479 -0.0083
 1155loPI   C5A17807   8.597   0.490   8.594  0.0062  0.0370  0.4550
 1155loPI   C6A17808   8.673   0.599   8.987  0.1912  0.0449  0.2577
 1155loPI   C1B17809   8.905  -0.152   6.952  0.1305 -0.0816  0.6150
 1155loPI   C2B17810   8.857  -0.151   7.339  0.1682  0.4108 -0.0804
 1155loPI   C3B17811   8.906  -0.124   7.763 -0.2830 -0.1485  0.0106
 1155loPI   C4B17812   8.812  -0.052   8.205  0.0689 -0.0604 -0.3952
 1156loPI    C117813  12.070  12.857   5.912 -0.0445 -0.0852 -0.0459
 1156loPI    C217814  12.290  12.818   5.580  0.0197 -0.1182  0.0004
 1156loPI    C317815  11.902  12.912   5.553  0.0620  0.0381 -0.0778
 1156loPI   PO417816  12.084  12.646   6.034  0.0616  0.1178 -0.2456
 1156loPI   GL117817  12.034  12.692   6.402  0.0407 -0.1108  0.3251
 1156loPI   GL217818  11.736  12.558   6.407 -0.1554 -0.0474  0.1147
 1156loPI   C1A17819  11.935  12.694   6.923 -0.0194  0.1863 -0.2941
 1156loPI   C2A17820  11.907  12.716   7.403  0.2875  0.1786  0.2682
 1156loPI   C3A17821  11.945  12.757   7.798 -0.1189 -0.1791  0.2308
 1156loPI   C4A17822  12.081  12.781   8.253  0.1483 -0.1582  0.0312
 1156loPI   C5A17823  12.357  12.918   8.516 -0.2552  0.3163  0.1707
 1156loPI   C6A17824  12.484  12.684   8.877  0.2570 -0.0218  0.0798
 1156loPI   C1B17825  11.527  12.433   6.711 -0.2664  0.3005  0.0946
 1156loPI   C2B17826  11.532  12.435   7.145 -0.1233 -0.0029 -0.0425
 1156loPI   C3B17827  11.469  12.474   7.629 -0.3163  0.2505  0.1188
 1156loPI   C4B17828  11.561  12.460   8.110  0.0456 -0.3145 -0.0767
 1157loPI    C117829   9.981  15.391   5.974  0.0257 -0.0376  0.0072
 1157loPI    C217830  10.235  15.285   5.684 -0.0271  0.0100 -0.0570
 1157loPI    C317831   9.892  15.468   5.592  0.0658  0.2438  0.0518
 1157loPI   PO417832  10.141  15.285   6.158 -0.1334  0.0286 -0.1573
 1157loPI   GL117833  10.291  15.314   6.556 -0.4142  0.2227  0.0628
 1157loPI   GL217834  10.626  15.065   6.544 -0.0293 -0.2512  0.0819
 1157loPI   C1A17835  10.144  15.279   7.017  0.2055  0.1491 -0.1190
 1157loPI   C2A17836  10.196  15.327   7.442  0.1115  0.1422  0.2015
 1157loPI   C3A17837  10.176  15.472   7.856 -0.4174 -0.0143  0.2689
 1157loPI   C4A17838  10.067  15.499   8.212 -0.0525  0.0148 -0.2046
 1157loPI   C5A17839   9.717  15.318   8.461  0.2061  0.2058 -0.1529
 1157loPI   C6A17840   9.343  15.079   8.559  0.1291  0.1092 -0.2450
 1157loPI   C1B17841  10.568  14.980   6.974  0.0631 -0.0829  0.2205
 1157loPI   C2B17842  10.618  15.093   7.479  0.1143 -0.2085  0.0761
 1157loPI   C3B17843  10.636  15.155   7.925  0.1587  0.0086  0.2196
 1157loPI   C4B17844  10.799  15.157   8.381 -0.0440 -0.0312  0.1617
 1158loPI    C117845   1.958   0.501   5.968 -0.0682 -0.1527 -0.1312
 1158loPI    C217846   1.839   0.818   5.755  0.2038 -0.0382 -0.1172
 1158loPI    C317847   2.027   0.515   5.574 -0.0977 -0.2165 -0.1387
 1158loPI   PO417848   1.997   0.688   6.255  0.1010 -0.1233  0.1534
 1158loPI   GL117849   1.757   0.576   6.507 -0.1705 -0.4818 -0.1275
 1158loPI   GL217850   1.826   0.230   6.714 -0.0334  0.0945  0.1318
 1158loPI   C1A17851   1.699   0.725   6.927  0.1113 -0.0241  0.0710
 1158loPI   C2A17852   1.655   0.734   7.382  0.2658  0.0292  0.1924
 1158loPI   C3A17853   1.639   0.735   7.810  0.1031 -0.3675 -0.0527
 1158loPI   C4A17854   1.608   0.734   8.184 -0.1481 -0.2041  0.1682
 1158loPI   C5A17855   1.553   1.060   8.440  0.0077  0.1274 -0.0027
 1158loPI   C6A17856   1.840   1.384   8.532 -0.1005 -0.0051  0.4152
 1158loPI   C1B17857   1.668   0.119   7.127  0.2440  0.1985  0.0076
 1158loPI   C2B17858   1.640   0.229   7.474 -0.0691  0.3527  0.2054
 1158loPI   C3B17859   1.639   0.256   7.915 -0.2820  0.2487 -0.2520
 1158loPI   C4B17860   1.897   0.176   8.347  0.2202 -0.0575 -0.0554
 1159loPI    C117861   1.355   6.846   5.784 -0.1383 -0.0703 -0.0138
 1159loPI    C217862   1.023   6.817   5.562 -0.1539 -0.1035  0.0139
 1159loPI    C317863   1.319   7.061   5.448 -0.0421 -0.3328 -0.1953
 1159loPI   PO417864   1.348   6.936   5.986 -0.1843  0.0945  0.0411
 1159loPI   GL117865   1.210   6.840   6.437  0.1843 -0.3276 -0.1076
 1159loPI   GL217866   1.427   7.027   6.488 -0.0623  0.2298 -0.0343
 1159loPI   C1A17867   1.254   6.614   6.764  0.0624  0.2158  0.1171
 1159loPI   C2A17868   1.110   6.627   7.207  0.0324 -0.1004 -0.2906
 1159loPI   C3A17869   1.054   6.651   7.683 -0.3004 -0.0424  0.2227
 1159loPI   C4A17870   1.158   6.714   8.168 -0.2287  0.1468 -0.2145
 1159loPI   C5A17871   1.021   6.709   8.556 -0.0133  0.1293  0.0661
 1159loPI   C6A17872   0.826   6.627   8.938 -0.3473 -0.2246 -0.3666
 1159loPI   C1B17873   1.550   6.910   6.922 -0.1377  0.3326  0.0280
 1159loPI   C2B17874   1.535   6.946   7.402 -0.0944  0.0734  0.1348
 1159loPI   C3B17875   1.480   6.935   7.851  0.0275  0.1207  0.0478
 1159loPI   C4B17876   1.622   7.095   8.240  0.0429 -0.0169 -0.0499
 1160loPI    C117877  13.241  16.364   5.726 -0.0026 -0.1131  0.0150
 1160loPI    C217878  12.900  16.156   5.710 -0.0935  0.0301  0.0634
 1160loPI    C317879  13.149  16.156   5.397 -0.1035 -0.1310  0.0542
 1160loPI   PO417880  13.377  16.272   5.920  0.0968  0.2920 -0.1248
 1160loPI   GL117881  13.380  16.077   6.324  0.1674 -0.0209  0.0805
 1160loPI   GL217882  13.655  16.011   6.321 -0.1988  0.1208 -0.1498
 1160loPI   C1A17883  13.288  16.112   6.693  0.0976 -0.1573  0.0275
 1160loPI   C2A17884  13.223  16.131   7.039  0.0868  0.1819  0.1274
 1160loPI   C3A17885  13.238  16.089   7.438 -0.1706 -0.2236 -0.0099
 1160loPI   C4A17886  13.150  16.090   7.933 -0.1756 -0.1323  0.0401
 1160loPI   C5A17887  13.049  16.124   8.389  0.0341  0.0255  0.2506
 1160loPI   C6A17888  13.121  16.389   8.694 -0.0164  0.0983  0.3722
 1160loPI   C1B17889  13.782  15.859   6.722 -0.0236  0.0700  0.0594
 1160loPI   C2B17890  13.676  15.860   7.120  0.1501  0.0316  0.0830
 1160loPI   C3B17891  13.696  15.822   7.548 -0.2441 -0.1522 -0.1483
 1160loPI   C4B17892  13.557  15.833   7.915 -0.0607 -0.1562 -0.1462
 1161loPI    C117893   6.350   6.792   5.879 -0.1812 -0.0126  0.0009
 1161loPI    C217894   6.042   6.982   5.710 -0.0983  0.2822  0.1726
 1161loPI    C317895   6.215   6.674   5.522 -0.2474  0.3629 -0.1024
 1161loPI   PO417896   6.252   6.746   6.105  0.0810 -0.0549 -0.1822
 1161loPI   GL117897   6.188   6.901   6.632  0.0897 -0.1375 -0.1585
 1161loPI   GL217898   5.866   6.965   6.629 -0.1944 -0.0320  0.1445
 1161loPI   C1A17899   6.445   6.790   6.955 -0.1861  0.1549  0.0202
 1161loPI   C2A17900   6.476   6.788   7.416  0.3654  0.0954  0.0066
 1161loPI   C3A17901   6.456   6.862   7.830  0.0024  0.1598 -0.0608
 1161loPI   C4A17902   6.428   6.838   8.275 -0.2491 -0.1343  0.1546
 1161loPI   C5A17903   6.409   6.917   8.640 -0.1781  0.0192 -0.2176
 1161loPI   C6A17904   6.326   6.691   9.005  0.2921  0.2305  0.0802
 1161loPI   C1B17905   5.941   7.080   7.047 -0.1403  0.1265 -0.0312
 1161loPI   C2B17906   5.923   7.106   7.497  0.3061 -0.0884 -0.0438
 1161loPI   C3B17907   6.062   7.126   7.951 -0.0968 -0.0876 -0.2747
 1161loPI   C4B17908   5.978   7.150   8.354 -0.2284 -0.1918 -0.0091
 1162loPI    C117909   7.580  14.602   6.046 -0.3022  0.1314  0.2109
 1162loPI    C217910   7.308  14.440   5.802  0.1056 -0.0771 -0.1175
 1162loPI    C317911   7.486  14.784   5.703 -0.0304  0.0559  0.0933
 1162loPI   PO417912   7.479  14.646   6.259 -0.0458  0.0588 -0.1433
 1162loPI   GL117913   7.467  14.612   6.689  0.0022 -0.0665  0.0971
 1162loPI   GL217914   7.496  14.290   6.737  0.1126  0.2850  0.2681
 1162loPI   C1A17915   7.340  14.781   7.109  0.0156 -0.0866 -0.1530
 1162loPI   C2A17916   7.425  14.811   7.484 -0.0010 -0.2449  0.2336
 1162loPI   C3A17917   7.472  14.920   7.837 -0.1335 -0.0828 -0.3893
 1162loPI   C4A17918   7.609  14.901   8.232  0.0113  0.0060 -0.1851
 1162loPI   C5A17919   7.984  14.905   8.567  0.1813 -0.0772 -0.1540
 1162loPI   C6A17920   8.291  15.006   8.833 -0.1249  0.0493 -0.0236
 1162loPI   C1B17921   7.428  14.284   7.155  0.1388  0.0550  0.3298
 1162loPI   C2B17922   7.494  14.290   7.613 -0.0101 -0.0144 -0.1776
 1162loPI   C3B17923   7.591  14.396   8.061  0.0367  0.2989  0.0008
 1162loPI   C4B17924   7.636  14.400   8.515 -0.1453 -0.2844  0.0843
 1163loPI    C117925   1.001   6.444   5.934  0.0101 -0.1751  0.0582
 1163loPI    C217926   1.248   6.338   5.638  0.1265  0.1004  0.0536
 1163loPI    C317927   0.852   6.315   5.586  0.1461  0.1632 -0.1294
 1163loPI   PO417928   1.200   6.447   6.131  0.2653 -0.3145 -0.0882
 1163loPI   GL117929   1.281   6.187   6.500  0.1831 -0.2274 -0.0660
 1163loPI   GL217930   1.098   5.963   6.661  0.0968  0.2427 -0.0619
 1163loPI   C1A17931   1.563   6.291   6.905  0.4204  0.1196  0.0566
 1163loPI   C2A17932   1.496   6.339   7.364 -0.0541 -0.0609 -0.1267
 1163loPI   C3A17933   1.509   6.453   7.678 -0.0691 -0.2066  0.4205
 1163loPI   C4A17934   1.595   6.494   8.084 -0.1176  0.0118  0.0292
 1163loPI   C5A17935   1.522   6.614   8.510  0.0421 -0.1226  0.1810
 1163loPI   C6A17936   1.739   6.517   8.840 -0.2722 -0.2074 -0.0611
 1163loPI   C1B17937   1.144   6.101   7.100  0.0424  0.0806 -0.0583
 1163loPI   C2B17938   1.112   6.087   7.534  0.1692  0.1291  0.1120
 1163loPI   C3B17939   1.165   6.170   7.972  0.0195  0.0223  0.0160
 1163loPI   C4B17940   1.112   6.226   8.335 -0.3698  0.1199  0.1092
 1164loPI    C117941   8.809  14.596   5.874 -0.1064 -0.0274 -0.0301
 1164loPI    C217942   8.609  14.267   5.983  0.1401 -0.2357 -0.1949
 1164loPI    C317943   8.753  14.300   5.611  0.2167  0.0098 -0.1455
 1164loPI   PO417944   8.848  14.662   6.080 -0.0142 -0.2319  0.1347
 1164loPI   GL117945   8.901  14.592   6.473 -0.3786 -0.0546 -0.0110
 1164loPI   GL217946   8.803  14.307   6.459 -0.4758  0.0422  0.0737
 1164loPI   C1A17947   8.876  14.556   6.890  0.0571 -0.0813 -0.2422
 1164loPI   C2A17948   8.879  14.533   7.331  0.1647 -0.0029  0.0059
 1164loPI   C3A17949   8.925  14.601   7.778 -0.0977  0.4072  0.1678
 1164loPI   C4A17950   8.846  14.571   8.176 -0.3895  0.0661  0.1621
 1164loPI   C5A17951   9.036  14.157   8.405  0.5312 -0.0150 -0.0627
 1164loPI   C6A17952   8.936  13.716   8.575 -0.0540  0.0488 -0.0195
 1164loPI   C1B17953   8.821  13.988   6.705 -0.0838  0.0905 -0.3152
 1164loPI   C2B17954   8.774  14.104   7.139 -0.3408 -0.0159 -0.2383
 1164loPI   C3B17955   8.743  14.026   7.576  0.1334  0.2471  0.0210
 1164loPI   C4B17956   8.920  14.036   7.928  0.0466 -0.0052 -0.1503
 1165loPI    C117957   0.591   4.402   5.768 -0.0267  0.0228 -0.1826
 1165loPI    C217958   0.645   4.158   5.456 -0.0573 -0.2048 -0.0127
 1165loPI    C317959   0.945   4.391   5.581  0.0098 -0.2423 -0.1023
 1165loPI   PO417960   0.552   4.145   5.954  0.1656  0.0674  0.2276
 1165loPI   GL117961   0.668   3.915   6.321  0.1314  0.1787  0.0628
 1165loPI   GL217962   0.352   3.973   6.471  0.1949  0.0729  0.0922
 1165loPI   C1A17963   0.701   3.714   6.678 -0.0649 -0.0869 -0.0942
 1165loPI   C2A17964   0.788   3.687   7.075  0.1177  0.2469  0.0914
 1165loPI   C3A17965   0.752   3.755   7.566 -0.0645  0.1048 -0.3633
 1165loPI   C4A17966   0.844   3.807   7.862 -0.4961  0.0700  0.1047
 1165loPI   C5A17967   0.800   3.933   8.315  0.1284 -0.0292  0.1285
 1165loPI   C6A17968   0.560   4.158   8.713  0.0908 -0.1962  0.0686
 1165loPI   C1B17969   0.329   3.953   6.922  0.1231  0.1333 -0.0603
 1165loPI   C2B17970   0.381   4.013   7.388  0.2030 -0.1955 -0.1538
 1165loPI   C3B17971   0.371   4.041   7.835 -0.2536 -0.2157 -0.2094
 1165loPI   C4B17972   0.276   4.052   8.266  0.0323 -0.1959 -0.1062
 1166loPI    C117973  16.311   2.600   5.902  0.1140 -0.1822 -0.0485
 1166loPI    C217974  16.411   2.972   5.794 -0.3885 -0.0837 -0.2008
 1166loPI    C317975  16.378   2.685   5.517  0.0211 -0.2549 -0.0809
 1166loPI   PO417976  16.317   2.629   6.162 -0.1463  0.0110  0.0254
 1166loPI   GL117977  16.191   2.831   6.519 -0.3018 -0.0250  0.0082
 1166loPI   GL217978  15.875   2.917   6.662  0.0655  0.2569 -0.1834
 1166loPI   C1A17979  16.241   2.714   6.979 -0.3274  0.1159 -0.0025
 1166loPI   C2A17980  16.354   2.703   7.449 -0.1528 -0.0938  0.0264
 1166loPI   C3A17981  16.317   2.798   7.882 -0.0745  0.1752 -0.2184
 1166loPI   C4A17982  16.351   2.857   8.283  0.0096 -0.2565  0.3627
 1166loPI   C5A17983  16.190   2.978   8.662 -0.0572 -0.0138  0.0587
 1166loPI   C6A17984  16.041   2.850   9.017  0.0510 -0.1893 -0.1523
 1166loPI   C1B17985  15.804   2.974   7.086 -0.2317 -0.0233  0.0376
 1166loPI   C2B17986  15.894   2.976   7.504 -0.4133  0.2223 -0.4448
 1166loPI   C3B17987  15.855   3.032   7.945 -0.2535 -0.0740 -0.0307
 1166loPI   C4B17988  15.905   3.099   8.327  0.0156  0.2972 -0.0483
 1167loPI    C117989   1.762   1.980   5.793 -0.2709  0.2266 -0.0764
 1167loPI    C217990   1.689   1.677   5.543  0.3278 -0.0718  0.0931
 1167loPI    C317991   1.427   1.765   5.831  0.0595 -0.3053 -0.0739
 1167loPI   PO417992   1.984   1.951   5.970 -0.0831  0.1237 -0.1513
 1167loPI   GL117993   2.221   1.864   6.341 -0.1172 -0.2199 -0.1050
 1167loPI   GL217994   2.319   1.562   6.252  0.1913  0.1643  0.0862
 1167loPI   C1A17995   2.186   1.961   6.810  0.0447 -0.0380  0.0600
 1167loPI   C2A17996   2.182   2.110   7.241  0.0148 -0.1713  0.0354
 1167loPI   C3A17997   2.134   2.073   7.664  0.0469  0.1724 -0.1881
 1167loPI   C4A17998   2.106   2.073   8.084  0.2584  0.1814  0.3598
 1167loPI   C5A17999   1.799   1.845   8.460  0.0797  0.0620  0.0822
 1167loPI   C6A18000   1.307   1.990   8.534  0.1165  0.2162  0.0848
 1167loPI   C1B18001   2.181   1.485   6.703 -0.1540  0.0525  0.3845
 1167loPI   C2B18002   2.168   1.576   7.198  0.1048 -0.0324 -0.0661
 1167loPI   C3B18003   2.198   1.506   7.675 -0.1709 -0.1223  0.0669
 1167loPI   C4B18004   2.089   1.605   8.078 -0.0251  0.3228 -0.1919
 1168loPI    C118005   9.179  10.947   5.853  0.2146  0.0866 -0.1908
 1168loPI    C218006   9.414  10.628   5.797 -0.0127 -0.1155 -0.0178
 1168loPI    C318007   9.192  10.768   5.495  0.2906  0.0493 -0.1698
 1168loPI   PO418008   9.066  10.883   6.095 -0.4188  0.1214 -0.1488
 1168loPI   GL118009   8.971  10.998   6.474 -0.2786 -0.3698  0.3650
 1168loPI   GL218010   8.737  10.875   6.694 -0.4335  0.0149 -0.1635
 1168loPI   C1A18011   9.194  11.207   6.863  0.0986  0.1397  0.1543
 1168loPI   C2A18012   9.157  11.126   7.320  0.1743  0.1049  0.0158
 1168loPI   C3A18013   9.091  11.139   7.748 -0.2393 -0.1499 -0.0724
 1168loPI   C4A18014   9.068  11.134   8.149 -0.0971  0.1870  0.0928
 1168loPI   C5A18015   8.926  11.016   8.532 -0.0808 -0.2257  0.0074
 1168loPI   C6A18016   8.678  10.641   8.693  0.1121 -0.0483  0.1453
 1168loPI   C1B18017   8.725  10.905   7.118  0.1293  0.1041 -0.1227
 1168loPI   C2B18018   8.750  10.903   7.537  0.3350  0.0478  0.0336
 1168loPI   C3B18019   8.701  10.811   7.975  0.2456  0.0948  0.2682
 1168loPI   C4B18020   8.530  10.862   8.261 -0.3815 -0.1760 -0.2045
 1169loPI    C118021   0.901   0.477   5.855  0.0565  0.1932 -0.0810
 1169loPI    C218022   0.977   0.160   5.623  0.3595 -0.0042  0.2772
 1169loPI    C318023   1.032   0.530   5.481  0.1533 -0.1108 -0.0927
 1169loPI   PO418024   1.016   0.512   6.101  0.0662 -0.0509 -0.1525
 1169loPI   GL118025   0.958   0.336   6.569 -0.1977 -0.1398 -0.1167
 1169loPI   GL218026   0.872   0.113   6.604 -0.2913  0.2037  0.0307
 1169loPI   C1A18027   1.276   0.356   6.930 -0.0368 -0.2745 -0.1634
 1169loPI   C2A18028   1.162   0.418   7.327  0.2271 -0.0748 -0.1849
 1169loPI   C3A18029   1.159   0.465   7.774 -0.1082  0.5670 -0.0858
 1169loPI   C4A18030   1.182   0.529   8.215  0.1517  0.2473  0.0476
 1169loPI   C5A18031   1.173   0.733   8.505  0.4619  0.1850 -0.1431
 1169loPI   C6A18032   1.271   0.599   8.911  0.1961  0.0862 -0.1566
 1169loPI   C1B18033   0.696   0.073   7.003  0.2193 -0.1098 -0.0634
 1169loPI   C2B18034   0.774   0.122   7.511  0.0028  0.2422  0.1942
 1169loPI   C3B18035   0.825   0.158   8.033 -0.3224  0.2413 -0.1092
 1169loPI   C4B18036   0.855   0.114   8.469 -0.1778  0.0416  0.0553
 1170loPI    C118037   6.718  14.456   5.914 -0.2677  0.0370 -0.0066
 1170loPI    C218038   6.766  14.248   5.576 -0.1949 -0.0104  0.0327
 1170loPI    C318039   6.570  14.596   5.570 -0.1011  0.0409 -0.0773
 1170loPI   PO418040   6.911  14.335   6.100 -0.1804  0.0736 -0.2428
 1170loPI   GL118041   7.017  14.194   6.507 -0.5460 -0.1094  0.2628
 1170loPI   GL218042   7.017  14.590   6.531 -0.1310 -0.2960  0.1842
 1170loPI   C1A18043   7.019  14.058   6.853  0.1718 -0.3225  0.1313
 1170loPI   C2A18044   6.926  14.109   7.231 -0.0015 -0.1495  0.3212
 1170loPI   C3A18045   7.088  14.003   7.735 -0.1512  0.0195 -0.0707
 1170loPI   C4A18046   7.103  14.057   8.160  0.0681 -0.2406 -0.0421
 1170loPI   C5A18047   7.248  14.141   8.557  0.0574 -0.2040  0.0388
 1170loPI   C6A18048   7.089  14.528   8.765  0.1983 -0.1103 -0.2397
 1170loPI   C1B18049   6.940  14.533   6.946 -0.1081  0.0070 -0.0238
 1170loPI   C2B18050   7.034  14.563   7.413 -0.0510  0.2639  0.2172
 1170loPI   C3B18051   7.047  14.595   7.818 -0.4456  0.1261  0.1983
 1170loPI   C4B18052   7.071  14.604   8.252  0.1236 -0.2570 -0.1770
 1171loPI    C118053   0.485   7.315   5.814 -0.0795 -0.0550 -0.0140
 1171loPI    C218054   0.751   7.220   5.530  0.0758 -0.1525  0.1617
 1171loPI    C318055   0.485   7.512   5.466  0.1803 -0.1005 -0.0418
 1171loPI   PO418056   0.674   7.347   6.071 -0.1074  0.1558  0.1785
 1171loPI   GL118057   0.937   7.264   6.433 -0.0219 -0.0975 -0.2296
 1171loPI   GL218058   0.569   7.393   6.611 -0.2597  0.0244  0.2209
 1171loPI   C1A18059   0.995   7.106   6.818 -0.3673  0.0358 -0.1790
 1171loPI   C2A18060   1.080   7.219   7.198 -0.3023 -0.0140  0.2430
 1171loPI   C3A18061   1.049   7.152   7.641  0.0698  0.2492 -0.0002
 1171loPI   C4A18062   1.113   7.249   8.109  0.2310 -0.0132  0.3777
 1171loPI   C5A18063   1.181   7.192   8.503  0.1519  0.0549  0.0227
 1171loPI   C6A18064   0.986   7.083   8.960 -0.2575  0.1514  0.1798
 1171loPI   C1B18065   0.549   7.350   7.065 -0.1000 -0.0325 -0.2970
 1171loPI   C2B18066   0.569   7.382   7.518  0.2114  0.4543 -0.1462
 1171loPI   C3B18067   0.655   7.356   7.847  0.2500  0.0451 -0.3647
 1171loPI   C4B18068   0.715   7.496   8.243  0.1601 -0.1070 -0.2474
 1172loPI    C118069   1.051   8.086   5.942  0.0004 -0.0435 -0.0475
 1172loPI    C218070   1.168   7.975   5.576  0.1223 -0.0073 -0.0200
 1172loPI    C318071   0.885   7.766   5.767  0.0959 -0.0575 -0.1132
 1172loPI   PO418072   1.234   8.133   6.044  0.0293  0.0075 -0.1192
 1172loPI   GL118073   1.100   8.224   6.505 -0.2641 -0.0148  0.0902
 1172loPI   GL218074   1.378   8.186   6.535  0.0547  0.1332  0.3049
 1172loPI   C1A18075   0.924   8.143   6.985 -0.1257  0.0452 -0.2068
 1172loPI   C2A18076   0.952   8.135   7.407 -0.2724  0.2937 -0.2597
 1172loPI   C3A18077   0.954   8.222   7.832 -0.0493 -0.0251 -0.0813
 1172loPI   C4A18078   1.056   8.280   8.275 -0.1034  0.0459 -0.1357
 1172loPI   C5A18079   1.168   8.262   8.745  0.3194  0.3138 -0.1647
 1172loPI   C6A18080   0.791   8.021   9.046  0.0247  0.1148 -0.4056
 1172loPI   C1B18081   1.418   8.408   6.934  0.0710 -0.1728 -0.0598
 1172loPI   C2B18082   1.447   8.514   7.390  0.0214  0.1342 -0.0937
 1172loPI   C3B18083   1.410   8.482   7.836 -0.0956  0.0105  0.1300
 1172loPI   C4B18084   1.565   8.507   8.297  0.0586  0.0062  0.4095
 1173loPI    C118085   4.672   4.524   6.015  0.0994 -0.0243 -0.2195
 1173loPI    C218086   4.416   4.264   5.850 -0.1237  0.0643 -0.0178
 1173loPI    C318087   4.631   4.508   5.617 -0.2199 -0.0134 -0.1898
 1173loPI   PO418088   4.572   4.600   6.264  0.1009 -0.1018  0.1451
 1173loPI   GL118089   4.722   4.723   6.669  0.0556 -0.0466 -0.0614
 1173loPI   GL218090   4.401   4.885   6.643  0.1038  0.0875  0.2003
 1173loPI   C1A18091   4.831   4.657   7.148 -0.5292 -0.0523  0.1903
 1173loPI   C2A18092   4.656   4.614   7.490  0.0653 -0.0609  0.0366
 1173loPI   C3A18093   4.714   4.648   7.900 -0.1009  0.1419 -0.1295
 1173loPI   C4A18094   4.738   4.636   8.318  0.0415  0.0093  0.3753
 1173loPI   C5A18095   4.784   4.585   8.765 -0.1607  0.0814 -0.0637
 1173loPI   C6A18096   5.126   4.655   9.087 -0.5099  0.0990 -0.1988
 1173loPI   C1B18097   4.325   4.913   7.105  0.2051 -0.0297 -0.0006
 1173loPI   C2B18098   4.194   4.872   7.570 -0.0627  0.1990  0.3031
 1173loPI   C3B18099   4.227   4.915   8.005  0.0302 -0.1169 -0.3082
 1173loPI   C4B18100   4.239   4.892   8.506 -0.1218 -0.3447 -0.0451
 1174loPI    C118101   0.531  14.955   5.862 -0.0278 -0.3241 -0.1227
 1174loPI    C218102   0.179  14.962   5.672  0.0306  0.1981 -0.2258
 1174loPI    C318103   0.459  14.697   5.565 -0.3585 -0.2895 -0.0762
 1174loPI   PO418104   0.504  14.893   6.089 -0.2071  0.0891 -0.0034
 1174loPI   GL118105   0.662  15.029   6.491 -0.2868  0.0212  0.0844
 1174loPI   GL218106   0.356  15.065   6.549  0.1668 -0.0551 -0.1140
 1174loPI   C1A18107   0.814  14.991   6.905 -0.1186  0.1026 -0.2784
 1174loPI   C2A18108   0.739  14.948   7.345  0.2480 -0.0708 -0.0221
 1174loPI   C3A18109   0.921  15.028   7.753 -0.0825  0.0810 -0.1978
 1174loPI   C4A18110   0.878  14.995   8.177  0.0979 -0.4124 -0.2188
 1174loPI   C5A18111   0.692  15.012   8.609 -0.1945  0.1105 -0.0097
 1174loPI   C6A18112   0.508  15.050   9.019 -0.1440  0.1700  0.0296
 1174loPI   C1B18113   0.311  15.205   6.953  0.3169 -0.0184  0.0918
 1174loPI   C2B18114   0.228  15.216   7.407  0.3123  0.0093 -0.2425
 1174loPI   C3B18115   0.406  15.160   7.829 -0.1367  0.3179  0.0278
 1174loPI   C4B18116   0.459  15.211   8.183  0.5145 -0.0159 -0.0206
 1175loPI    C118117   2.927   1.725   5.714 -0.1001 -0.0645  0.1811
 1175loPI    C218118   2.997   1.364   5.557 -0.0212  0.0363 -0.0201
 1175loPI    C318119   2.658   1.557   5.471  0.0153  0.0854 -0.0544
 1175loPI   PO418120   2.984   1.697   5.927 -0.0977 -0.1032 -0.0157
 1175loPI   GL118121   2.808   1.760   6.275  0.1817 -0.0627 -0.1953
 1175loPI   GL218122   3.079   1.586   6.415  0.0770 -0.0989 -0.1137
 1175loPI   C1A18123   2.653   1.786   6.631 -0.0271 -0.3550  0.2045
 1175loPI   C2A18124   2.641   1.835   7.070  0.2774 -0.4031  0.0035
 1175loPI   C3A18125   2.513   1.832   7.480  0.1305 -0.1469 -0.0203
 1175loPI   C4A18126   2.592   1.802   7.931 -0.0774  0.2794 -0.3314
 1175loPI   C5A18127   2.665   1.899   8.330 -0.2647 -0.4425  0.1255
 1175loPI   C6A18128   2.895   2.166   8.601 -0.2349  0.0681 -0.0239
 1175loPI   C1B18129   3.059   1.570   6.861  0.1131  0.1640 -0.0237
 1175loPI   C2B18130   2.966   1.547   7.265 -0.0191  0.0180  0.2058
 1175loPI   C3B18131   3.018   1.518   7.749  0.1635  0.0206 -0.0462
 1175loPI   C4B18132   2.903   1.503   8.245 -0.2538  0.1926  0.2670
 1176loPI    C118133  13.671   8.331   5.861  0.0060  0.1926  0.1165
 1176loPI    C218134  13.360   8.551   5.983  0.0258  0.2855  0.0016
 1176loPI    C318135  13.328   8.322   5.656 -0.0367  0.0139  0.1937
 1176loPI   PO418136  13.775   8.222   6.069 -0.1369  0.0172  0.2058
 1176loPI   GL118137  13.711   8.477   6.471 -0.0879  0.0169 -0.1236
 1176loPI   GL218138  13.360   8.584   6.463 -0.0068  0.2118 -0.2548
 1176loPI   C1A18139  13.590   8.429   6.928 -0.2727  0.1579 -0.1338
 1176loPI   C2A18140  13.683   8.446   7.353  0.2768 -0.2557  0.1264
 1176loPI   C3A18141  13.658   8.501   7.807 -0.0363 -0.3551 -0.2589
 1176loPI   C4A18142  13.790   8.585   8.182  0.0492  0.1326 -0.2895
 1176loPI   C5A18143  13.875   8.429   8.604  0.0877  0.1032 -0.0228
 1176loPI   C6A18144  13.929   8.188   8.872 -0.0295  0.1207 -0.0347
 1176loPI   C1B18145  13.178   8.712   6.875 -0.0146  0.0806  0.0257
 1176loPI   C2B18146  13.223   8.731   7.358 -0.2092 -0.1501  0.0700
 1176loPI   C3B18147  13.293   8.828   7.802 -0.2667  0.0571  0.1517
 1176loPI   C4B18148  13.262   8.962   8.235 -0.0572  0.2963  0.2006
 1177loPI    C118149   1.151  16.044   6.040  0.2573  0.1517  0.0745
 1177loPI    C218150   1.454  15.787   6.092  0.0090 -0.1212  0.2010
 1177loPI    C318151   1.153  15.694   5.846 -0.0644  0.0673  0.2179
 1177loPI   PO418152   1.091  16.159   6.287 -0.0128  0.3027  0.0071
 1177loPI   GL118153   1.213  16.213   6.682 -0.1372 -0.1381 -0.1393
 1177loPI   GL218154   1.288  15.828   6.622  0.1689  0.0719  0.0593
 1177loPI   C1A18155   1.162  16.161   7.116 -0.2631  0.2079  0.0968
 1177loPI   C2A18156   1.247  16.242   7.562 -0.0014  0.2142  0.1526
 1177loPI   C3A18157   1.260  16.265   8.043  0.0868 -0.0692 -0.0779
 1177loPI   C4A18158   1.189  16.318   8.489 -0.0153 -0.1771  0.3831
 1177loPI   C5A18159   0.952  16.021   8.720 -0.1182  0.0230 -0.0028
 1177loPI   C6A18160   0.797  15.835   9.083  0.0593  0.1299 -0.4365
 1177loPI   C1B18161   1.185  15.704   6.974 -0.0193  0.0507  0.1277
 1177loPI   C2B18162   1.250  15.730   7.351  0.0482  0.0137 -0.0241
 1177loPI   C3B18163   1.323  15.746   7.855  0.3117 -0.1788  0.1681
 1177loPI   C4B18164   1.320  15.851   8.312 -0.3509  0.0100 -0.2913
 1178loPI    C118165  12.476   9.465   6.021 -0.1797 -0.1672  0.0887
 1178loPI    C218166  12.356   9.326   5.665  0.1096 -0.2760  0.0307
 1178loPI    C318167  12.635   9.613   5.685 -0.0371 -0.1405  0.1670
 1178loPI   PO418168  12.264   9.493   6.192  0.3121 -0.1371 -0.1354
 1178loPI   GL118169  12.206   9.284   6.564  0.0849 -0.0195 -0.0876
 1178loPI   GL218170  11.874   9.355   6.639 -0.0237  0.2142 -0.0211
 1178loPI   C1A18171  12.307   9.258   6.896  0.1979  0.1673 -0.3450
 1178loPI   C2A18172  12.346   9.330   7.374  0.1545  0.1701  0.0007
 1178loPI   C3A18173  12.384   9.317   7.762  0.1921  0.1723  0.3555
 1178loPI   C4A18174  12.400   9.250   8.162 -0.1572  0.1735 -0.2344
 1178loPI   C5A18175  12.372   9.278   8.665  0.0370 -0.0000  0.1852
 1178loPI   C6A18176  12.100   9.215   8.947 -0.0715  0.0035  0.2738
 1178loPI   C1B18177  11.851   9.556   6.927 -0.0170 -0.0669 -0.1644
 1178loPI   C2B18178  11.832   9.619   7.403  0.3463  0.2913 -0.0542
 1178loPI   C3B18179  11.936   9.565   7.775  0.4342 -0.1838  0.1624
 1178loPI   C4B18180  12.002   9.614   8.272  0.1715  0.1369  0.1655
 1179loPI    C118181   2.929  11.766   6.105 -0.1659  0.0955 -0.1135
 1179loPI    C218182   2.543  11.664   6.081 -0.0772 -0.1954 -0.3556
 1179loPI    C318183   2.759  11.707   5.748  0.1360 -0.1760 -0.2165
 1179loPI   PO418184   2.944  11.984   6.248  0.1740  0.0376  0.1015
 1179loPI   GL118185   3.119  12.262   6.624  0.1248 -0.1794  0.0890
 1179loPI   GL218186   3.348  12.078   6.593 -0.0910 -0.1663  0.1532
 1179loPI   C1A18187   3.231  12.287   6.998  0.0410  0.0991 -0.2043
 1179loPI   C2A18188   3.213  12.313   7.423 -0.0772  0.1246  0.0956
 1179loPI   C3A18189   3.139  12.269   7.907  0.0323 -0.1720  0.0425
 1179loPI   C4A18190   3.145  12.220   8.332  0.0827  0.0198 -0.3765
 1179loPI   C5A18191   3.035  11.870   8.450 -0.1697  0.0803  0.0436
 1179loPI   C6A18192   3.003  11.542   8.578 -0.1450 -0.0752 -0.0213
 1179loPI   C1B18193   3.460  11.850   6.919  0.0741 -0.0372 -0.1215
 1179loPI   C2B18194   3.490  11.910   7.284  0.0192  0.3376  0.0040
 1179loPI   C3B18195   3.566  12.009   7.682  0.1071 -0.2513  0.1151
 1179loPI   C4B18196   3.585  12.433   7.842 -0.0194 -0.0976  0.1383
 1180loPI    C118197  11.556   0.226   5.756 -0.1163 -0.0451  0.1299
 1180loPI    C218198  11.847   0.224   5.482 -0.1722 -0.1626  0.0709
 1180loPI    C318199  11.500   0.405   5.403 -0.1417 -0.0851  0.1137
 1180loPI   PO418200  11.737   0.168   5.985  0.1720  0.0761 -0.0469
 1180loPI   GL118201  11.867   0.155   6.412 -0.0655 -0.1228  0.0998
 1180loPI   GL218202  11.901   0.489   6.513  0.3890 -0.3183  0.1209
 1180loPI   C1A18203  11.874   0.075   6.896  0.4131  0.2502 -0.0792
 1180loPI   C2A18204  11.917   0.045   7.341  0.2431  0.1188 -0.0409
 1180loPI   C3A18205  11.960   0.121   7.783 -0.0296  0.0621  0.0767
 1180loPI   C4A18206  11.958   0.133   8.264 -0.4213  0.0473  0.1298
 1180loPI   C5A18207  11.937   0.416   8.570 -0.1180 -0.2531 -0.2442
 1180loPI   C6A18208  12.309   0.490   8.747  0.2270 -0.1557  0.1885
 1180loPI   C1B18209  11.875   0.623   7.043  0.2690 -0.1102  0.2518
 1180loPI   C2B18210  11.866   0.669   7.527  0.0130 -0.2175  0.1153
 1180loPI   C3B18211  11.875   0.603   7.836 -0.1213  0.2661 -0.1620
 1180loPI   C4B18212  12.011   0.707   8.181 -0.1539  0.1013 -0.0732
 1181loPI    C118213   0.547  11.664   5.565  0.4101 -0.0674  0.1618
 1181loPI    C218214   0.642  12.045   5.642  0.3258 -0.0090 -0.0188
 1181loPI    C318215   0.696  11.895   5.275  0.2043 -0.1233  0.0093
 1181loPI   PO418216   0.684  11.584   5.882  0.1811  0.1939 -0.2896
 1181loPI   GL118217   0.696  11.530   6.302  0.1290  0.0459  0.0618
 1181loPI   GL218218   0.391  11.416   6.507 -0.0096 -0.0412 -0.2215
 1181loPI   C1A18219   0.846  11.315   6.689 -0.0421 -0.0319  0.3641
 1181loPI   C2A18220   0.890  11.344   7.177 -0.2157 -0.2063 -0.1772
 1181loPI   C3A18221   0.891  11.269   7.554 -0.0609 -0.2032 -0.2583
 1181loPI   C4A18222   0.930  11.328   8.045 -0.0538  0.0653 -0.0524
 1181loPI   C5A18223   0.822  11.410   8.435  0.1246  0.2039  0.0738
 1181loPI   C6A18224   0.552  11.600   8.812 -0.1343 -0.0018 -0.0632
 1181loPI   C1B18225   0.485  11.499   6.982 -0.1046  0.2271  0.1059
 1181loPI   C2B18226   0.471  11.568   7.375 -0.1582  0.1004 -0.0870
 1181loPI   C3B18227   0.514  11.560   7.852  0.0437 -0.0604 -0.1737
 1181loPI   C4B18228   0.399  11.664   8.271  0.0631 -0.0636  0.4139
 1182loPI    C118229   8.958   7.376   6.247  0.0269  0.0435 -0.0170
 1182loPI    C218230   9.245   7.397   5.969  0.0259 -0.0883 -0.0284
 1182loPI    C318231   9.164   7.048   6.147 -0.0257 -0.0202  0.0825
 1182loPI   PO418232   9.037   7.573   6.471 -0.2166  0.2606  0.1256
 1182loPI   GL118233   9.247   7.611   6.871 -0.1696 -0.0710 -0.0381
 1182loPI   GL218234   9.491   7.732   6.730  0.0563 -0.2515 -0.0735
 1182loPI   C1A18235   9.185   7.512   7.330 -0.1984  0.0152  0.2618
 1182loPI   C2A18236   9.114   7.436   7.748  0.0002  0.1884 -0.0054
 1182loPI   C3A18237   9.192   7.446   8.223  0.0757  0.2430 -0.0068
 1182loPI   C4A18238   9.271   7.539   8.653 -0.0814  0.1790  0.1442
 1182loPI   C5A18239   9.402   7.399   9.051  0.0333 -0.1708  0.1734
 1182loPI   C6A18240   9.210   7.669   9.435 -0.1067  0.2417 -0.1618
 1182loPI   C1B18241   9.717   7.782   7.061 -0.2219 -0.0827  0.1644
 1182loPI   C2B18242   9.604   7.734   7.458 -0.1254 -0.2771 -0.0736
 1182loPI   C3B18243   9.602   7.676   7.857  0.2066 -0.0660  0.1261
 1182loPI   C4B18244   9.688   7.756   8.187 -0.0633 -0.0765  0.1271
 1183loPI    C118245   1.118  12.288   5.933  0.0024 -0.1576  0.0148
 1183loPI    C218246   0.878  12.563   5.770  0.1646 -0.0625 -0.0662
 1183loPI    C318247   1.254  12.524   5.640  0.2777 -0.0273  0.2420
 1183loPI   PO418248   1.161  12.329   6.158  0.1533 -0.1349  0.1929
 1183loPI   GL118249   1.289  12.250   6.606 -0.1529  0.1206  0.0085
 1183loPI   GL218250   1.143  12.529   6.594  0.1245  0.0398  0.3172
 1183loPI   C1A18251   1.329  12.038   6.927  0.0049 -0.0345  0.1333
 1183loPI   C2A18252   1.324  12.071   7.372  0.2473  0.0193 -0.0370
 1183loPI   C3A18253   1.275  12.130   7.724  0.0700 -0.0402  0.1700
 1183loPI   C4A18254   1.400  12.150   8.164  0.2478  0.0503 -0.1615
 1183loPI   C5A18255   1.167  12.136   8.509 -0.5272  0.2535 -0.0335
 1183loPI   C6A18256   1.121  12.306   8.971  0.2265 -0.1272 -0.0318
 1183loPI   C1B18257   1.325  12.543   7.015  0.0212 -0.0894 -0.2246
 1183loPI   C2B18258   1.307  12.583   7.517  0.0667 -0.2871 -0.1304
 1183loPI   C3B18259   1.294  12.687   7.970 -0.0672 -0.1702 -0.1512
 1183loPI   C4B18260   1.311  12.746   8.417 -0.2542 -0.1362  0.1427
 1184loPI    C118261   4.251   9.744   5.797 -0.2387 -0.0563  0.0528
 1184loPI    C218262   4.094   9.388   5.892  0.1688 -0.2909 -0.1270
 1184loPI    C318263   4.008   9.558   5.540  0.0557 -0.2582 -0.0841
 1184loPI   PO418264   4.195   9.936   6.027  0.1425  0.1620  0.1313
 1184loPI   GL118265   4.096   9.953   6.448 -0.2195  0.1309  0.1520
 1184loPI   GL218266   4.001   9.605   6.435  0.1340 -0.2800 -0.3076
 1184loPI   C1A18267   4.123  10.147   6.834  0.4558 -0.0586 -0.1249
 1184loPI   C2A18268   4.162  10.095   7.288  0.0549  0.0444 -0.0321
 1184loPI   C3A18269   4.095  10.132   7.768 -0.0218 -0.1480 -0.3202
 1184loPI   C4A18270   4.043  10.029   8.172  0.1329 -0.0145 -0.0387
 1184loPI   C5A18271   3.928   9.806   8.548  0.1656 -0.0255 -0.2533
 1184loPI   C6A18272   3.641   9.786   8.813  0.0245 -0.2373  0.1053
 1184loPI   C1B18273   4.134   9.564   6.918 -0.2108  0.0455 -0.0040
 1184loPI   C2B18274   4.096   9.569   7.370  0.0554  0.0843  0.1586
 1184loPI   C3B18275   4.128   9.606   7.711  0.3267 -0.0283 -0.0337
 1184loPI   C4B18276   4.160   9.550   8.166 -0.1628  0.0792 -0.0245
 1185loPI    C118277  15.663  14.845   5.768  0.1504 -0.0866 -0.1141
 1185loPI    C218278  15.557  14.640   5.442  0.1567 -0.0951 -0.1109
 1185loPI    C318279  15.467  15.028   5.472  0.0205 -0.1307 -0.0563
 1185loPI   PO418280  15.563  14.739   5.932  0.5457  0.1029 -0.4582
 1185loPI   GL118281  15.614  14.665   6.298  0.3174 -0.0532  0.1305
 1185loPI   GL218282  15.293  14.740   6.430  0.4304 -0.1705  0.0026
 1185loPI   C1A18283  15.583  14.368   6.673 -0.3125 -0.0073  0.2356
 1185loPI   C2A18284  15.556  14.280   7.108 -0.1436 -0.1617 -0.0718
 1185loPI   C3A18285  15.547  14.473   7.543  0.2121  0.0590  0.0588
 1185loPI   C4A18286  15.560  14.333   7.995 -0.1209 -0.0728 -0.0344
 1185loPI   C5A18287  15.526  14.378   8.444  0.1304 -0.2593  0.1871
 1185loPI   C6A18288  15.427  14.237   8.922  0.1509 -0.2371  0.2036
 1185loPI   C1B18289  15.543  14.847   6.766  0.0721 -0.0469 -0.0468
 1185loPI   C2B18290  15.463  14.867   7.267 -0.0406  0.2610 -0.0741
 1185loPI   C3B18291  15.451  14.928   7.721  0.2828 -0.1557  0.2813
 1185loPI   C4B18292  15.481  15.001   8.160  0.1429 -0.0297 -0.1355
 1186loPI    C118293   2.908  10.368   5.765 -0.2246 -0.2966 -0.0100
 1186loPI    C218294   2.624  10.650   5.760 -0.0111 -0.0781 -0.0641
 1186loPI    C318295   2.655  10.391   5.457  0.0410  0.0952 -0.2081
 1186loPI   PO418296   2.941  10.270   5.983 -0.0276  0.1891 -0.1996
 1186loPI   GL118297   2.828  10.268   6.384  0.2157  0.0129 -0.2795
 1186loPI   GL218298   2.652  10.179   6.690 -0.1725  0.0094 -0.0382
 1186loPI   C1A18299   3.042  10.555   6.639 -0.0095 -0.0983  0.0701
 1186loPI   C2A18300   3.153  10.518   7.055 -0.0334 -0.2173  0.0608
 1186loPI   C3A18301   3.140  10.682   7.567  0.1563 -0.1158 -0.1250
 1186loPI   C4A18302   3.144  10.584   7.997  0.1139 -0.1094  0.0078
 1186loPI   C5A18303   3.154  10.543   8.388  0.0991  0.0779  0.2350
 1186loPI   C6A18304   3.085  10.592   8.755 -0.1827 -0.1398 -0.2137
 1186loPI   C1B18305   2.730  10.288   7.115  0.0306 -0.0141 -0.0394
 1186loPI   C2B18306   2.794  10.348   7.634  0.0429  0.0143 -0.0408
 1186loPI   C3B18307   2.732  10.425   8.106 -0.0635 -0.0026 -0.0142
 1186loPI   C4B18308   2.710  10.361   8.545 -0.0257  0.3519  0.2408
 1187loPI    C118309   0.057  15.743   5.838  0.1030  0.0160 -0.0181
 1187loPI    C218310   0.266  15.482   5.618 -0.2023 -0.1916 -0.0690
 1187loPI    C318311  -0.006  15.718   5.443 -0.1624 -0.0729  0.0276
 1187loPI   PO418312   0.195  15.759   6.126 -0.0042  0.0203 -0.0187
 1187loPI   GL118313   0.007  15.548   6.403 -0.1063 -0.0783 -0.1067
 1187loPI   GL218314  -0.175  15.879   6.560  0.2906  0.4077  0.2218
 1187loPI   C1A18315  -0.123  15.399   6.745  0.1198  0.1533  0.2021
 1187loPI   C2A18316  -0.092  15.488   7.217  0.2227  0.1090  0.0597
 1187loPI   C3A18317  -0.092  15.476   7.699 -0.0719 -0.3407  0.0451
 1187loPI   C4A18318  -0.114  15.478   8.245 -0.0438  0.1756  0.1682
 1187loPI   C5A18319  -0.308  15.332   8.566  0.0476  0.0594  0.0618
 1187loPI   C6A18320  -0.588  15.023   8.829 -0.1657 -0.1238 -0.0403
 1187loPI   C1B18321  -0.188  15.921   6.951  0.1533 -0.0231 -0.5117
 1187loPI   C2B18322  -0.135  15.888   7.427  0.1691  0.4909  0.1679
 1187loPI   C3B18323  -0.094  15.919   7.909  0.0691  0.0597  0.1046
 1187loPI   C4B18324  -0.170  16.035   8.328 -0.0348  0.3375  0.1481
 1188loPI    C118325   8.779  11.267   5.868  0.2076  0.0704  0.0892
 1188loPI    C218326   8.705  10.889   5.761 -0.2096  0.1767 -0.0162
 1188loPI    C318327   8.774  11.166   5.481  0.1222  0.1774  0.0619
 1188loPI   PO418328   8.583  11.200   6.158 -0.3891 -0.0479  0.0571
 1188loPI   GL118329   8.519  11.451   6.512  0.0097  0.1933 -0.3259
 1188loPI   GL218330   8.799  11.495   6.709 -0.0075  0.1565  0.1572
 1188loPI   C1A18331   8.406  11.679   6.917  0.0805  0.0601 -0.3597
 1188loPI   C2A18332   8.386  11.709   7.316 -0.2579 -0.1199  0.0655
 1188loPI   C3A18333   8.355  11.689   7.745  0.2098  0.2592 -0.1436
 1188loPI   C4A18334   8.221  11.730   8.133 -0.0425  0.0024  0.0859
 1188loPI   C5A18335   8.103  11.459   8.403  0.0864  0.0680 -0.1599
 1188loPI   C6A18336   8.021  10.995   8.598  0.0652  0.0323 -0.2543
 1188loPI   C1B18337   8.824  11.456   7.151  0.3125 -0.0676 -0.0939
 1188loPI   C2B18338   8.760  11.489   7.581 -0.1474 -0.1010 -0.1416
 1188loPI   C3B18339   8.637  11.403   7.995 -0.2169  0.2758 -0.0952
 1188loPI   C4B18340   8.562  11.322   8.470  0.1341  0.0587  0.2872
 1189loPI    C118341  13.486  17.133   5.968 -0.0403  0.0838  0.0898
 1189loPI    C218342  13.388  16.749   6.022  0.3008 -0.0271 -0.0492
 1189loPI    C318343  13.329  16.921   5.666 -0.0452  0.1131  0.0717
 1189loPI   PO418344  13.634  17.175   6.164 -0.2960 -0.1075  0.2119
 1189loPI   GL118345  13.819  17.386   6.488  0.0253  0.0433  0.2323
 1189loPI   GL218346  14.103  17.313   6.394 -0.2015 -0.0451 -0.2954
 1189loPI   C1A18347  13.711  17.478   6.867 -0.1503 -0.0671 -0.1083
 1189loPI   C2A18348  13.751  17.433   7.275  0.0610 -0.1658  0.0707
 1189loPI   C3A18349  13.611  17.368   7.709 -0.2276 -0.0663  0.3133
 1189loPI   C4A18350  13.574  17.395   8.131 -0.1266 -0.0476  0.2124
 1189loPI   C5A18351  13.731  17.696   8.366  0.2625 -0.0372 -0.0854
 1189loPI   C6A18352  13.719  18.109   8.554  0.2220 -0.2231  0.0109
 1189loPI   C1B18353  14.110  17.130   6.794  0.1418  0.3355 -0.2345
 1189loPI   C2B18354  14.196  17.202   7.182 -0.2824  0.2905 -0.0808
 1189loPI   C3B18355  14.038  17.140   7.618  0.1305 -0.1285 -0.0633
 1189loPI   C4B18356  14.071  17.096   8.011  0.0768 -0.0248  0.2361
 1190loPI    C118357   1.671   0.175   6.178  0.2536  0.1232  0.0195
 1190loPI    C218358   1.858  -0.147   6.324  0.0225  0.0261  0.1078
 1190loPI    C318359   1.928  -0.028   5.948  0.0964 -0.1370  0.0685
 1190loPI   PO418360   1.419   0.161   6.282  0.1639  0.0101 -0.1458
 1190loPI   GL118361   1.457  -0.114   6.574 -0.0964 -0.0068 -0.3119
 1190loPI   GL218362   1.673  -0.311   6.758  0.1883  0.0125  0.1701
 1190loPI   C1A18363   1.228  -0.133   6.951 -0.3130 -0.3574  0.0335
 1190loPI   C2A18364   1.182  -0.128   7.389 -0.0749 -0.1034  0.0842
 1190loPI   C3A18365   1.272  -0.029   7.790  0.0874  0.1272  0.1831
 1190loPI   C4A18366   1.301  -0.074   8.231  0.1923  0.1309  0.0865
 1190loPI   C5A18367   1.316   0.134   8.642  0.2106 -0.3542  0.0095
 1190loPI   C6A18368   1.570   0.110   9.068 -0.3638 -0.2465  0.0347
 1190loPI   C1B18369   1.633  -0.366   7.185 -0.1614  0.2101 -0.2415
 1190loPI   C2B18370   1.620  -0.269   7.621 -0.1005  0.0638 -0.1696
 1190loPI   C3B18371   1.745  -0.289   8.062  0.0487 -0.1596 -0.0242
 1190loPI   C4B18372   1.813  -0.305   8.418  0.1665 -0.0828 -0.1788
 1191loPI    C118373  14.877  15.298   5.751  0.0566 -0.0705 -0.0016
 1191loPI    C218374  14.932  15.116   5.399 -0.1412  0.0211 -0.0816
 1191loPI    C318375  14.639  15.386   5.441 -0.2524 -0.1405  0.2107
 1191loPI   PO418376  15.177  15.325   5.792  0.2943 -0.2686 -0.2369
 1191loPI   GL118377  15.370  15.481   6.161 -0.0804 -0.3022 -0.1883
 1191loPI   GL218378  15.465  15.157   6.204 -0.1672 -0.0888  0.0282
 1191loPI   C1A18379  15.086  15.690   6.529  0.0572 -0.0178  0.1011
 1191loPI   C2A18380  14.949  15.657   6.938  0.2845  0.0168  0.5738
 1191loPI   C3A18381  15.042  15.588   7.345  0.0428 -0.0363 -0.0437
 1191loPI   C4A18382  14.999  15.614   7.740  0.0074  0.3686 -0.0002
 1191loPI   C5A18383  14.951  15.714   8.217 -0.0005 -0.2430  0.0722
 1191loPI   C6A18384  15.291  15.376   8.478 -0.0882 -0.2383  0.3907
 1191loPI   C1B18385  15.413  15.377   6.715  0.1877  0.1391  0.0107
 1191loPI   C2B18386  15.521  15.397   7.111  0.2341 -0.0991  0.0893
 1191loPI   C3B18387  15.492  15.396   7.484  0.0774 -0.5433 -0.2758
 1191loPI   C4B18388  15.467  15.426   7.944  0.0097 -0.1918 -0.1308
 1192loPI    C118389   5.133  11.372   5.927 -0.0698  0.1908  0.1148
 1192loPI    C218390   4.896  11.376   5.605  0.2532 -0.0845 -0.1339
 1192loPI    C318391   4.762  11.224   5.951 -0.0712  0.1467 -0.1537
 1192loPI   PO418392   5.328  11.615   6.024  0.1528  0.0340  0.1892
 1192loPI   GL118393   5.261  11.781   6.430 -0.0252 -0.0863  0.0581
 1192loPI   GL218394   5.522  11.726   6.571  0.0466 -0.2813 -0.1932
 1192loPI   C1A18395   4.947  11.656   6.742  0.2521  0.1654  0.0957
 1192loPI   C2A18396   4.860  11.786   7.128 -0.0307  0.0619  0.1999
 1192loPI   C3A18397   4.893  11.777   7.464 -0.0856  0.0754  0.1153
 1192loPI   C4A18398   4.922  11.691   7.893  0.1297  0.0691  0.2377
 1192loPI   C5A18399   4.958  11.701   8.331  0.1677  0.2314  0.0769
 1192loPI   C6A18400   4.715  11.624   8.693 -0.0835  0.2918  0.0226
 1192loPI   C1B18401   5.756  11.712   6.988  0.1684  0.1270  0.3149
 1192loPI   C2B18402   5.765  11.685   7.393  0.2200  0.3025  0.1757
 1192loPI   C3B18403   5.772  11.703   7.864 -0.3445 -0.2833  0.1806
 1192loPI   C4B18404   5.766  11.694   8.227  0.0303  0.1036  0.2155
 1193loPI    C118405   7.836  15.456   6.190 -0.0974  0.1442 -0.2429
 1193loPI    C218406   7.522  15.225   6.099 -0.2480  0.2838 -0.0851
 1193loPI    C318407   7.646  15.506   5.842 -0.1053  0.0746 -0.2487
 1193loPI   PO418408   7.811  15.534   6.390  0.0917 -0.0314 -0.1316
 1193loPI   GL118409   7.986  15.590   6.669  0.4324 -0.1301  0.1153
 1193loPI   GL218410   8.104  15.774   6.776 -0.0844 -0.2875 -0.0424
 1193loPI   C1A18411   7.758  15.651   7.060  0.0875 -0.0360 -0.0724
 1193loPI   C2A18412   7.810  15.645   7.482 -0.0924  0.2722 -0.1654
 1193loPI   C3A18413   7.922  15.591   7.929  0.0941 -0.0050 -0.0814
 1193loPI   C4A18414   7.930  15.535   8.325 -0.3412  0.0470  0.0802
 1193loPI   C5A18415   7.630  15.314   8.677 -0.1508 -0.0339 -0.1412
 1193loPI   C6A18416   7.243  15.179   8.607  0.3522  0.0774 -0.1945
 1193loPI   C1B18417   8.216  15.742   7.147  0.1246  0.2210  0.0861
 1193loPI   C2B18418   8.295  15.704   7.512  0.1011  0.1144 -0.0983
 1193loPI   C3B18419   8.397  15.827   7.926 -0.1226 -0.0927 -0.1479
 1193loPI   C4B18420   8.465  15.634   8.305 -0.3098  0.0838  0.2645
 1194loPI    C118421  15.485   3.740   5.613 -0.0161  0.3638 -0.1707
 1194loPI    C218422  15.812   3.628   5.413  0.0304  0.1683  0.0113
 1194loPI    C318423  15.467   3.682   5.218  0.0915  0.0487 -0.1319
 1194loPI   PO418424  15.525   3.976   5.775  0.0808  0.3566 -0.3823
 1194loPI   GL118425  15.635   4.036   6.150 -0.0383 -0.1380  0.2367
 1194loPI   GL218426  15.841   3.905   6.432 -0.1571 -0.0616  0.1843
 1194loPI   C1A18427  15.466   4.248   6.519 -0.3458  0.2766  0.0910
 1194loPI   C2A18428  15.449   4.383   6.977  0.1425  0.0226  0.1663
 1194loPI   C3A18429  15.470   4.227   7.407 -0.0430  0.0699 -0.2414
 1194loPI   C4A18430  15.281   4.270   7.833  0.0073 -0.1428 -0.3623
 1194loPI   C5A18431  15.443   4.347   8.302 -0.2240  0.0648 -0.0511
 1194loPI   C6A18432  15.185   4.369   8.702 -0.0664  0.1185 -0.1500
 1194loPI   C1B18433  15.875   3.974   6.866 -0.2245 -0.0689 -0.6257
 1194loPI   C2B18434  15.861   3.976   7.315 -0.1350  0.2700  0.0132
 1194loPI   C3B18435  15.888   3.976   7.754  0.2177  0.2147  0.0851
 1194loPI   C4B18436  15.813   3.988   8.251 -0.0757  0.1818 -0.1085
 1195loPI    C118437   5.090  13.822   5.861  0.1403 -0.2032  0.2228
 1195loPI    C218438   4.746  13.956   6.015  0.1679 -0.0744  0.1737
 1195loPI    C318439   4.761  13.834   5.634  0.2402  0.1887  0.0896
 1195loPI   PO418440   5.278  13.986   5.936 -0.0346 -0.0368  0.0029
 1195loPI   GL118441   5.331  13.966   6.442  0.2980  0.3059 -0.1117
 1195loPI   GL218442   5.124  13.739   6.514  0.1179 -0.0321  0.0835
 1195loPI   C1A18443   5.185  14.010   6.926 -0.0349 -0.0903 -0.1093
 1195loPI   C2A18444   5.268  14.146   7.221 -0.0209 -0.2410 -0.1138
 1195loPI   C3A18445   5.336  14.087   7.655  0.2388 -0.0076  0.0359
 1195loPI   C4A18446   5.309  13.978   8.121  0.0817 -0.2431 -0.0516
 1195loPI   C5A18447   5.434  13.972   8.549  0.2024  0.0999  0.1783
 1195loPI   C6A18448   5.702  14.139   8.683 -0.1573  0.1345  0.3335
 1195loPI   C1B18449   5.261  13.537   6.962  0.0058  0.0457  0.2244
 1195loPI   C2B18450   5.213  13.559   7.349  0.0889  0.0838  0.4028
 1195loPI   C3B18451   5.312  13.525   7.863  0.0266 -0.3537  0.2781
 1195loPI   C4B18452   5.392  13.475   8.316 -0.0756 -0.1827  0.2259
 1196loPI    C118453   9.426  11.741   6.052 -0.1226 -0.2568  0.2197
 1196loPI    C218454   9.282  11.525   5.747 -0.1967 -0.2313  0.2365
 1196loPI    C318455   9.059  11.814   5.911 -0.1349 -0.2063  0.2773
 1196loPI   PO418456   9.545  11.600   6.229 -0.1035 -0.0943  0.0820
 1196loPI   GL118457   9.607  11.407   6.639 -0.1350 -0.2030 -0.0385
 1196loPI   GL218458   9.832  11.658   6.639 -0.1599 -0.1383  0.1835
 1196loPI   C1A18459   9.741  11.410   7.051  0.4996 -0.3616  0.0152
 1196loPI   C2A18460   9.652  11.405   7.430 -0.0935  0.0126 -0.0848
 1196loPI   C3A18461   9.633  11.366   7.836  0.1226  0.0961  0.1722
 1196loPI   C4A18462   9.502  11.402   8.320 -0.0091 -0.0713  0.1250
 1196loPI   C5A18463   9.834  11.363   8.676  0.2162  0.1202  0.1094
 1196loPI   C6A18464  10.204  11.570   8.831 -0.0419  0.0319  0.1176
 1196loPI   C1B18465  10.140  11.639   7.021 -0.4119  0.0148  0.1589
 1196loPI   C2B18466  10.109  11.763   7.408 -0.0337 -0.0557  0.1087
 1196loPI   C3B18467  10.074  11.668   7.934  0.0444 -0.0962  0.0123
 1196loPI   C4B18468  10.252  11.754   8.362 -0.3528  0.0807  0.0507
 1197loPI    C118469  15.269  12.368   5.716 -0.0127  0.0324  0.3089
 1197loPI    C218470  15.048  12.641   5.523  0.1374  0.1035  0.2362
 1197loPI    C318471  14.949  12.254   5.505  0.1532  0.1089  0.0103
 1197loPI   PO418472  15.266  12.395   5.971 -0.0571  0.3815 -0.0239
 1197loPI   GL118473  15.256  12.239   6.409  0.0205  0.0047  0.1096
 1197loPI   GL218474  15.569  12.022   6.541  0.0685  0.3315 -0.3287
 1197loPI   C1A18475  15.194  12.346   6.858  0.1212  0.1435 -0.0448
 1197loPI   C2A18476  15.151  12.567   7.275 -0.3524  0.2576 -0.0736
 1197loPI   C3A18477  15.138  12.541   7.670 -0.0788  0.1219 -0.4055
 1197loPI   C4A18478  15.154  12.694   8.071 -0.3309 -0.3134  0.0046
 1197loPI   C5A18479  15.345  12.952   8.435 -0.1631 -0.0838  0.0017
 1197loPI   C6A18480  15.678  12.955   8.742 -0.1167 -0.1795 -0.0752
 1197loPI   C1B18481  15.594  12.086   7.022 -0.2188  0.1132  0.3378
 1197loPI   C2B18482  15.530  12.235   7.419  0.1192 -0.0755 -0.1603
 1197loPI   C3B18483  15.502  12.288   7.866  0.1135  0.0906  0.0127
 1197loPI   C4B18484  15.617  12.511   8.329 -0.0441 -0.2952 -0.0592
 1198loPI    C118485   7.179   2.788   5.864 -0.0375  0.0286 -0.0671
 1198loPI    C218486   7.008   2.743   5.505  0.1336  0.0303 -0.1498
 1198loPI    C318487   7.304   3.009   5.555  0.2012 -0.0643 -0.0398
 1198loPI   PO418488   7.014   2.826   6.023  0.1551 -0.0111  0.0149
 1198loPI   GL118489   6.837   2.958   6.433 -0.1740 -0.2828  0.1838
 1198loPI   GL218490   7.075   2.903   6.540  0.2481  0.1302  0.3376
 1198loPI   C1A18491   6.585   3.118   6.709 -0.0679 -0.0179  0.2317
 1198loPI   C2A18492   6.553   3.240   7.161 -0.0505 -0.0049  0.0217
 1198loPI   C3A18493   6.597   3.142   7.546  0.1297 -0.0097  0.0614
 1198loPI   C4A18494   6.604   3.127   7.922 -0.3032 -0.3269  0.1238
 1198loPI   C5A18495   6.535   3.147   8.369  0.1585 -0.3112  0.0195
 1198loPI   C6A18496   6.401   3.252   8.817 -0.0296 -0.3935 -0.0753
 1198loPI   C1B18497   7.005   2.845   6.948  0.0045 -0.0795  0.2175
 1198loPI   C2B18498   6.972   2.892   7.318 -0.1694  0.0290  0.0120
 1198loPI   C3B18499   7.015   2.890   7.749 -0.2865 -0.1562 -0.2757
 1198loPI   C4B18500   7.063   3.054   8.158  0.1512  0.3209  0.0367
 1199loPI    C118501  10.885   8.144   5.870  0.2632  0.0923  0.0260
 1199loPI    C218502  10.669   8.347   5.601  0.0808 -0.2265 -0.0733
 1199loPI    C318503  10.941   8.081   5.479  0.3048 -0.0604  0.0563
 1199loPI   PO418504  10.942   8.271   5.991  0.0620 -0.0895  0.0011
 1199loPI   GL118505  10.928   8.260   6.435  0.2662 -0.2361  0.1611
 1199loPI   GL218506  10.873   8.601   6.466 -0.2649 -0.2199 -0.5645
 1199loPI   C1A18507  10.944   8.083   6.750  0.1390  0.0651  0.1650
 1199loPI   C2A18508  10.964   8.034   7.225 -0.1691 -0.0781  0.1276
 1199loPI   C3A18509  11.072   8.122   7.665  0.0365 -0.2511 -0.1346
 1199loPI   C4A18510  11.150   8.000   8.213 -0.1173 -0.0007  0.0929
 1199loPI   C5A18511  11.387   7.887   8.648  0.1079  0.1189 -0.1603
 1199loPI   C6A18512  11.445   7.781   9.114  0.1203 -0.0722  0.1456
 1199loPI   C1B18513  10.902   8.546   6.942  0.1981  0.0540 -0.0065
 1199loPI   C2B18514  11.054   8.561   7.381 -0.1563 -0.0254  0.1959
 1199loPI   C3B18515  11.000   8.644   7.868 -0.0155 -0.1750 -0.1797
 1199loPI   C4B18516  11.020   8.607   8.310  0.0925 -0.0618  0.0153
 1200loPI    C118517   0.611  13.766   5.774  0.1382 -0.1089  0.1450
 1200loPI    C218518   0.432  13.709   5.421  0.1725 -0.1533  0.1347
 1200loPI    C318519   0.449  13.411   5.687  0.3089 -0.1769  0.1006
 1200loPI   PO418520   0.514  13.924   5.942  0.2587 -0.0114  0.2176
 1200loPI   GL118521   0.488  13.851   6.343  0.1443 -0.0280  0.0918
 1200loPI   GL218522   0.461  14.160   6.423 -0.1919  0.1248  0.2780
 1200loPI   C1A18523   0.354  13.680   6.759  0.0280  0.0099 -0.1409
 1200loPI   C2A18524   0.450  13.566   7.092  0.1122  0.1838  0.2362
 1200loPI   C3A18525   0.432  13.660   7.523  0.0706  0.1332  0.1002
 1200loPI   C4A18526   0.371  13.688   7.966  0.1721  0.0181 -0.1256
 1200loPI   C5A18527   0.348  13.734   8.441 -0.0467  0.0381  0.1489
 1200loPI   C6A18528   0.354  13.786   8.964  0.1161 -0.0936  0.1131
 1200loPI   C1B18529   0.450  14.170   6.908 -0.2446 -0.2485  0.1774
 1200loPI   C2B18530   0.440  14.161   7.293 -0.0248  0.1127  0.0921
 1200loPI   C3B18531   0.398  14.155   7.730 -0.0308 -0.0766 -0.1836
 1200loPI   C4B18532   0.378  14.187   8.171  0.0131  0.0724 -0.1186
 1201loPI    C118533   0.983   3.628   6.073  0.0059  0.1392 -0.1662
 1201loPI    C218534   0.840   3.777   5.730 -0.1051 -0.1471 -0.2465
 1201loPI    C318535   0.684   3.442   5.884 -0.0705 -0.0098  0.0967
 1201loPI   PO418536   1.218   3.666   6.073 -0.2929 -0.0826 -0.2986
 1201loPI   GL118537   1.412   3.588   6.418 -0.0945 -0.0777 -0.0121
 1201loPI   GL218538   1.772   3.783   6.435 -0.0635  0.3904 -0.0253
 1201loPI   C1A18539   1.160   3.477   6.825 -0.0923  0.0642  0.0636
 1201loPI   C2A18540   1.271   3.500   7.187 -0.0574  0.3048  0.4547
 1201loPI   C3A18541   1.166   3.585   7.620 -0.2242 -0.0661  0.3122
 1201loPI   C4A18542   1.220   3.566   7.996 -0.0001  0.0225 -0.1385
 1201loPI   C5A18543   1.276   3.567   8.393  0.2157  0.1502 -0.0519
 1201loPI   C6A18544   1.509   3.493   8.838  0.0127  0.0916 -0.2705
 1201loPI   C1B18545   1.639   3.708   6.873 -0.1745 -0.0887 -0.0134
 1201loPI   C2B18546   1.678   3.859   7.253 -0.0724  0.0957  0.0509
 1201loPI   C3B18547   1.641   3.764   7.687  0.0133 -0.2628  0.0367
 1201loPI   C4B18548   1.661   3.772   8.131 -0.2649 -0.0682 -0.0222
 1202loPI    C118549   4.936  14.928   5.599 -0.1428 -0.0402 -0.0165
 1202loPI    C218550   4.654  15.056   5.346  0.0273  0.1275 -0.1244
 1202loPI    C318551   4.989  14.888   5.205 -0.0013 -0.0388  0.0017
 1202loPI   PO418552   4.857  14.821   5.776 -0.2376 -0.4669  0.0121
 1202loPI   GL118553   4.804  14.944   6.240  0.1071  0.0561 -0.2381
 1202loPI   GL218554   4.818  14.680   6.389 -0.2934 -0.1947 -0.2452
 1202loPI   C1A18555   5.175  14.991   6.483 -0.2142  0.1459 -0.0398
 1202loPI   C2A18556   5.225  15.046   6.888 -0.1899 -0.2865  0.0670
 1202loPI   C3A18557   5.277  15.085   7.268 -0.2064 -0.2402 -0.1302
 1202loPI   C4A18558   5.272  15.018   7.759  0.0400 -0.1873  0.5035
 1202loPI   C5A18559   5.310  15.039   8.239 -0.0141 -0.0798 -0.1350
 1202loPI   C6A18560   5.379  15.399   8.543 -0.0617 -0.1393  0.0769
 1202loPI   C1B18561   4.784  14.803   6.829 -0.1127  0.1156 -0.0218
 1202loPI   C2B18562   4.799  14.817   7.161  0.3478  0.1284  0.0156
 1202loPI   C3B18563   4.837  14.747   7.519  0.1895  0.1095  0.0258
 1202loPI   C4B18564   4.909  14.698   7.912 -0.0281  0.0079 -0.2252
 1203loPI    C118565  15.720   8.503   6.198  0.0509  0.0303  0.1356
 1203loPI    C218566  15.565   8.784   6.436  0.0425  0.2152 -0.0852
 1203loPI    C318567  15.943   8.816   6.311 -0.0103  0.2173 -0.2458
 1203loPI   PO418568  15.689   8.248   6.351  0.1668 -0.0149 -0.0141
 1203loPI   GL118569  15.701   8.210   6.715 -0.2117 -0.2449  0.1226
 1203loPI   GL218570  15.470   8.041   6.791 -0.0660 -0.1033  0.0032
 1203loPI   C1A18571  15.884   8.258   7.060 -0.0177 -0.1105 -0.1274
 1203loPI   C2A18572  15.948   8.274   7.423  0.1549  0.1285 -0.0333
 1203loPI   C3A18573  16.061   8.361   7.809 -0.1735 -0.0600  0.1641
 1203loPI   C4A18574  16.142   8.281   8.259  0.4688  0.1707  0.0250
 1203loPI   C5A18575  16.218   8.168   8.646  0.1189 -0.1508 -0.2131
 1203loPI   C6A18576  16.044   8.344   9.045 -0.1046  0.2626 -0.0954
 1203loPI   C1B18577  15.475   7.937   7.260 -0.0051  0.0078  0.2399
 1203loPI   C2B18578  15.545   8.036   7.710  0.2761  0.0219 -0.3321
 1203loPI   C3B18579  15.666   8.098   8.193 -0.2696  0.0132 -0.3184
 1203loPI   C4B18580  15.704   8.384   8.498  0.0537  0.3010  0.0942
 1204loPI    C118581  12.299  13.279   5.616 -0.0053  0.0985  0.1479
 1204loPI    C218582  12.674  13.218   5.741 -0.0901 -0.2567  0.2377
 1204loPI    C318583  12.608  13.370   5.377  0.1431  0.0540  0.3206
 1204loPI   PO418584  12.131  13.314   5.855  0.1493  0.1589 -0.3999
 1204loPI   GL118585  12.111  13.255   6.315  0.0182 -0.2142  0.1548
 1204loPI   GL218586  11.819  13.155   6.355 -0.0532  0.0494 -0.4392
 1204loPI   C1A18587  12.364  13.053   6.678  0.0537 -0.0801 -0.1242
 1204loPI   C2A18588  12.329  12.989   7.142  0.3782  0.0143 -0.3818
 1204loPI   C3A18589  12.417  13.094   7.628  0.0532  0.1602 -0.0263
 1204loPI   C4A18590  12.444  13.098   8.073  0.1558  0.0138 -0.0997
 1204loPI   C5A18591  12.352  13.438   8.451  0.1184  0.2412 -0.0829
 1204loPI   C6A18592  12.069  13.375   8.776  0.0911  0.1532 -0.1946
 1204loPI   C1B18593  11.945  13.229   6.807 -0.0500  0.1216 -0.1012
 1204loPI   C2B18594  11.902  13.237   7.316 -0.2691 -0.0424 -0.1231
 1204loPI   C3B18595  11.913  13.309   7.707  0.0777  0.3058  0.0376
 1204loPI   C4B18596  11.941  13.256   8.023  0.0681  0.3174  0.0500
 1205loPI    C118597  13.588  11.504   6.158  0.2415 -0.1866 -0.1674
 1205loPI    C218598  13.361  11.804   6.022  0.1672 -0.1112  0.1160
 1205loPI    C318599  13.280  11.427   5.915  0.0315 -0.0657  0.0556
 1205loPI   PO418600  13.765  11.595   6.318  0.0534  0.2325  0.1054
 1205loPI   GL118601  13.594  11.712   6.627 -0.1566  0.3231  0.1193
 1205loPI   GL218602  13.255  11.466   6.513 -0.0257  0.1470 -0.2773
 1205loPI   C1A18603  13.645  11.791   7.064 -0.1508  0.1501  0.0426
 1205loPI   C2A18604  13.717  11.807   7.499 -0.0261 -0.2313 -0.1306
 1205loPI   C3A18605  13.757  11.728   7.931 -0.0066 -0.0428  0.3187
 1205loPI   C4A18606  13.804  11.828   8.340  0.0090 -0.0260 -0.1857
 1205loPI   C5A18607  13.583  11.692   8.724  0.0828 -0.0921  0.0880
 1205loPI   C6A18608  13.632  11.453   9.033 -0.0711  0.2432 -0.2599
 1205loPI   C1B18609  13.367  11.378   6.939  0.0410  0.0666 -0.1167
 1205loPI   C2B18610  13.421  11.402   7.361  0.2590 -0.2869 -0.0089
 1205loPI   C3B18611  13.305  11.521   7.805 -0.1076 -0.1771  0.3335
 1205loPI   C4B18612  13.337  11.568   8.232 -0.1580  0.0373 -0.0379
 1206loPI    C118613   6.292   0.438   6.178 -0.3421  0.3135 -0.1299
 1206loPI    C218614   5.992   0.200   6.293  0.0314 -0.1679 -0.1166
 1206loPI    C318615   6.118   0.195   5.913 -0.0371  0.1057 -0.1454
 1206loPI   PO418616   6.471   0.422   6.361  0.1366  0.0588 -0.2483
 1206loPI   GL118617   6.765   0.572   6.574  0.0947  0.0215 -0.0402
 1206loPI   GL218618   6.540   0.747   6.765 -0.2152  0.0970 -0.0597
 1206loPI   C1A18619   6.974   0.374   6.889 -0.1251 -0.1728 -0.0591
 1206loPI   C2A18620   7.033   0.384   7.247 -0.3292 -0.1433  0.0980
 1206loPI   C3A18621   7.185   0.375   7.671  0.1445 -0.0266  0.2822
 1206loPI   C4A18622   6.892   0.362   8.010  0.0186  0.3624 -0.0167
 1206loPI   C5A18623   7.032   0.482   8.390 -0.1466 -0.0035  0.0116
 1206loPI   C6A18624   6.837   0.560   8.810 -0.0875  0.1151  0.0146
 1206loPI   C1B18625   6.606   0.601   7.187  0.2406 -0.3025  0.3458
 1206loPI   C2B18626   6.594   0.627   7.615 -0.1048  0.0885 -0.1432
 1206loPI   C3B18627   6.534   0.645   8.072  0.0757 -0.2834 -0.0996
 1206loPI   C4B18628   6.586   0.685   8.397 -0.3244 -0.0960  0.3703
 1207loPI    C118629   6.642   2.408   5.707  0.0381  0.2222  0.0148
 1207loPI    C218630   6.510   2.758   5.565 -0.0318  0.1282 -0.1549
 1207loPI    C318631   6.556   2.446   5.318 -0.0415 -0.0040  0.0082
 1207loPI   PO418632   6.724   2.449   5.877  0.1352 -0.0768 -0.1298
 1207loPI   GL118633   6.605   2.482   6.355  0.0494 -0.2903  0.1085
 1207loPI   GL218634   6.945   2.335   6.396 -0.0459 -0.2307  0.0080
 1207loPI   C1A18635   6.522   2.634   6.715 -0.1616 -0.1575  0.1061
 1207loPI   C2A18636   6.589   2.635   7.125  0.1641 -0.1438 -0.0153
 1207loPI   C3A18637   6.638   2.635   7.630 -0.2848  0.0543 -0.0961
 1207loPI   C4A18638   6.552   2.665   8.147 -0.1648  0.1340  0.1024
 1207loPI   C5A18639   6.638   2.703   8.587 -0.0913  0.5232  0.3011
 1207loPI   C6A18640   6.884   3.163   8.681 -0.0828  0.1093 -0.1791
 1207loPI   C1B18641   6.938   2.306   6.821  0.2260 -0.0334 -0.1291
 1207loPI   C2B18642   7.050   2.425   7.277  0.2716  0.3689  0.1130
 1207loPI   C3B18643   7.080   2.375   7.714 -0.4199 -0.0825  0.0040
 1207loPI   C4B18644   7.055   2.553   8.203 -0.2698  0.1014  0.1709
 1208loPI    C118645  10.272  12.067   5.576 -0.2073  0.0658 -0.2295
 1208loPI    C218646  10.603  12.235   5.428  0.0637 -0.0635  0.2119
 1208loPI    C318647  10.600  11.845   5.520 -0.3218 -0.1405 -0.0989
 1208loPI   PO418648  10.251  12.165   5.798  0.2691  0.3448 -0.0146
 1208loPI   GL118649  10.242  12.327   6.233  0.2393 -0.1243 -0.0822
 1208loPI   GL218650  10.553  12.382   6.360 -0.0925  0.0730  0.1272
 1208loPI   C1A18651  10.134  12.107   6.665 -0.1870  0.1632 -0.2186
 1208loPI   C2A18652  10.126  12.213   7.097  0.3298  0.2410 -0.2433
 1208loPI   C3A18653  10.256  12.229   7.511  0.2568  0.0057 -0.2421
 1208loPI   C4A18654  10.137  12.205   7.914  0.1780  0.0727 -0.0887
 1208loPI   C5A18655  10.133  12.218   8.254 -0.1852  0.0907 -0.2944
 1208loPI   C6A18656   9.996  12.257   8.640  0.2730 -0.2928 -0.0290
 1208loPI   C1B18657  10.545  12.342   6.903 -0.1999  0.2550  0.2495
 1208loPI   C2B18658  10.644  12.468   7.350  0.2869 -0.0552 -0.1951
 1208loPI   C3B18659  10.606  12.459   7.768  0.0929  0.0579  0.2671
 1208loPI   C4B18660  10.614  12.403   8.233 -0.1444 -0.2270 -0.1683
 1209loPI    C118661  14.736  10.942   6.144 -0.1780 -0.0793 -0.1684
 1209loPI    C218662  14.807  11.086   5.778 -0.2850  0.0293 -0.1472
 1209loPI    C318663  14.625  10.732   5.822 -0.0138 -0.1193 -0.1995
 1209loPI   PO418664  14.917  10.923   6.292  0.0207  0.1325 -0.1839
 1209loPI   GL118665  15.052  10.656   6.543 -0.1296  0.2840  0.3076
 1209loPI   GL218666  15.046  10.824   6.780 -0.1134 -0.3165 -0.2625
 1209loPI   C1A18667  15.038  10.342   6.858  0.2168  0.2488 -0.2586
 1209loPI   C2A18668  15.028  10.334   7.366 -0.0607 -0.4202  0.1048
 1209loPI   C3A18669  15.106  10.426   7.762 -0.0423  0.1816  0.0051
 1209loPI   C4A18670  15.104  10.357   8.243  0.1341  0.3068 -0.1693
 1209loPI   C5A18671  15.000  10.359   8.645 -0.1932  0.1200 -0.2766
 1209loPI   C6A18672  14.681  10.420   9.017  0.0494 -0.0155 -0.0626
 1209loPI   C1B18673  15.024  10.867   7.259 -0.0712 -0.1414  0.0940
 1209loPI   C2B18674  15.030  10.918   7.690 -0.0670 -0.0927  0.2022
 1209loPI   C3B18675  15.095  10.938   8.090  0.2233 -0.3338 -0.1096
 1209loPI   C4B18676  15.107  10.839   8.504 -0.2769 -0.0228 -0.0488
 1210loPI    C118677   5.069   0.065   6.042 -0.0169  0.0241 -0.0153
 1210loPI    C218678   5.118   0.248   5.689 -0.2475  0.1874  0.0351
 1210loPI    C318679   5.213  -0.139   5.729  0.0796  0.2488 -0.1192
 1210loPI   PO418680   5.140   0.232   6.195 -0.0802  0.3724  0.1245
 1210loPI   GL118681   5.206   0.168   6.713  0.2377  0.1583 -0.1184
 1210loPI   GL218682   5.090  -0.107   6.572  0.2392 -0.0728 -0.1832
 1210loPI   C1A18683   5.308   0.199   7.148  0.0154  0.2404  0.0438
 1210loPI   C2A18684   5.390  -0.096   7.501  0.2069 -0.1310 -0.0240
 1210loPI   C3A18685   5.334  -0.198   7.866  0.1121  0.3359 -0.3160
 1210loPI   C4A18686   5.223   0.008   8.281 -0.1407 -0.2318 -0.0399
 1210loPI   C5A18687   5.168   0.490   8.487 -0.2105 -0.0607 -0.0228
 1210loPI   C6A18688   5.372   0.600   8.815  0.0522  0.3915 -0.1708
 1210loPI   C1B18689   5.181  -0.255   7.012 -0.3925  0.1216  0.1712
 1210loPI   C2B18690   5.278  -0.577   7.328 -0.0111 -0.1891 -0.1087
 1210loPI   C3B18691   5.319  -0.737   7.747  0.1711 -0.3256  0.1364
 1210loPI   C4B18692   5.274  -0.711   8.248  0.1225 -0.1534  0.0202
 1211loPI    C118693   3.499   8.781   5.686  0.0255  0.0131  0.1409
 1211loPI    C218694   3.153   8.914   5.536  0.0229 -0.2558 -0.1021
 1211loPI    C318695   3.485   8.926   5.313  0.1814  0.0329  0.1422
 1211loPI   PO418696   3.427   8.849   6.000  0.0979  0.6605 -0.3185
 1211loPI   GL118697   3.652   8.755   6.373 -0.0373  0.4040  0.1231
 1211loPI   GL218698   3.345   8.913   6.511 -0.1262  0.2074  0.2199
 1211loPI   C1A18699   3.770   8.831   6.815 -0.2959  0.2521  0.1641
 1211loPI   C2A18700   3.727   8.733   7.245  0.2316 -0.0809 -0.0418
 1211loPI   C3A18701   3.709   8.740   7.699  0.0374 -0.1511 -0.0960
 1211loPI   C4A18702   3.728   8.897   8.140  0.0273  0.1369  0.1694
 1211loPI   C5A18703   3.936   8.968   8.526  0.2887  0.0811 -0.3596
 1211loPI   C6A18704   4.294   9.041   8.970  0.2020 -0.1864 -0.2342
 1211loPI   C1B18705   3.232   9.015   6.976 -0.2265 -0.0338 -0.0289
 1211loPI   C2B18706   3.272   9.033   7.470  0.1298  0.0697  0.1809
 1211loPI   C3B18707   3.340   9.071   7.908  0.1126  0.0109  0.4263
 1211loPI   C4B18708   3.201   9.048   8.286 -0.1039  0.2360 -0.3232
 1212loPI    C118709  12.275   1.980   5.780 -0.1140 -0.0701  0.1054
 1212loPI    C218710  12.614   1.917   5.577 -0.0952 -0.3315  0.2138
 1212loPI    C318711  12.262   1.818   5.414 -0.1250 -0.0237  0.0853
 1212loPI   PO418712  12.342   1.890   6.013  0.1971  0.0485 -0.0084
 1212loPI   GL118713  12.085   1.953   6.309  0.0002 -0.3065 -0.2135
 1212loPI   GL218714  11.946   1.632   6.439  0.2083  0.2133  0.0644
 1212loPI   C1A18715  12.309   1.884   6.634  0.2865 -0.2205  0.0927
 1212loPI   C2A18716  12.278   1.908   7.087 -0.0063  0.2328 -0.2546
 1212loPI   C3A18717  12.414   1.887   7.545  0.2084 -0.0492 -0.0405
 1212loPI   C4A18718  12.257   1.970   8.011 -0.1016  0.0478  0.1241
 1212loPI   C5A18719  12.373   1.876   8.386  0.2136 -0.0923  0.3175
 1212loPI   C6A18720  12.253   1.429   8.713 -0.2869 -0.2396  0.0788
 1212loPI   C1B18721  11.897   1.687   6.874  0.0243 -0.2160  0.0694
 1212loPI   C2B18722  11.875   1.665   7.301 -0.1028  0.0831  0.0467
 1212loPI   C3B18723  11.939   1.685   7.695 -0.1550 -0.2367  0.0191
 1212loPI   C4B18724  11.861   1.725   8.132  0.1850 -0.2547 -0.0455
 1213loPI    C118725   1.620   3.118   5.569 -0.0503 -0.1984 -0.0618
 1213loPI    C218726   1.821   2.884   5.314 -0.0632 -0.3639  0.0775
 1213loPI    C318727   1.439   2.978   5.241 -0.0194 -0.2781 -0.0452
 1213loPI   PO418728   1.676   2.941   5.794 -0.3795  0.0199  0.0282
 1213loPI   GL118729   1.824   2.929   6.269  0.1375  0.1218  0.1162
 1213loPI   GL218730   1.737   3.249   6.451  0.2053 -0.2808 -0.1977
 1213loPI   C1A18731   1.729   2.775   6.697  0.0652 -0.0837 -0.0611
 1213loPI   C2A18732   1.683   2.860   7.262 -0.2694 -0.1849  0.1623
 1213loPI   C3A18733   1.659   2.759   7.654 -0.0897 -0.1431 -0.1808
 1213loPI   C4A18734   1.618   2.765   8.145  0.0597 -0.2908 -0.1136
 1213loPI   C5A18735   1.554   2.723   8.537  0.2329  0.2564 -0.4526
 1213loPI   C6A18736   1.224   2.707   8.856 -0.0670  0.1913 -0.1697
 1213loPI   C1B18737   1.656   3.220   6.855 -0.3360 -0.1779  0.1509
 1213loPI   C2B18738   1.760   3.329   7.283  0.2922  0.3789 -0.2335
 1213loPI   C3B18739   1.753   3.246   7.739  0.0399  0.1845  0.1682
 1213loPI   C4B18740   1.666   3.260   8.095 -0.1086 -0.1787  0.2138
 1214POPI    C118741  13.342  10.936   5.960  0.2783  0.0814  0.0064
 1214POPI    C218742  13.649  11.112   5.773  0.2301 -0.1991 -0.3489
 1214POPI    C318743  13.315  11.027   5.571 -0.1051  0.1412  0.0432
 1214POPI   PO418744  13.447  10.989   6.249  0.0885  0.1180 -0.0459
 1214POPI   GL118745  13.246  11.013   6.683 -0.3135 -0.0665  0.3850
 1214POPI   GL218746  13.077  10.721   6.571  0.0349 -0.1354  0.2894
 1214POPI   C1A18747  13.387  10.852   6.985  0.0935 -0.3604  0.1871
 1214POPI   D2A18748  13.285  10.750   7.417 -0.0741 -0.2867  0.0469
 1214POPI   C3A18749  13.327  11.017   7.819 -0.2893  0.0021  0.0967
 1214POPI   C4A18750  13.333  11.077   8.273 -0.3464  0.1906  0.4520
 1214POPI   C1B18751  12.877  10.598   6.880 -0.3359  0.0071 -0.1959
 1214POPI   C2B18752  12.804  10.602   7.290 -0.0279  0.2384 -0.0448
 1214POPI   C3B18753  12.686  10.617   7.657  0.1196 -0.0290  0.1282
 1214POPI   C4B18754  12.876  10.811   7.992 -0.0425 -0.0705  0.1495
 1215POPI    C118755   2.750  13.306   6.019 -0.1965  0.0998  0.1662
 1215POPI    C218756   2.651  13.586   5.752 -0.3932 -0.1913 -0.0736
 1215POPI    C318757   2.981  13.367   5.699 -0.0687  0.1970  0.2763
 1215POPI   PO418758   2.641  13.474   6.283 -0.0937  0.3197 -0.0595
 1215POPI   GL118759   2.870  13.506   6.593 -0.2183 -0.0011  0.3500
 1215POPI   GL218760   2.935  13.235   6.781 -0.2147  0.1916  0.0010
 1215POPI   C1A18761   2.836  13.789   6.891 -0.2274  0.0403  0.1493
 1215POPI   D2A18762   2.556  13.825   7.211  0.0969 -0.0929  0.0441
 1215POPI   C3A18763   2.628  13.894   7.618  0.1218 -0.0989 -0.1962
 1215POPI   C4A18764   2.640  13.983   7.947 -0.0033 -0.0406  0.0544
 1215POPI   C1B18765   3.018  13.233   7.167 -0.0389  0.3832  0.1689
 1215POPI   C2B18766   3.056  13.229   7.525  0.0238 -0.1807  0.1415
 1215POPI   C3B18767   3.052  13.302   7.972 -0.1862  0.1274 -0.0932
 1215POPI   C4B18768   3.114  13.243   8.409  0.0137 -0.0987  0.1439
 1216POPI    C118769  17.187   8.837   6.209 -0.1107  0.1114 -0.0441
 1216POPI    C218770  17.224   8.508   5.983  0.0050 -0.0204  0.1637
 1216POPI    C318771  16.911   8.752   5.931  0.1886  0.1187 -0.3511
 1216POPI   PO418772  17.302   8.796   6.400  0.0468 -0.0216 -0.2379
 1216POPI   GL118773  17.053   8.576   6.814  0.1344 -0.2592  0.2899
 1216POPI   GL218774  17.363   8.687   6.866 -0.0015  0.0548  0.1172
 1216POPI   C1A18775  16.948   8.833   7.111  0.2242 -0.3394  0.3288
 1216POPI   D2A18776  16.921   8.920   7.481 -0.0753 -0.2125  0.0396
 1216POPI   C3A18777  16.974   8.947   7.864 -0.3434  0.3542  0.0326
 1216POPI   C4A18778  16.875   9.003   8.254  0.0535  0.1429 -0.2825
 1216POPI   C1B18779  17.406   8.692   7.370  0.0262 -0.1990  0.0464
 1216POPI   C2B18780  17.455   8.732   7.844  0.0738  0.1612 -0.2092
 1216POPI   C3B18781  17.546   8.801   8.225  0.2047  0.0764 -0.0368
 1216POPI   C4B18782  17.258   8.892   8.567 -0.0397 -0.2612  0.0912
 1217POPI    C118783  13.649  10.625   5.629  0.0174  0.0910  0.0283
 1217POPI    C218784  14.027  10.564   5.511  0.0062  0.0000  0.0391
 1217POPI    C318785  13.729  10.351   5.349 -0.0212 -0.0489  0.1532
 1217POPI   PO418786  13.699  10.639   5.878  0.0160  0.1587 -0.1752
 1217POPI   GL118787  13.717  10.488   6.204  0.2841 -0.1080 -0.2842
 1217POPI   GL218788  13.926  10.615   6.494  0.0064  0.1418 -0.3250
 1217POPI   C1A18789  13.450  10.406   6.606 -0.0405 -0.1705 -0.1266
 1217POPI   D2A18790  13.295  10.383   7.070 -0.1509  0.1537  0.1264
 1217POPI   C3A18791  13.244  10.287   7.466  0.0303  0.3294  0.0198
 1217POPI   C4A18792  13.244  10.418   7.853 -0.0774 -0.0204  0.1859
 1217POPI   C1B18793  13.808  10.568   7.024 -0.1374 -0.2351 -0.3838
 1217POPI   C2B18794  13.782  10.571   7.377  0.0115 -0.0492 -0.1363
 1217POPI   C3B18795  13.702  10.630   7.790 -0.0840  0.0121  0.0686
 1217POPI   C4B18796  13.756  10.741   8.236 -0.1197  0.0104 -0.0349
 1218POPI    C118797   7.246   5.745   6.139  0.1870 -0.1185  0.1583
 1218POPI    C218798   7.306   6.135   6.074  0.2017 -0.1226  0.1473
 1218POPI    C318799   7.285   5.882   5.765  0.0145 -0.1049  0.1444
 1218POPI   PO418800   7.095   5.740   6.342  0.0556 -0.3062 -0.0605
 1218POPI   GL118801   7.160   5.919   6.741 -0.0804  0.0648 -0.4569
 1218POPI   GL218802   6.960   6.037   6.862  0.1076  0.0464 -0.4105
 1218POPI   C1A18803   7.320   5.900   7.170  0.2218 -0.1848 -0.0086
 1218POPI   D2A18804   7.420   5.793   7.589  0.1046 -0.1015  0.0075
 1218POPI   C3A18805   7.450   5.810   7.942  0.0883 -0.1221  0.4471
 1218POPI   C4A18806   7.527   5.888   8.381  0.3430 -0.1300  0.0775
 1218POPI   C1B18807   6.872   6.046   7.206 -0.1178 -0.0482 -0.0898
 1218POPI   C2B18808   7.006   6.047   7.597 -0.0537  0.0060 -0.0339
 1218POPI   C3B18809   7.023   6.124   8.010 -0.0923 -0.1850 -0.4230
 1218POPI   C4B18810   7.050   6.088   8.475 -0.0421 -0.0871 -0.0718
 1219POPI    C118811  10.362  10.874   6.024 -0.1479 -0.4158  0.0390
 1219POPI    C218812  10.666  10.624   5.949  0.0533 -0.1493 -0.0518
 1219POPI    C318813  10.641  10.973   5.754 -0.3075 -0.1624 -0.0367
 1219POPI   PO418814  10.371  10.956   6.238  0.0186  0.1333  0.0927
 1219POPI   GL118815  10.484  10.905   6.604 -0.0637  0.1440  0.0629
 1219POPI   GL218816  10.140  11.118   6.756 -0.4065 -0.0072  0.0098
 1219POPI   C1A18817  10.509  10.883   7.094 -0.1228 -0.1260  0.0980
 1219POPI   D2A18818  10.474  10.948   7.607 -0.1163  0.2566  0.1431
 1219POPI   C3A18819  10.578  10.830   7.959  0.0092 -0.2491  0.1433
 1219POPI   C4A18820  10.443  10.762   8.428  0.0692  0.4940  0.2112
 1219POPI   C1B18821  10.151  11.164   7.207 -0.0157 -0.0729  0.0875
 1219POPI   C2B18822  10.059  11.222   7.639  0.1690 -0.0783 -0.2042
 1219POPI   C3B18823  10.102  11.205   8.097 -0.0013 -0.1044 -0.1227
 1219POPI   C4B18824  10.298  11.218   8.499 -0.1660  0.0706 -0.0736
 1220POPI    C118825   1.043  10.758   5.710 -0.0008  0.0888  0.2724
 1220POPI    C218826   1.258  10.965   5.444  0.0072  0.2219  0.3810
 1220POPI    C318827   1.076  10.626   5.334 -0.0003  0.2823  0.2031
 1220POPI   PO418828   1.150  10.801   5.975  0.1472 -0.2741 -0.0196
 1220POPI   GL118829   1.100  10.722   6.396  0.1662 -0.0124  0.0002
 1220POPI   GL218830   0.806  10.828   6.554 -0.1466  0.0616 -0.0834
 1220POPI   C1A18831   1.300  10.900   6.755  0.3317 -0.3311  0.2235
 1220POPI   D2A18832   1.265  11.010   7.185  0.1545  0.0098 -0.1289
 1220POPI   C3A18833   1.381  11.045   7.543  0.1026  0.1897 -0.0874
 1220POPI   C4A18834   1.412  11.116   8.027 -0.1494 -0.0534  0.2029
 1220POPI   C1B18835   0.867  10.764   6.930 -0.0923 -0.1195  0.3255
 1220POPI   C2B18836   0.889  10.737   7.438  0.0128 -0.1786  0.3888
 1220POPI   C3B18837   0.941  10.815   7.873  0.1337  0.1596  0.0153
 1220POPI   C4B18838   0.902  10.846   8.336  0.1454 -0.2895 -0.2082
 1221POPI    C118839   2.818   9.309   5.741  0.0316 -0.0647 -0.1334
 1221POPI    C218840   2.733   9.530   5.419  0.2667 -0.0030 -0.1553
 1221POPI    C318841   2.699   9.131   5.403 -0.3754  0.0368 -0.0485
 1221POPI   PO418842   2.744   9.424   5.921 -0.0113  0.3932  0.0993
 1221POPI   GL118843   2.742   9.525   6.362 -0.1635  0.3818 -0.1672
 1221POPI   GL218844   2.821   9.752   6.452  0.2443 -0.3017  0.1714
 1221POPI   C1A18845   2.446   9.465   6.705 -0.1563  0.1094 -0.0214
 1221POPI   D2A18846   2.361   9.611   7.083  0.0077 -0.1052  0.0918
 1221POPI   C3A18847   2.259   9.643   7.570  0.2840  0.1808  0.1382
 1221POPI   C4A18848   2.333   9.596   8.012 -0.1445 -0.0522 -0.2379
 1221POPI   C1B18849   2.776   9.779   6.899 -0.0301 -0.0523 -0.0215
 1221POPI   C2B18850   2.788   9.824   7.421 -0.0801  0.3132 -0.1866
 1221POPI   C3B18851   2.807   9.877   7.971  0.0124  0.2030  0.1226
 1221POPI   C4B18852   2.737   9.882   8.455  0.0710 -0.1776 -0.1014
 1222POPI    C118853   8.620   8.736   5.966  0.0006 -0.0657  0.0218
 1222POPI    C218854   8.384   8.588   5.679 -0.0977  0.1543 -0.0129
 1222POPI    C318855   8.452   8.982   5.699  0.0367  0.1232  0.1705
 1222POPI   PO418856   8.460   8.720   6.207 -0.1070 -0.0255  0.2202
 1222POPI   GL118857   8.523   8.592   6.603 -0.0816 -0.3118 -0.1697
 1222POPI   GL218858   8.173   8.472   6.637 -0.1278 -0.2431 -0.0209
 1222POPI   C1A18859   8.776   8.776   6.969 -0.0802  0.0811 -0.1144
 1222POPI   D2A18860   8.823   8.817   7.395 -0.0308 -0.3140 -0.2972
 1222POPI   C3A18861   8.700   8.736   7.703 -0.0351  0.2272  0.0933
 1222POPI   C4A18862   8.665   8.716   8.184 -0.1493 -0.1339 -0.3492
 1222POPI   C1B18863   8.268   8.469   7.087 -0.1050 -0.0565 -0.2710
 1222POPI   C2B18864   8.276   8.495   7.589 -0.1631  0.1908  0.1235
 1222POPI   C3B18865   8.280   8.424   7.986  0.2017 -0.3971 -0.0911
 1222POPI   C4B18866   8.264   8.493   8.384  0.0604  0.2489 -0.1176
 1223POPI    C118867  15.293   8.354   5.902 -0.0507 -0.1479 -0.1820
 1223POPI    C218868  15.077   8.238   5.586  0.0875 -0.2435 -0.2425
 1223POPI    C318869  15.442   8.394   5.533  0.0651 -0.1536 -0.1364
 1223POPI   PO418870  15.229   8.472   6.129  0.0236  0.0701  0.3065
 1223POPI   GL118871  15.140   8.456   6.547  0.0978 -0.1070 -0.1605
 1223POPI   GL218872  15.091   8.824   6.639 -0.1991 -0.0077  0.0014
 1223POPI   C1A18873  15.464   8.536   6.900 -0.3768  0.0928  0.2107
 1223POPI   D2A18874  15.443   8.493   7.375 -0.0210  0.3717  0.2144
 1223POPI   C3A18875  15.534   8.569   7.764 -0.0268 -0.1488  0.0874
 1223POPI   C4A18876  15.588   8.747   8.144 -0.2427 -0.0888  0.0556
 1223POPI   C1B18877  14.999   8.726   7.034  0.2255 -0.2728  0.0707
 1223POPI   C2B18878  14.955   8.812   7.520  0.3492 -0.2187 -0.1055
 1223POPI   C3B18879  15.134   8.931   7.952  0.3666  0.0304 -0.0444
 1223POPI   C4B18880  15.252   9.037   8.349  0.1262  0.1059 -0.0016
 1224POPI    C118881   9.013   2.627   5.989 -0.0497  0.0614  0.2236
 1224POPI    C218882   9.132   2.756   5.630 -0.0013 -0.0516  0.1985
 1224POPI    C318883   8.764   2.842   5.762 -0.0247 -0.0230  0.1155
 1224POPI   PO418884   9.238   2.424   6.024  0.0334  0.2252 -0.1169
 1224POPI   GL118885   9.577   2.523   6.331 -0.1654  0.2267 -0.1826
 1224POPI   GL218886   9.825   2.689   6.327 -0.1637 -0.1669  0.0739
 1224POPI   C1A18887   9.650   2.395   6.671  0.1333  0.2242  0.2164
 1224POPI   D2A18888   9.670   2.500   7.096  0.1455  0.2141  0.1689
 1224POPI   C3A18889   9.680   2.512   7.533  0.0204 -0.0094 -0.0350
 1224POPI   C4A18890   9.724   2.556   8.012  0.0158  0.0031 -0.0394
 1224POPI   C1B18891  10.004   2.757   6.674 -0.0458  0.0945 -0.1153
 1224POPI   C2B18892  10.103   2.726   7.083  0.3025 -0.1535 -0.2049
 1224POPI   C3B18893  10.181   2.717   7.496  0.0423 -0.0187 -0.0324
 1224POPI   C4B18894  10.182   2.707   8.022 -0.1723 -0.0662  0.0205
 1225POPI    C118895  15.093  14.329   5.610 -0.0099  0.3817  0.0280
 1225POPI    C218896  15.083  14.649   5.369  0.1365  0.3002 -0.0886
 1225POPI    C318897  14.837  14.341   5.303  0.2855  0.2104 -0.2317
 1225POPI   PO418898  15.104  14.359   5.911 -0.3970  0.0071 -0.0227
 1225POPI   GL118899  14.878  14.502   6.245 -0.2197 -0.0694 -0.0422
 1225POPI   GL218900  14.691  14.683   6.175  0.1318  0.0062 -0.4253
 1225POPI   C1A18901  14.909  14.519   6.681 -0.1593 -0.0585 -0.0860
 1225POPI   D2A18902  15.004  14.568   7.121  0.1031 -0.0634 -0.3063
 1225POPI   C3A18903  15.051  14.586   7.557  0.0520  0.0612 -0.1389
 1225POPI   C4A18904  15.085  14.572   7.928 -0.0730  0.1461 -0.1513
 1225POPI   C1B18905  14.552  14.864   6.474 -0.1079  0.0439 -0.0313
 1225POPI   C2B18906  14.594  14.857   6.886  0.2703  0.1588 -0.1268
 1225POPI   C3B18907  14.620  14.803   7.299 -0.0526 -0.1745 -0.2114
 1225POPI   C4B18908  14.625  14.839   7.716 -0.0316  0.2745  0.0757
 1226POPI    C118909  13.534  13.856   5.803 -0.0538  0.0513 -0.1373
 1226POPI    C218910  13.589  13.520   5.593 -0.0731  0.0254 -0.1010
 1226POPI    C318911  13.783  13.854   5.490 -0.0095 -0.0116 -0.1018
 1226POPI   PO418912  13.600  13.845   6.105  0.2027 -0.1084 -0.0693
 1226POPI   GL118913  13.451  14.120   6.357 -0.1465 -0.2655  0.1814
 1226POPI   GL218914  13.120  14.028   6.257 -0.0272  0.1065 -0.0191
 1226POPI   C1A18915  13.298  14.094   6.788  0.1787  0.1850 -0.0837
 1226POPI   D2A18916  13.257  14.037   7.169 -0.1390 -0.2612 -0.1057
 1226POPI   C3A18917  13.293  14.031   7.536 -0.3016  0.1819 -0.0687
 1226POPI   C4A18918  13.306  14.081   7.919  0.0668  0.0204  0.2747
 1226POPI   C1B18919  12.863  14.268   6.596  0.1102  0.0037 -0.0753
 1226POPI   C2B18920  12.831  14.322   7.012 -0.2264 -0.0739  0.2711
 1226POPI   C3B18921  12.710  14.238   7.362 -0.0495  0.4721 -0.0673
 1226POPI   C4B18922  12.853  14.318   7.693 -0.0242 -0.0799 -0.1972
 1227POPI    C118923  11.553   8.901   5.798 -0.2497 -0.1882 -0.0226
 1227POPI    C218924  11.728   8.555   5.698  0.0103 -0.0363 -0.1034
 1227POPI    C318925  11.769   8.876   5.463 -0.3580  0.0114 -0.1091
 1227POPI   PO418926  11.635   9.020   6.108 -0.0938 -0.2684 -0.0220
 1227POPI   GL118927  11.611   8.808   6.506  0.1831  0.0895  0.0098
 1227POPI   GL218928  11.822   8.847   6.554  0.0948  0.0222  0.2345
 1227POPI   C1A18929  11.271   8.778   6.781 -0.3528  0.2682  0.1760
 1227POPI   D2A18930  11.450   8.766   7.161  0.1113 -0.0736  0.2107
 1227POPI   C3A18931  11.466   8.886   7.663  0.0602 -0.0782  0.3005
 1227POPI   C4A18932  11.468   8.847   8.108 -0.1377  0.2930  0.1733
 1227POPI   C1B18933  11.847   9.006   6.961  0.0487 -0.1023  0.0602
 1227POPI   C2B18934  11.912   9.105   7.431 -0.1550 -0.0579 -0.3986
 1227POPI   C3B18935  11.891   9.106   7.943 -0.4775  0.0772 -0.2810
 1227POPI   C4B18936  11.969   8.942   8.420 -0.1916 -0.2179  0.0197
 1228POPI    C118937  13.977   3.365   5.692  0.0423  0.0967  0.1092
 1228POPI    C218938  13.679   3.534   5.898  0.2020  0.3103  0.1679
 1228POPI    C318939  13.746   3.640   5.518  0.1327  0.1790  0.1184
 1228POPI   PO418940  14.160   3.342   5.903 -0.1499 -0.3876 -0.2076
 1228POPI   GL118941  14.200   3.116   6.324  0.0464 -0.3368  0.0870
 1228POPI   GL218942  14.171   2.852   6.360  0.0845  0.0125 -0.1316
 1228POPI   C1A18943  14.552   3.219   6.665 -0.1768  0.0006 -0.1696
 1228POPI   D2A18944  14.547   3.184   7.040  0.1769  0.0331 -0.2447
 1228POPI   C3A18945  14.490   3.199   7.513  0.1612 -0.0760 -0.0723
 1228POPI   C4A18946  14.454   3.270   7.952 -0.1202  0.0421  0.0604
 1228POPI   C1B18947  14.061   2.903   6.835 -0.2624  0.1039  0.0217
 1228POPI   C2B18948  14.107   2.877   7.351  0.2583 -0.2546  0.3879
 1228POPI   C3B18949  14.043   3.027   7.740  0.0171  0.5009 -0.1256
 1228POPI   C4B18950  14.048   2.952   8.178  0.2082 -0.1012 -0.1482
 1229POPI    C118951   2.768   4.960   5.771  0.1521  0.0194 -0.1237
 1229POPI    C218952   2.744   4.561   5.753  0.2515  0.0000  0.1355
 1229POPI    C318953   2.695   4.779   5.421 -0.0314 -0.2141  0.0321
 1229POPI   PO418954   2.749   5.014   5.963 -0.0699 -0.1317  0.3463
 1229POPI   GL118955   2.828   5.101   6.402  0.2571  0.0358  0.0255
 1229POPI   GL218956   2.512   5.266   6.621 -0.0307 -0.1129  0.0038
 1229POPI   C1A18957   2.935   5.007   6.828 -0.1597 -0.1443  0.0851
 1229POPI   D2A18958   2.891   5.211   7.213  0.0432  0.0093 -0.0610
 1229POPI   C3A18959   2.953   5.222   7.663 -0.0677  0.4642  0.0538
 1229POPI   C4A18960   2.953   5.303   8.019  0.1448  0.0511  0.0961
 1229POPI   C1B18961   2.426   5.406   7.127 -0.0008  0.4432  0.2567
 1229POPI   C2B18962   2.472   5.428   7.552 -0.2109 -0.0075  0.1264
 1229POPI   C3B18963   2.495   5.525   7.980 -0.2320  0.0115 -0.3464
 1229POPI   C4B18964   2.539   5.466   8.378  0.0340 -0.1425  0.2337
 1230POPI    C118965   3.936  10.663   5.959  0.2391 -0.0635 -0.2477
 1230POPI    C218966   3.890  10.944   5.679  0.1015  0.0343 -0.1281
 1230POPI    C318967   3.701  10.594   5.643 -0.2911  0.2191  0.0712
 1230POPI   PO418968   3.847  10.725   6.202  0.1310 -0.3338  0.1732
 1230POPI   GL118969   4.030  10.827   6.560  0.2725 -0.0371  0.0230
 1230POPI   GL218970   4.273  10.934   6.611 -0.0073 -0.2736  0.3696
 1230POPI   C1A18971   3.996  10.676   6.964  0.2160  0.1094  0.5043
 1230POPI   D2A18972   4.161  10.595   7.344 -0.1566 -0.0362 -0.2646
 1230POPI   C3A18973   4.036  10.683   7.712  0.1721  0.2510 -0.1378
 1230POPI   C4A18974   3.960  10.666   8.188 -0.0763 -0.1587  0.2699
 1230POPI   C1B18975   4.456  10.912   7.046 -0.0830 -0.0334 -0.1307
 1230POPI   C2B18976   4.478  10.979   7.488 -0.0663  0.4220 -0.2676
 1230POPI   C3B18977   4.447  10.909   7.957  0.2121 -0.2579 -0.0617
 1230POPI   C4B18978   4.415  10.803   8.395 -0.1183 -0.0837  0.0653
 1231POPI    C118979   9.723   7.516   6.080  0.0786  0.1597 -0.0733
 1231POPI    C218980  10.035   7.284   5.986  0.2210  0.2865  0.0802
 1231POPI    C318981   9.842   7.486   5.699 -0.0223 -0.1625 -0.0821
 1231POPI   PO418982   9.824   7.616   6.364  0.1585  0.0444  0.2023
 1231POPI   GL118983   9.854   7.355   6.775  0.2365  0.0600 -0.1813
 1231POPI   GL218984  10.109   7.500   6.867  0.0112  0.1709  0.3976
 1231POPI   C1A18985   9.602   7.264   7.201 -0.0944 -0.2005 -0.1666
 1231POPI   D2A18986   9.537   7.125   7.606  0.0044 -0.0138  0.2674
 1231POPI   C3A18987   9.628   7.208   8.059  0.2518  0.2099  0.6051
 1231POPI   C4A18988   9.684   7.264   8.500  0.2178  0.1115 -0.1545
 1231POPI   C1B18989  10.091   7.557   7.287 -0.1939 -0.2411 -0.1241
 1231POPI   C2B18990  10.072   7.591   7.640 -0.4492 -0.2522  0.2489
 1231POPI   C3B18991  10.116   7.570   8.010 -0.0254  0.3005 -0.1360
 1231POPI   C4B18992  10.153   7.648   8.522  0.1582 -0.3205 -0.0436
 1232POPI    C118993  11.006   8.986   5.733  0.2040 -0.0278 -0.3619
 1232POPI    C218994  10.643   9.141   5.794  0.2486 -0.0781  0.0629
 1232POPI    C318995  10.690   8.836   5.539  0.0305  0.0681 -0.1573
 1232POPI   PO418996  11.071   8.962   5.996  0.0651 -0.0114  0.0066
 1232POPI   GL118997  11.159   9.039   6.405  0.0451 -0.2453 -0.2091
 1232POPI   GL218998  11.351   9.266   6.511  0.4033 -0.4459  0.3198
 1232POPI   C1A18999  10.889   9.105   6.725 -0.0665 -0.0904  0.0221
 1232POPI   D2A19000  10.967   9.037   7.175 -0.0149  0.1188  0.1608
 1232POPI   C3A19001  10.994   9.109   7.631  0.1247  0.0223 -0.0580
 1232POPI   C4A19002  11.054   9.166   8.061 -0.2873  0.2388 -0.0634
 1232POPI   C1B19003  11.426   9.237   6.875 -0.1205  0.0441  0.0207
 1232POPI   C2B19004  11.404   9.238   7.306 -0.0411 -0.2180  0.0396
 1232POPI   C3B19005  11.441   9.357   7.778 -0.0922  0.1187 -0.0493
 1232POPI   C4B19006  11.494   9.471   8.210  0.0033 -0.3373  0.1897
 1233POPI    C119007   6.051   4.493   5.964 -0.1193  0.1810  0.2022
 1233POPI    C219008   5.760   4.754   5.880 -0.0450  0.1633 -0.1218
 1233POPI    C319009   5.692   4.361   5.848 -0.0221  0.1556 -0.0764
 1233POPI   PO419010   6.096   4.562   6.280  0.0624  0.0297  0.1712
 1233POPI   GL119011   6.150   4.481   6.642  0.1831  0.1499 -0.1007
 1233POPI   GL219012   6.529   4.365   6.637 -0.0625  0.0863  0.2097
 1233POPI   C1A19013   6.038   4.544   7.091 -0.1066 -0.0319  0.0899
 1233POPI   D2A19014   6.136   4.413   7.534  0.1531 -0.0098 -0.0197
 1233POPI   C3A19015   6.078   4.554   8.020  0.0442 -0.0709  0.0207
 1233POPI   C4A19016   6.104   4.530   8.491 -0.1331 -0.1029  0.0439
 1233POPI   C1B19017   6.544   4.266   7.103 -0.0265  0.2202  0.1315
 1233POPI   C2B19018   6.569   4.146   7.521  0.1078  0.3276  0.0816
 1233POPI   C3B19019   6.536   4.350   7.873 -0.1240 -0.1059 -0.0128
 1233POPI   C4B19020   6.524   4.374   8.263  0.0920  0.0706 -0.1999
 1234POPI    C119021  12.917  14.202   5.707 -0.1659 -0.0074  0.0799
 1234POPI    C219022  12.789  13.902   5.476  0.0325  0.0339 -0.0862
 1234POPI    C319023  12.772  14.279   5.343 -0.1172  0.0873  0.0802
 1234POPI   PO419024  12.825  14.110   5.900  0.0236  0.2607 -0.0911
 1234POPI   GL119025  12.592  14.308   6.083  0.1205 -0.3192  0.1325
 1234POPI   GL219026  12.331  14.490   6.285  0.0636  0.1668 -0.1291
 1234POPI   C1A19027  12.442  14.001   6.442 -0.1357  0.1659  0.1609
 1234POPI   D2A19028  12.397  13.981   6.927  0.0560  0.0310 -0.1154
 1234POPI   C3A19029  12.275  14.070   7.344 -0.0303 -0.2725  0.1338
 1234POPI   C4A19030  12.436  14.097   7.763 -0.0847  0.1853 -0.1989
 1234POPI   C1B19031  12.437  14.395   6.733  0.0279  0.2098  0.0041
 1234POPI   C2B19032  12.379  14.543   7.159  0.4628 -0.1720  0.0267
 1234POPI   C3B19033  12.288  14.610   7.611  0.3381 -0.2753 -0.2201
 1234POPI   C4B19034  12.301  14.525   8.029 -0.0050  0.0066 -0.1504
 1235POPI    C119035   1.463  17.161   5.876 -0.0017 -0.0433  0.0619
 1235POPI    C219036   1.682  16.923   5.642 -0.0632 -0.2679  0.2290
 1235POPI    C319037   1.471  17.223   5.481 -0.2470 -0.5278 -0.0264
 1235POPI   PO419038   1.415  17.008   6.105  0.0019  0.0863  0.1175
 1235POPI   GL119039   1.411  16.632   6.488 -0.0131  0.3364 -0.1734
 1235POPI   GL219040   1.657  16.572   6.580 -0.1430  0.1379 -0.1791
 1235POPI   C1A19041   1.189  16.666   6.850  0.0015 -0.1220  0.1136
 1235POPI   D2A19042   1.186  16.740   7.258  0.2631  0.2373 -0.0741
 1235POPI   C3A19043   1.244  16.728   7.744  0.0869 -0.0000 -0.0407
 1235POPI   C4A19044   1.226  16.824   8.096 -0.0213  0.0104 -0.1613
 1235POPI   C1B19045   1.642  16.470   6.977 -0.2100  0.1030  0.1248
 1235POPI   C2B19046   1.673  16.522   7.545  0.4156  0.1540  0.1018
 1235POPI   C3B19047   1.656  16.548   7.981  0.2278  0.1111  0.0327
 1235POPI   C4B19048   1.568  16.573   8.445  0.3089 -0.0238  0.1345
 1236POPI    C119049   5.414  15.430   5.712  0.1914  0.0004 -0.1342
 1236POPI    C219050   5.376  15.092   5.501 -0.1152  0.0826 -0.2145
 1236POPI    C319051   5.575  15.403   5.347 -0.0129  0.0112 -0.2265
 1236POPI   PO419052   5.203  15.474   5.838 -0.3452  0.0902  0.0449
 1236POPI   GL119053   5.066  15.449   6.255  0.1018 -0.0982 -0.2034
 1236POPI   GL219054   5.335  15.438   6.357  0.1598  0.2930 -0.1571
 1236POPI   C1A19055   4.822  15.294   6.640  0.0361  0.2792  0.2285
 1236POPI   D2A19056   4.817  15.327   7.084 -0.0334 -0.2179  0.0912
 1236POPI   C3A19057   4.847  15.258   7.537 -0.0157  0.1366  0.0221
 1236POPI   C4A19058   4.882  15.236   8.040 -0.1894  0.2913  0.1472
 1236POPI   C1B19059   5.290  15.567   6.742  0.1618  0.1656  0.1488
 1236POPI   C2B19060   5.309  15.573   7.182  0.0606  0.1393  0.2604
 1236POPI   C3B19061   5.272  15.537   7.630 -0.1418 -0.1201  0.3026
 1236POPI   C4B19062   5.310  15.508   8.083 -0.2220  0.1893  0.0044
 1237POPI    C119063  17.259   3.678   5.559  0.0062 -0.1693  0.1471
 1237POPI    C219064  17.076   3.358   5.403 -0.2117 -0.0463  0.1470
 1237POPI    C319065  17.232   3.636   5.162 -0.3774  0.0470  0.1459
 1237POPI   PO419066  17.055   3.736   5.771  0.0772 -0.0842  0.0236
 1237POPI   GL119067  17.054   3.677   6.130  0.1020 -0.0276 -0.2701
 1237POPI   GL219068  16.789   3.626   6.255 -0.3462  0.1387 -0.1021
 1237POPI   C1A19069  17.250   3.740   6.541  0.1734  0.0195 -0.1158
 1237POPI   D2A19070  17.149   3.673   6.956 -0.0977 -0.0046 -0.0900
 1237POPI   C3A19071  17.243   3.705   7.356  0.0941  0.1821 -0.1046
 1237POPI   C4A19072  17.204   3.768   7.769 -0.0790 -0.2470 -0.5212
 1237POPI   C1B19073  16.746   3.498   6.684 -0.0828  0.1479  0.2338
 1237POPI   C2B19074  16.772   3.387   7.103 -0.1551 -0.1608  0.0174
 1237POPI   C3B19075  16.827   3.491   7.558 -0.0873 -0.1596  0.0943
 1237POPI   C4B19076  16.829   3.556   8.020 -0.0803  0.0473 -0.4477
 1238POPI    C119077   1.038   5.894   5.937  0.0063  0.0722  0.2066
 1238POPI    C219078   0.650   5.986   5.915  0.0291  0.0895 -0.1974
 1238POPI    C319079   0.834   5.821   5.601  0.3036 -0.1036  0.0601
 1238POPI   PO419080   0.977   5.698   6.182 -0.1208  0.0795  0.0030
 1238POPI   GL119081   1.131   5.443   6.466  0.0107 -0.2490 -0.1951
 1238POPI   GL219082   1.182   5.203   6.428  0.1336 -0.1274 -0.2874
 1238POPI   C1A19083   1.127   5.532   6.883 -0.0301 -0.1505  0.0118
 1238POPI   D2A19084   1.020   5.691   7.278 -0.0540  0.1472  0.2997
 1238POPI   C3A19085   1.225   5.613   7.708  0.1738  0.1575  0.0283
 1238POPI   C4A19086   1.203   5.681   8.127 -0.1915 -0.1097  0.0978
 1238POPI   C1B19087   1.124   4.977   6.761  0.0705  0.0966 -0.2486
 1238POPI   C2B19088   1.201   5.052   7.238  0.3000 -0.1060  0.4017
 1238POPI   C3B19089   1.166   5.130   7.630 -0.0999  0.0492  0.1254
 1238POPI   C4B19090   1.209   5.184   8.047  0.1632  0.0953  0.1341
 1239POPI    C119091   9.828   9.209   5.837  0.2422 -0.1158  0.0957
 1239POPI    C219092   9.985   9.576   5.811 -0.1297  0.0616  0.2746
 1239POPI    C319093  10.181   9.263   5.658  0.1116  0.3562 -0.0347
 1239POPI   PO419094   9.721   9.159   6.055  0.0368 -0.0621  0.1819
 1239POPI   GL119095   9.681   9.337   6.444  0.1703 -0.5270 -0.3004
 1239POPI   GL219096   9.957   9.576   6.536 -0.1311 -0.4438 -0.1901
 1239POPI   C1A19097   9.618   9.331   6.853  0.0527  0.3516 -0.0898
 1239POPI   D2A19098   9.614   9.314   7.314  0.0023  0.0421 -0.0784
 1239POPI   C3A19099   9.682   9.325   7.729  0.0153  0.4261 -0.3013
 1239POPI   C4A19100   9.570   9.309   8.164  0.2418  0.2698  0.0697
 1239POPI   C1B19101  10.040   9.522   7.014  0.0748  0.0864  0.3912
 1239POPI   C2B19102  10.032   9.613   7.490 -0.1473  0.3803  0.0971
 1239POPI   C3B19103  10.136   9.555   7.892 -0.3675  0.0174  0.3564
 1239POPI   C4B19104  10.067   9.544   8.337 -0.2083  0.2872  0.1328
 1240POPI    C119105  12.783   1.036   5.705 -0.0623 -0.0907 -0.0927
 1240POPI    C219106  13.100   0.794   5.682  0.0578  0.0638 -0.0817
 1240POPI    C319107  12.776   0.719   5.461  0.0043 -0.2359  0.0914
 1240POPI   PO419108  12.792   1.104   5.979 -0.3583  0.0033  0.0057
 1240POPI   GL119109  12.841   1.050   6.398 -0.0491 -0.1174 -0.0768
 1240POPI   GL219110  13.048   1.359   6.436  0.0800  0.0180 -0.0519
 1240POPI   C1A19111  12.739   1.147   6.812 -0.0636  0.2333 -0.1626
 1240POPI   D2A19112  12.701   1.238   7.221  0.2462  0.0020  0.1213
 1240POPI   C3A19113  12.846   1.128   7.637 -0.1095 -0.0509 -0.0024
 1240POPI   C4A19114  12.834   1.115   8.040  0.0095  0.1410 -0.2415
 1240POPI   C1B19115  13.153   1.432   6.923  0.2991  0.1855  0.2913
 1240POPI   C2B19116  13.205   1.352   7.353  0.2710 -0.0207  0.1935
 1240POPI   C3B19117  13.241   1.415   7.788 -0.2222 -0.0243  0.1316
 1240POPI   C4B19118  13.195   1.497   8.227 -0.2099 -0.3806 -0.2736
 1241POPI    C119119  13.073  10.054   5.984  0.0460  0.2041  0.0772
 1241POPI    C219120  12.746  10.098   5.756 -0.0406 -0.0873  0.1412
 1241POPI    C319121  13.106  10.061   5.585 -0.0550  0.1090  0.0665
 1241POPI   PO419122  12.961   9.889   6.130 -0.0916  0.1240 -0.0220
 1241POPI   GL119123  12.936   9.715   6.457  0.1944  0.0857  0.2862
 1241POPI   GL219124  12.656   9.546   6.500 -0.1801 -0.3933 -0.1161
 1241POPI   C1A19125  12.925  10.075   6.903 -0.0644  0.0502 -0.0578
 1241POPI   D2A19126  12.761   9.993   7.288  0.0626  0.0733 -0.1181
 1241POPI   C3A19127  12.781  10.127   7.682 -0.0556  0.2326  0.3749
 1241POPI   C4A19128  12.834  10.240   8.048  0.2445  0.0217  0.2796
 1241POPI   C1B19129  12.703   9.616   6.955 -0.0152  0.0015 -0.1159
 1241POPI   C2B19130  12.808   9.521   7.443 -0.0385 -0.0102 -0.0831
 1241POPI   C3B19131  12.769   9.571   7.911  0.0901 -0.2783 -0.0568
 1241POPI   C4B19132  12.745   9.648   8.332  0.2183  0.0566  0.1100
 1242POPI    C119133  16.517  13.218   5.595 -0.1507  0.0305  0.1316
 1242POPI    C219134  16.502  12.883   5.377 -0.0178  0.1201 -0.0163
 1242POPI    C319135  16.584  13.234   5.201  0.0779  0.1951  0.1749
 1242POPI   PO419136  16.537  13.141   5.797 -0.2035  0.0261  0.4168
 1242POPI   GL119137  16.340  13.137   6.202  0.0404 -0.0476  0.2496
 1242POPI   GL219138  16.430  12.815   6.457  0.0329  0.2442 -0.0572
 1242POPI   C1A19139  16.123  13.458   6.424  0.0273 -0.0513 -0.2518
 1242POPI   D2A19140  16.100  13.577   6.854  0.2893  0.3982 -0.0597
 1242POPI   C3A19141  16.038  13.580   7.321 -0.1338  0.1885  0.0413
 1242POPI   C4A19142  16.067  13.587   7.787 -0.0663  0.1084  0.3335
 1242POPI   C1B19143  16.511  12.731   6.846  0.1485 -0.3467  0.1713
 1242POPI   C2B19144  16.500  12.745   7.294  0.1492 -0.3420  0.0538
 1242POPI   C3B19145  16.430  12.803   7.712 -0.0828  0.1656 -0.0754
 1242POPI   C4B19146  16.436  12.846   8.084  0.4540  0.1506 -0.3813
 1243POPI    C119147   6.788  12.368   6.136 -0.2652 -0.0234 -0.1550
 1243POPI    C219148   6.620  12.353   5.774 -0.0748 -0.1594 -0.2394
 1243POPI    C319149   6.957  12.560   5.828 -0.2216  0.0434 -0.0896
 1243POPI   PO419150   6.649  12.151   6.224  0.1042 -0.1464  0.0614
 1243POPI   GL119151   6.490  12.100   6.537  0.2179 -0.1548 -0.0375
 1243POPI   GL219152   6.650  11.796   6.702 -0.0163  0.0685 -0.1637
 1243POPI   C1A19153   6.600  12.216   7.067  0.0374 -0.1316 -0.1087
 1243POPI   D2A19154   6.658  12.269   7.449  0.0070 -0.1148 -0.0082
 1243POPI   C3A19155   6.581  12.231   7.832  0.0637 -0.1911 -0.1592
 1243POPI   C4A19156   6.604  12.265   8.292 -0.0505  0.0246 -0.0166
 1243POPI   C1B19157   6.623  11.725   7.129  0.0093 -0.2732  0.1883
 1243POPI   C2B19158   6.576  11.700   7.599 -0.1013  0.1228 -0.3648
 1243POPI   C3B19159   6.592  11.733   8.047 -0.1571  0.0917  0.2629
 1243POPI   C4B19160   6.685  11.674   8.444 -0.0221 -0.0534 -0.2331
 1244POPI    C119161  10.299  11.322   5.835  0.1534  0.2013  0.2036
 1244POPI    C219162  10.484  11.374   5.483 -0.0700  0.0446  0.0605
 1244POPI    C319163  10.104  11.491   5.529 -0.0318  0.0949  0.2616
 1244POPI   PO419164  10.497  11.451   6.040 -0.1862  0.0238  0.0683
 1244POPI   GL119165  10.623  11.411   6.465  0.2302  0.0844  0.2506
 1244POPI   GL219166  10.330  11.569   6.510 -0.2110 -0.0983  0.1293
 1244POPI   C1A19167  10.591  11.329   6.939 -0.0274  0.0800 -0.1040
 1244POPI   D2A19168  10.549  11.480   7.299 -0.0390 -0.3052 -0.1556
 1244POPI   C3A19169  10.489  11.429   7.683  0.0422 -0.2871  0.1861
 1244POPI   C4A19170  10.558  11.477   8.086  0.1787 -0.2545  0.1974
 1244POPI   C1B19171  10.622  11.845   6.756 -0.0979 -0.0319  0.2550
 1244POPI   C2B19172  10.604  12.017   7.228  0.0119  0.0481  0.1336
 1244POPI   C3B19173  10.531  11.912   7.668  0.1183  0.2146 -0.1349
 1244POPI   C4B19174  10.583  11.951   8.053  0.0973  0.1293 -0.1815
 1245POPI    C119175   9.247   9.004   6.133  0.2181  0.0274 -0.1502
 1245POPI    C219176   8.872   9.029   6.270  0.1552 -0.1290 -0.2895
 1245POPI    C319177   8.950   9.106   5.885  0.2532 -0.1770 -0.2795
 1245POPI   PO419178   9.293   8.760   6.257  0.2412  0.1550 -0.1120
 1245POPI   GL119179   9.245   8.718   6.641 -0.1859 -0.0617  0.1057
 1245POPI   GL219180   9.155   8.968   6.696 -0.0333 -0.1368  0.1875
 1245POPI   C1A19181   9.224   8.529   6.945 -0.0711  0.2771  0.1208
 1245POPI   D2A19182   9.202   8.434   7.385  0.0621 -0.1704  0.0552
 1245POPI   C3A19183   9.071   8.413   7.759  0.2709 -0.1121 -0.0618
 1245POPI   C4A19184   9.300   8.390   8.230 -0.0374 -0.0882  0.2940
 1245POPI   C1B19185   9.253   8.990   7.104  0.2502 -0.1808 -0.1508
 1245POPI   C2B19186   9.232   9.078   7.545 -0.2255  0.1903 -0.0844
 1245POPI   C3B19187   9.176   9.128   7.890  0.0960 -0.1166  0.0641
 1245POPI   C4B19188   9.183   8.899   8.203  0.3491  0.0173  0.2996
 1246POPI    C119189   8.274   7.392   5.774 -0.0052 -0.3750 -0.1794
 1246POPI    C219190   8.176   7.257   5.411 -0.2116 -0.0831 -0.2360
 1246POPI    C319191   8.185   7.650   5.481  0.2050 -0.1249 -0.0275
 1246POPI   PO419192   8.076   7.309   5.922  0.0661  0.2254 -0.1117
 1246POPI   GL119193   8.037   7.328   6.321 -0.0225  0.0611 -0.0800
 1246POPI   GL219194   7.883   7.132   6.541  0.1471  0.0962 -0.0964
 1246POPI   C1A19195   8.191   7.532   6.751 -0.0834  0.2430  0.2357
 1246POPI   D2A19196   8.382   7.423   7.148  0.0220 -0.2780  0.2060
 1246POPI   C3A19197   8.335   7.442   7.678 -0.0169  0.2253 -0.0227
 1246POPI   C4A19198   8.365   7.405   8.163  0.0023 -0.0218  0.3368
 1246POPI   C1B19199   7.862   7.234   6.990 -0.3690 -0.0655 -0.1366
 1246POPI   C2B19200   7.887   7.086   7.497  0.1912 -0.0422  0.1342
 1246POPI   C3B19201   7.766   7.231   7.960  0.0757  0.2452 -0.2069
 1246POPI   C4B19202   7.930   7.153   8.366  0.0194  0.1778 -0.2209
 1247DPPI    C119203  10.775   6.610   5.569 -0.1755  0.1720  0.1530
 1247DPPI    C219204  10.668   6.329   5.834 -0.0758  0.1335  0.1527
 1247DPPI    C319205  10.664   6.247   5.442 -0.3819  0.2415  0.1310
 1247DPPI   PO419206  10.931   6.839   5.823  0.0258 -0.2161 -0.1372
 1247DPPI   GL119207  11.066   6.807   6.222  0.1669 -0.0115  0.0762
 1247DPPI   GL219208  10.997   6.457   6.469  0.4067  0.3003 -0.1467
 1247DPPI   C1A19209  11.254   6.839   6.660  0.2786 -0.2492 -0.1586
 1247DPPI   C2A19210  11.380   6.701   7.039  0.1003 -0.1435  0.3714
 1247DPPI   C3A19211  11.389   6.784   7.470 -0.0901  0.1221  0.0152
 1247DPPI   C4A19212  11.449   6.718   7.917 -0.0971 -0.1005 -0.0266
 1247DPPI   C1B19213  11.005   6.459   6.906 -0.2125  0.1853 -0.2497
 1247DPPI   C2B19214  10.965   6.501   7.329 -0.2288  0.0626  0.3360
 1247DPPI   C3B19215  10.970   6.482   7.703 -0.1588  0.1105 -0.4662
 1247DPPI   C4B19216  10.925   6.526   8.138 -0.0902  0.1015 -0.0526
 1248DPPI    C119217   9.205  13.591   5.750  0.0150  0.2141  0.1917
 1248DPPI    C219218   9.083  13.906   5.536 -0.2402 -0.0237 -0.0209
 1248DPPI    C319219   9.376  13.673   5.398 -0.1493  0.0364  0.0686
 1248DPPI   PO419220   9.272  13.629   6.014  0.1597 -0.1852 -0.1526
 1248DPPI   GL119221   9.199  13.857   6.377  0.0501 -0.2916  0.0155
 1248DPPI   GL219222   9.398  14.194   6.306  0.1145  0.0567 -0.0221
 1248DPPI   C1A19223   9.300  13.750   6.760  0.2686  0.2664  0.2295
 1248DPPI   C2A19224   9.235  13.819   7.235  0.0004 -0.0679  0.0846
 1248DPPI   C3A19225   9.305  13.717   7.720  0.0929 -0.2189  0.0850
 1248DPPI   C4A19226   9.309  13.864   8.217 -0.2448 -0.1433  0.0959
 1248DPPI   C1B19227   9.310  14.274   6.682 -0.0588  0.0568 -0.0797
 1248DPPI   C2B19228   9.243  14.287   7.060  0.5294 -0.1551  0.0537
 1248DPPI   C3B19229   9.291  14.302   7.515 -0.1053  0.0628 -0.2376
 1248DPPI   C4B19230   9.342  14.352   7.902 -0.0509 -0.0065  0.2313
 1249DPPI    C119231   8.382  10.184   6.076  0.1459  0.1208  0.1314
 1249DPPI    C219232   8.539  10.102   5.717  0.0538  0.0896  0.0980
 1249DPPI    C319233   8.366  10.457   5.783  0.0898  0.1035  0.1182
 1249DPPI   PO419234   8.522  10.125   6.275  0.2659 -0.0885 -0.1398
 1249DPPI   GL119235   8.710  10.352   6.600  0.0840  0.0692  0.0428
 1249DPPI   GL219236   8.991  10.475   6.489  0.1465 -0.5077 -0.1226
 1249DPPI   C1A19237   8.783  10.328   7.042 -0.0312 -0.0005 -0.0190
 1249DPPI   C2A19238   8.775  10.440   7.450  0.1616  0.0860 -0.0486
 1249DPPI   C3A19239   8.742  10.267   7.848 -0.3941  0.3516  0.3586
 1249DPPI   C4A19240   8.645  10.329   8.279 -0.0499 -0.0643  0.0555
 1249DPPI   C1B19241   9.137  10.657   6.929 -0.0237  0.0903  0.2632
 1249DPPI   C2B19242   9.226  10.702   7.463 -0.0882 -0.0544  0.3048
 1249DPPI   C3B19243   9.183  10.584   7.885  0.2210  0.4307  0.1859
 1249DPPI   C4B19244   9.114  10.639   8.292 -0.0700  0.0322 -0.2848
 1250DPPI    C119245  10.018   5.179   6.195 -0.1681  0.2486 -0.0717
 1250DPPI    C219246   9.924   4.834   6.017  0.2147  0.0784  0.0459
 1250DPPI    C319247   9.949   5.170   5.801 -0.1244  0.0300 -0.0754
 1250DPPI   PO419248  10.158   5.122   6.423 -0.1727  0.3059 -0.2272
 1250DPPI   GL119249  10.135   5.314   6.868 -0.0229  0.1233 -0.1191
 1250DPPI   GL219250  10.057   4.955   6.920 -0.1679  0.2103 -0.1661
 1250DPPI   C1A19251  10.066   5.364   7.283  0.3890  0.3682 -0.2847
 1250DPPI   C2A19252  10.130   5.414   7.721 -0.1172 -0.0103  0.0497
 1250DPPI   C3A19253  10.116   5.372   8.133 -0.0001 -0.1329 -0.2432
 1250DPPI   C4A19254  10.175   5.285   8.588  0.2470  0.1468 -0.2793
 1250DPPI   C1B19255  10.109   4.881   7.401 -0.1494 -0.1396  0.1903
 1250DPPI   C2B19256  10.138   4.914   7.806  0.0150 -0.0041 -0.1141
 1250DPPI   C3B19257  10.081   4.765   8.191  0.0477 -0.0023  0.0576
 1250DPPI   C4B19258   9.955   4.840   8.657  0.0247 -0.1890 -0.1472
 1251DPPI    C119259   0.192   6.215   6.079  0.1510  0.1097 -0.1241
 1251DPPI    C219260   0.515   6.450   6.056  0.1114  0.1625 -0.1435
 1251DPPI    C319261   0.323   6.342   5.723  0.0335  0.2366 -0.1229
 1251DPPI   PO419262   0.317   6.068   6.309 -0.0635 -0.0793  0.1281
 1251DPPI   GL119263   0.355   6.149   6.700  0.2581  0.2159 -0.3960
 1251DPPI   GL219264   0.188   6.483   6.604 -0.2934 -0.2833  0.0078
 1251DPPI   C1A19265   0.316   6.060   7.162  0.1751 -0.0568  0.0288
 1251DPPI   C2A19266   0.250   6.078   7.622  0.0254 -0.1709  0.0783
 1251DPPI   C3A19267   0.327   6.120   8.032 -0.1121  0.1510 -0.0307
 1251DPPI   C4A19268   0.327   6.071   8.494  0.0777 -0.1026  0.1005
 1251DPPI   C1B19269   0.272   6.491   7.022 -0.2214  0.1424 -0.0952
 1251DPPI   C2B19270   0.198   6.567   7.509 -0.3659  0.3503 -0.0838
 1251DPPI   C3B19271   0.188   6.626   7.916 -0.0113 -0.0057  0.1970
 1251DPPI   C4B19272   0.244   6.722   8.408  0.1942  0.1492  0.0028
 1252DPPI    C119273  12.292   6.477   5.715  0.1642 -0.2405  0.2099
 1252DPPI    C219274  12.001   6.229   5.599  0.0509 -0.0251  0.0266
 1252DPPI    C319275  12.311   6.301   5.357  0.1458 -0.0822  0.1302
 1252DPPI   PO419276  12.275   6.390   5.995  0.3047  0.0222  0.0791
 1252DPPI   GL119277  12.478   6.600   6.405  0.0726  0.0413 -0.0962
 1252DPPI   GL219278  12.599   6.828   6.417  0.2485 -0.1534  0.0637
 1252DPPI   C1A19279  12.623   6.446   6.798 -0.1318  0.2101  0.0364
 1252DPPI   C2A19280  12.667   6.410   7.225 -0.0267  0.1455  0.0564
 1252DPPI   C3A19281  12.696   6.346   7.697 -0.1088  0.1723  0.0796
 1252DPPI   C4A19282  12.876   6.465   8.020  0.2352 -0.0294  0.0320
 1252DPPI   C1B19283  12.764   6.921   6.911  0.3565 -0.1339 -0.1710
 1252DPPI   C2B19284  12.770   6.884   7.318  0.1449  0.2059  0.0722
 1252DPPI   C3B19285  12.768   7.005   7.707 -0.1001  0.2016  0.2452
 1252DPPI   C4B19286  12.826   6.990   8.164  0.0209 -0.1261  0.0139
 1253DPPI    C119287   8.245  10.991   5.824 -0.1345 -0.1578  0.1520
 1253DPPI    C219288   7.952  11.234   5.701 -0.0301 -0.1051  0.0040
 1253DPPI    C319289   8.334  11.339   5.648  0.0158 -0.2603  0.0229
 1253DPPI   PO419290   8.135  10.902   6.046  0.2035  0.0918 -0.2272
 1253DPPI   GL119291   8.214  11.007   6.466  0.3001 -0.0723 -0.2210
 1253DPPI   GL219292   8.007  10.922   6.675 -0.0513  0.0270 -0.2142
 1253DPPI   C1A19293   8.411  11.217   6.878  0.1823  0.2843 -0.0629
 1253DPPI   C2A19294   8.381  11.215   7.294 -0.1237 -0.1753  0.1221
 1253DPPI   C3A19295   8.292  11.192   7.689 -0.0356  0.0653 -0.1805
 1253DPPI   C4A19296   8.105  11.024   8.093 -0.0742  0.0165  0.1140
 1253DPPI   C1B19297   7.876  10.883   7.102 -0.1749 -0.2493 -0.0639
 1253DPPI   C2B19298   7.827  10.962   7.518  0.3557 -0.0354  0.0157
 1253DPPI   C3B19299   7.737  10.777   7.908 -0.1126  0.3325  0.0298
 1253DPPI   C4B19300   7.621  10.768   8.337  0.1553  0.3214 -0.1617
 1254DPPI    C119301   8.595  13.665   5.578  0.1719 -0.0933  0.0407
 1254DPPI    C219302   8.882  13.510   5.347  0.1801 -0.0394  0.0148
 1254DPPI    C319303   8.499  13.421   5.276  0.1858 -0.0591  0.0086
 1254DPPI   PO419304   8.733  13.646   5.860 -0.0531 -0.0024  0.2567
 1254DPPI   GL119305   8.730  13.729   6.238 -0.0450  0.3224 -0.2614
 1254DPPI   GL219306   8.824  13.470   6.341 -0.3561  0.0640  0.0758
 1254DPPI   C1A19307   8.413  13.680   6.597  0.0864 -0.2992 -0.1910
 1254DPPI   C2A19308   8.370  13.793   7.021  0.1144  0.3611  0.0937
 1254DPPI   C3A19309   8.321  13.837   7.477  0.0628  0.0178 -0.0632
 1254DPPI   C4A19310   8.382  13.831   7.957  0.2146 -0.0615  0.0494
 1254DPPI   C1B19311   8.863  13.526   6.781 -0.0860  0.2182 -0.0300
 1254DPPI   C2B19312   8.794  13.579   7.252 -0.0420  0.2687  0.2807
 1254DPPI   C3B19313   8.802  13.498   7.660  0.0406 -0.2470  0.1103
 1254DPPI   C4B19314   8.820  13.579   8.104 -0.0823  0.0212  0.2265
 1255DPPI    C119315  12.026   8.638   6.185  0.2443 -0.3302  0.0925
 1255DPPI    C219316  12.132   8.799   5.835 -0.4621  0.0681  0.0426
 1255DPPI    C319317  12.134   9.023   6.167  0.2063 -0.3075  0.3116
 1255DPPI   PO419318  11.846   8.508   6.151  0.1494 -0.1281 -0.2428
 1255DPPI   GL119319  11.708   8.320   6.500 -0.1279  0.0763  0.0435
 1255DPPI   GL219320  11.401   8.249   6.614  0.3031  0.0149  0.2412
 1255DPPI   C1A19321  11.852   8.463   6.882 -0.1642 -0.0728 -0.0328
 1255DPPI   C2A19322  11.944   8.512   7.301 -0.0535 -0.3334 -0.0777
 1255DPPI   C3A19323  11.909   8.666   7.749 -0.3839  0.0097 -0.2845
 1255DPPI   C4A19324  11.957   8.545   8.107  0.0831  0.1813 -0.2199
 1255DPPI   C1B19325  11.377   8.262   7.035  0.1789  0.3436  0.0559
 1255DPPI   C2B19326  11.482   8.342   7.460  0.1974 -0.0478 -0.1853
 1255DPPI   C3B19327  11.499   8.395   7.909  0.1329 -0.1256  0.1812
 1255DPPI   C4B19328  11.539   8.260   8.371 -0.3040  0.2056 -0.0480
 1256DPPI    C119329   6.396   7.242   5.949 -0.0765 -0.1307  0.0605
 1256DPPI    C219330   6.517   7.552   5.727  0.0691 -0.1693  0.0854
 1256DPPI    C319331   6.442   7.199   5.554 -0.2196 -0.0872  0.0385
 1256DPPI   PO419332   6.460   7.292   6.216  0.3216  0.2816 -0.2136
 1256DPPI   GL119333   6.229   7.509   6.552  0.0044  0.2606  0.0325
 1256DPPI   GL219334   5.946   7.536   6.656 -0.0353  0.0416  0.2098
 1256DPPI   C1A19335   6.360   7.349   6.902  0.0107  0.1274 -0.1017
 1256DPPI   C2A19336   6.431   7.418   7.284  0.4472 -0.2080  0.1138
 1256DPPI   C3A19337   6.439   7.387   7.796  0.0505 -0.1215 -0.1809
 1256DPPI   C4A19338   6.450   7.381   8.234  0.2414 -0.3022 -0.1616
 1256DPPI   C1B19339   5.951   7.558   7.069 -0.3772 -0.1655 -0.2831
 1256DPPI   C2B19340   5.950   7.629   7.530  0.0357 -0.2643  0.2820
 1256DPPI   C3B19341   6.023   7.678   7.934  0.0125 -0.4852 -0.1474
 1256DPPI   C4B19342   6.132   7.789   8.349  0.0622  0.1054 -0.2609
 1257DPPI    C119343   7.623  12.152   5.892 -0.1125 -0.0692 -0.1642
 1257DPPI    C219344   7.734  12.172   5.508  0.1095 -0.0965 -0.1029
 1257DPPI    C319345   7.396  12.349   5.628  0.1091  0.0289 -0.2846
 1257DPPI   PO419346   7.736  12.248   6.074 -0.0139  0.0387  0.0278
 1257DPPI   GL119347   7.896  12.601   6.354  0.0500 -0.0778 -0.0366
 1257DPPI   GL219348   8.237  12.722   6.338  0.1069 -0.1668  0.0614
 1257DPPI   C1A19349   7.882  12.567   6.861 -0.1690  0.1112  0.0860
 1257DPPI   C2A19350   7.900  12.506   7.272 -0.0133 -0.0132 -0.1513
 1257DPPI   C3A19351   7.967  12.432   7.665 -0.0607 -0.2122 -0.0017
 1257DPPI   C4A19352   7.914  12.423   8.155  0.0244 -0.3164 -0.3967
 1257DPPI   C1B19353   8.316  12.738   6.769  0.0441 -0.1675 -0.0054
 1257DPPI   C2B19354   8.461  12.786   7.148  0.0010  0.3041 -0.1451
 1257DPPI   C3B19355   8.395  12.649   7.528 -0.2346 -0.2796  0.0919
 1257DPPI   C4B19356   8.399  12.778   7.964  0.1786 -0.2150  0.0866
 1258DPPI    C119357  13.702  12.496   5.678 -0.0271 -0.1603  0.0014
 1258DPPI    C219358  13.634  12.115   5.577 -0.1187 -0.1431 -0.0028
 1258DPPI    C319359  13.606  12.403   5.301  0.2693 -0.1684 -0.0748
 1258DPPI   PO419360  13.854  12.479   6.000 -0.1053  0.0706 -0.2420
 1258DPPI   GL119361  13.788  12.569   6.430 -0.3716  0.0679  0.2968
 1258DPPI   GL219362  13.531  12.683   6.591  0.2558 -0.0407  0.0548
 1258DPPI   C1A19363  13.747  12.211   6.778  0.1061  0.3126 -0.0842
 1258DPPI   C2A19364  13.728  12.249   7.252 -0.2505 -0.0880  0.1746
 1258DPPI   C3A19365  13.722  12.255   7.734  0.0156 -0.0344 -0.3251
 1258DPPI   C4A19366  13.722  12.367   8.179 -0.0865 -0.0449 -0.1926
 1258DPPI   C1B19367  13.668  12.742   6.962  0.2528  0.4230  0.0522
 1258DPPI   C2B19368  13.758  12.749   7.413  0.2107 -0.2065  0.2755
 1258DPPI   C3B19369  13.791  12.786   7.746  0.0685  0.2871  0.2119
 1258DPPI   C4B19370  13.712  12.838   8.259 -0.0781 -0.0001 -0.1030
 1259DPPI    C119371   3.840   3.908   6.244 -0.0789  0.2065 -0.3106
 1259DPPI    C219372   4.167   3.871   6.016 -0.1477 -0.1278 -0.3600
 1259DPPI    C319373   3.823   3.700   5.903 -0.2191 -0.1771 -0.0764
 1259DPPI   PO419374   3.869   4.194   6.317  0.0590  0.0232 -0.2352
 1259DPPI   GL119375   3.692   4.299   6.652 -0.0170 -0.0419 -0.0386
 1259DPPI   GL219376   3.412   4.393   6.647  0.3069  0.0028 -0.0329
 1259DPPI   C1A19377   3.825   4.109   7.026  0.2204  0.0797  0.1821
 1259DPPI   C2A19378   3.798   4.045   7.373 -0.2485 -0.0057  0.1895
 1259DPPI   C3A19379   3.838   4.213   7.645 -0.0614 -0.0077  0.1200
 1259DPPI   C4A19380   3.808   4.196   8.052 -0.0401  0.0167  0.1448
 1259DPPI   C1B19381   3.452   4.388   7.169 -0.0085 -0.1160  0.1173
 1259DPPI   C2B19382   3.404   4.427   7.639  0.0144 -0.1126 -0.1962
 1259DPPI   C3B19383   3.375   4.433   8.073 -0.3411 -0.0787  0.1479
 1259DPPI   C4B19384   3.585   4.362   8.541 -0.3573  0.0783 -0.1934
 1260DPPI    C119385   5.557   9.379   5.950 -0.1854  0.1136  0.1184
 1260DPPI    C219386   5.407   9.032   5.819  0.0238  0.0317  0.0935
 1260DPPI    C319387   5.800   9.103   5.794 -0.0299  0.3103  0.0091
 1260DPPI   PO419388   5.403   9.391   6.207 -0.1546  0.0406  0.1714
 1260DPPI   GL119389   5.391   9.313   6.549  0.1637 -0.6335 -0.2626
 1260DPPI   GL219390   5.728   9.615   6.668 -0.0700 -0.0371 -0.0122
 1260DPPI   C1A19391   5.410   9.354   6.992 -0.0164  0.1681  0.1072
 1260DPPI   C2A19392   5.396   9.336   7.408  0.0078  0.2604 -0.0327
 1260DPPI   C3A19393   5.518   9.379   7.860 -0.1685  0.1124  0.2692
 1260DPPI   C4A19394   5.599   9.321   8.324  0.0974 -0.3331 -0.1451
 1260DPPI   C1B19395   5.839   9.559   7.081 -0.2259  0.0074 -0.0169
 1260DPPI   C2B19396   5.917   9.626   7.524  0.0263 -0.0732  0.1122
 1260DPPI   C3B19397   5.923   9.648   7.971 -0.0783 -0.0778  0.1007
 1260DPPI   C4B19398   5.985   9.665   8.280  0.3266  0.0544 -0.0249
 1261DPPI    C119399  11.007   9.826   5.802  0.0018 -0.0344  0.1448
 1261DPPI    C219400  10.985   9.468   5.624  0.2607  0.0646 -0.0926
 1261DPPI    C319401  10.801   9.785   5.461  0.1668  0.0739  0.0306
 1261DPPI   PO419402  10.953   9.797   6.022 -0.2191 -0.1164 -0.2797
 1261DPPI   GL119403  10.859   9.376   6.166 -0.1405 -0.2998  0.0638
 1261DPPI   GL219404  10.593   9.072   6.290 -0.1982  0.0840 -0.1570
 1261DPPI   C1A19405  10.947   9.571   6.599 -0.0746  0.0131  0.0619
 1261DPPI   C2A19406  10.987   9.494   6.999 -0.0681 -0.1907  0.2413
 1261DPPI   C3A19407  11.020   9.553   7.493 -0.2282  0.0205  0.1316
 1261DPPI   C4A19408  11.009   9.662   7.903 -0.0043  0.1459 -0.0054
 1261DPPI   C1B19409  10.489   8.832   6.669 -0.0408 -0.0914  0.0937
 1261DPPI   C2B19410  10.507   8.794   7.095 -0.0139  0.1029 -0.0563
 1261DPPI   C3B19411  10.581   8.728   7.545  0.5129  0.0323 -0.1824
 1261DPPI   C4B19412  10.561   8.845   8.022  0.2136  0.1027 -0.0913
 1262DPPI    C119413   7.303   0.557   5.683 -0.0377  0.0941  0.1439
 1262DPPI    C219414   7.198   0.267   5.428  0.0363  0.1549  0.0438
 1262DPPI    C319415   7.553   0.449   5.390 -0.0246  0.2830  0.0844
 1262DPPI   PO419416   7.295   0.370   5.968  0.1681 -0.0868 -0.0126
 1262DPPI   GL119417   7.309   0.410   6.378 -0.0153  0.0471 -0.1504
 1262DPPI   GL219418   7.268   0.183   6.541  0.1327  0.2528 -0.1042
 1262DPPI   C1A19419   7.481   0.575   6.736  0.1632 -0.1113 -0.2206
 1262DPPI   C2A19420   7.461   0.606   7.187 -0.0363 -0.0719 -0.0412
 1262DPPI   C3A19421   7.553   0.702   7.640  0.0132  0.1623 -0.4077
 1262DPPI   C4A19422   7.448   0.732   8.113 -0.0633 -0.1797  0.0165
 1262DPPI   C1B19423   7.470   0.080   7.016  0.2254 -0.1102 -0.1759
 1262DPPI   C2B19424   7.567   0.012   7.473 -0.2741 -0.3045  0.0351
 1262DPPI   C3B19425   7.512   0.020   7.936 -0.1388 -0.0255 -0.0074
 1262DPPI   C4B19426   7.427   0.249   8.260 -0.0444  0.0266 -0.1984
 1263DPPI    C119427  15.225   7.400   5.965 -0.0664 -0.0040 -0.1656
 1263DPPI    C219428  15.161   7.035   6.115  0.0774  0.0279 -0.0233
 1263DPPI    C319429  15.177   7.089   5.719 -0.0760 -0.0968 -0.0474
 1263DPPI   PO419430  15.104   7.537   6.055  0.0431 -0.2153 -0.1881
 1263DPPI   GL119431  15.079   7.551   6.444  0.0330 -0.0089 -0.1396
 1263DPPI   GL219432  15.007   7.276   6.581  0.0283 -0.1912  0.1493
 1263DPPI   C1A19433  15.010   7.698   6.874 -0.1497  0.1107  0.0102
 1263DPPI   C2A19434  15.029   7.637   7.252  0.0481  0.0859 -0.1096
 1263DPPI   C3A19435  15.081   7.710   7.702  0.0832  0.0011  0.0824
 1263DPPI   C4A19436  15.216   7.793   8.063 -0.0978  0.0285  0.2043
 1263DPPI   C1B19437  15.052   7.141   6.948  0.2177  0.3200 -0.2623
 1263DPPI   C2B19438  15.116   7.169   7.450 -0.0064 -0.0810  0.4047
 1263DPPI   C3B19439  15.228   7.255   7.862  0.2375 -0.0522 -0.1723
 1263DPPI   C4B19440  15.224   7.172   8.236 -0.3880  0.0211  0.1281
 1264DPPI    C119441  11.952  11.725   6.009  0.0246  0.0958  0.1630
 1264DPPI    C219442  12.351  11.754   6.004  0.0303  0.0032 -0.0059
 1264DPPI    C319443  12.143  11.806   5.666 -0.0741 -0.3007  0.0091
 1264DPPI   PO419444  11.929  11.490   6.141 -0.1082  0.0253  0.1270
 1264DPPI   GL119445  12.045  11.571   6.454  0.2248 -0.2977 -0.2957
 1264DPPI   GL219446  12.224  11.808   6.548 -0.0533 -0.1889  0.2211
 1264DPPI   C1A19447  12.009  11.627   6.905  0.0936  0.0223  0.0350
 1264DPPI   C2A19448  11.903  11.724   7.328  0.2498 -0.1550 -0.3008
 1264DPPI   C3A19449  11.908  11.764   7.783 -0.1008 -0.2370  0.3369
 1264DPPI   C4A19450  11.898  11.706   8.276 -0.1753  0.0692  0.0850
 1264DPPI   C1B19451  12.358  11.957   6.813  0.0878  0.2069 -0.1052
 1264DPPI   C2B19452  12.328  11.940   7.187  0.1541 -0.0769  0.2732
 1264DPPI   C3B19453  12.346  12.004   7.577 -0.0073 -0.1152 -0.3003
 1264DPPI   C4B19454  12.411  11.998   8.024  0.0193 -0.1045  0.0469
 1265DPPI    C119455   7.693   8.107   5.909 -0.1445  0.0980  0.1053
 1265DPPI    C219456   7.772   7.808   5.655 -0.2268 -0.0829  0.2906
 1265DPPI    C319457   7.567   8.128   5.530  0.0095 -0.0242  0.0464
 1265DPPI   PO419458   7.705   8.083   6.147  0.2648  0.4312 -0.1428
 1265DPPI   GL119459   7.749   8.299   6.480  0.0832 -0.1303 -0.0789
 1265DPPI   GL219460   7.441   8.534   6.603  0.0759 -0.2556 -0.0153
 1265DPPI   C1A19461   7.813   8.278   6.903  0.1772  0.1086  0.0698
 1265DPPI   C2A19462   7.843   8.166   7.338 -0.0007 -0.1480  0.2177
 1265DPPI   C3A19463   7.868   8.153   7.784 -0.1257 -0.1000 -0.0537
 1265DPPI   C4A19464   7.863   8.263   8.154 -0.1036 -0.2295  0.0829
 1265DPPI   C1B19465   7.366   8.536   7.003  0.0100  0.3115  0.1393
 1265DPPI   C2B19466   7.393   8.416   7.438  0.2423 -0.0123 -0.0284
 1265DPPI   C3B19467   7.371   8.461   7.914  0.0293 -0.0198  0.1423
 1265DPPI   C4B19468   7.434   8.489   8.365  0.1686 -0.1765 -0.2287
 1266DPPI    C119469   3.354  12.542   5.719 -0.3650 -0.0786 -0.1961
 1266DPPI    C219470   3.508  12.191   5.605  0.0533  0.0515 -0.0540
 1266DPPI    C319471   3.587  12.521   5.394 -0.2355  0.0842 -0.1153
 1266DPPI   PO419472   3.357  12.478   6.060 -0.0916 -0.1974  0.0498
 1266DPPI   GL119473   3.633  12.533   6.461 -0.3747 -0.0782  0.0205
 1266DPPI   GL219474   3.999  12.609   6.440 -0.2973 -0.2168 -0.1019
 1266DPPI   C1A19475   3.499  12.630   6.825 -0.2633 -0.2315 -0.0644
 1266DPPI   C2A19476   3.575  12.759   7.220  0.4449  0.0084  0.0859
 1266DPPI   C3A19477   3.565  12.874   7.647  0.3650 -0.0141  0.1520
 1266DPPI   C4A19478   3.521  13.059   8.065  0.0851  0.1541  0.1126
 1266DPPI   C1B19479   4.004  12.700   6.825  0.1535 -0.0689  0.0001
 1266DPPI   C2B19480   4.052  12.748   7.363 -0.1358  0.1209  0.1446
 1266DPPI   C3B19481   3.978  12.717   7.793  0.1455  0.1488 -0.0552
 1266DPPI   C4B19482   3.931  12.844   8.246 -0.0331  0.0814 -0.2287
 1267PYPI    C119483  14.146   0.735   5.683  0.0001 -0.1023  0.0558
 1267PYPI    C219484  14.529   0.848   5.650 -0.1268  0.3018 -0.0974
 1267PYPI    C319485  14.385   0.557   5.416  0.0540  0.2327 -0.1244
 1267PYPI   PO419486  14.081   0.642   5.887 -0.1421 -0.2567  0.0262
 1267PYPI   GL119487  14.042   0.671   6.300 -0.0510 -0.2992  0.0666
 1267PYPI   GL219488  13.983   0.931   6.521  0.0514  0.2469  0.0178
 1267PYPI   C1A19489  14.094   0.408   6.661 -0.1640 -0.2184  0.0185
 1267PYPI   C2A19490  14.107   0.317   7.058  0.1673 -0.1027  0.2974
 1267PYPI   D3A19491  14.133   0.325   7.502 -0.1882  0.3209 -0.1943
 1267PYPI   C4A19492  14.019   0.274   7.947  0.1517  0.1155 -0.1152
 1267PYPI   C1B19493  14.135   0.831   6.905  0.0359  0.3590  0.0013
 1267PYPI   C2B19494  14.083   0.867   7.297 -0.0827  0.0434 -0.5223
 1267PYPI   C3B19495  14.078   0.827   7.755 -0.1883 -0.3373 -0.1786
 1267PYPI   C4B19496  14.069   0.948   8.116 -0.1091  0.1790  0.0310
 1268PYPI    C119497   8.417  13.263   5.754  0.0340 -0.0161 -0.0056
 1268PYPI    C219498   8.159  13.071   5.516  0.2008 -0.3754  0.0967
 1268PYPI    C319499   8.551  12.995   5.488  0.2494 -0.2014  0.2833
 1268PYPI   PO419500   8.376  13.227   6.028 -0.1412  0.0456  0.1387
 1268PYPI   GL119501   8.296  13.251   6.431 -0.2655  0.1377  0.1498
 1268PYPI   GL219502   8.021  13.476   6.369  0.0433 -0.0263  0.1762
 1268PYPI   C1A19503   8.449  13.226   6.928  0.1322  0.1965 -0.0882
 1268PYPI   C2A19504   8.374  13.288   7.314  0.0771 -0.1891 -0.1468
 1268PYPI   D3A19505   8.389  13.186   7.637  0.0540  0.1748  0.3561
 1268PYPI   C4A19506   8.371  13.319   8.019  0.1540  0.2393  0.0757
 1268PYPI   C1B19507   7.948  13.560   6.822  0.0197  0.0177  0.1444
 1268PYPI   C2B19508   7.925  13.646   7.207  0.0188  0.1471 -0.0548
 1268PYPI   C3B19509   7.994  13.538   7.690  0.0366  0.1597 -0.2131
 1268PYPI   C4B19510   7.987  13.561   8.125  0.2507  0.0168  0.0445
 1269PYPI    C119511  12.842  16.685   5.797 -0.2410 -0.1458  0.0285
 1269PYPI    C219512  12.592  16.536   5.522 -0.1164  0.0814 -0.2123
 1269PYPI    C319513  12.964  16.641   5.418  0.0311 -0.1090  0.1094
 1269PYPI   PO419514  12.811  16.575   6.014  0.0328  0.0434 -0.1653
 1269PYPI   GL119515  12.986  16.672   6.454 -0.2105  0.2072 -0.1509
 1269PYPI   GL219516  13.277  16.567   6.485  0.1047  0.1579  0.0060
 1269PYPI   C1A19517  12.881  16.415   6.816 -0.0692  0.4431  0.0485
 1269PYPI   C2A19518  12.765  16.376   7.219  0.0924  0.3339  0.0778
 1269PYPI   D3A19519  12.783  16.301   7.645 -0.0214 -0.1517 -0.2094
 1269PYPI   C4A19520  12.795  16.436   8.075 -0.0453 -0.0085  0.1840
 1269PYPI   C1B19521  13.283  16.655   6.870 -0.0296  0.0124 -0.3777
 1269PYPI   C2B19522  13.249  16.697   7.342  0.0870  0.0156  0.0060
 1269PYPI   C3B19523  13.208  16.589   7.800 -0.1162  0.2462 -0.2729
 1269PYPI   C4B19524  13.222  16.592   8.218 -0.0412  0.0743 -0.0173
 1270PYPI    C119525  15.941   1.856   5.654  0.0452  0.0340 -0.0173
 1270PYPI    C219526  16.143   1.641   5.384 -0.0501 -0.1285  0.0399
 1270PYPI    C319527  15.744   1.663   5.364 -0.0450 -0.0058  0.0698
 1270PYPI   PO419528  15.977   1.751   5.856  0.0357 -0.1019  0.2142
 1270PYPI   GL119529  16.033   1.818   6.247 -0.0310 -0.0000  0.2783
 1270PYPI   GL219530  16.223   1.736   6.371  0.0013 -0.0063  0.0984
 1270PYPI   C1A19531  15.984   1.982   6.728 -0.0691 -0.0041  0.0484
 1270PYPI   C2A19532  15.833   1.997   7.159 -0.4441 -0.1085  0.1140
 1270PYPI   D3A19533  15.898   2.003   7.580  0.2731 -0.1533 -0.0292
 1270PYPI   C4A19534  15.874   2.116   7.939  0.0334 -0.1039 -0.4164
 1270PYPI   C1B19535  16.387   1.701   6.776 -0.0823 -0.0969  0.1378
 1270PYPI   C2B19536  16.326   1.654   7.125 -0.2171 -0.1504  0.3296
 1270PYPI   C3B19537  16.295   1.769   7.536  0.0624 -0.0311  0.1210
 1270PYPI   C4B19538  16.328   1.764   7.980  0.2222 -0.4064 -0.1475
 1271PYPI    C119539   6.611  10.333   6.075 -0.0879  0.0136  0.0753
 1271PYPI    C219540   6.706   9.978   5.916  0.0144  0.0054  0.1537
 1271PYPI    C319541   6.532  10.259   5.690  0.0283 -0.0576  0.0647
 1271PYPI   PO419542   6.464  10.211   6.310 -0.1467 -0.2928  0.0386
 1271PYPI   GL119543   6.564  10.112   6.677 -0.0699 -0.1568  0.1093
 1271PYPI   GL219544   6.864  10.309   6.688 -0.1555  0.2936 -0.0156
 1271PYPI   C1A19545   6.460  10.031   7.179 -0.1959 -0.0266 -0.0405
 1271PYPI   C2A19546   6.360   9.971   7.549  0.1320  0.0105 -0.1657
 1271PYPI   D3A19547   6.433   9.960   7.981 -0.0713  0.1105  0.0897
 1271PYPI   C4A19548   6.389   9.932   8.432  0.0074  0.0299 -0.2939
 1271PYPI   C1B19549   7.156  10.147   7.036  0.1253  0.2012  0.4726
 1271PYPI   C2B19550   7.410  10.068   7.247  0.0838  0.0167  0.1398
 1271PYPI   C3B19551   7.376   9.976   7.675  0.0449 -0.2252 -0.1572
 1271PYPI   C4B19552   7.278   9.959   8.082  0.0337 -0.1507  0.0791
 1272PYPI    C119553   1.435  13.446   5.674 -0.0072 -0.2064  0.1727
 1272PYPI    C219554   1.807  13.584   5.724 -0.1030  0.0830  0.1069
 1272PYPI    C319555   1.677  13.485   5.358 -0.1236  0.0774  0.1157
 1272PYPI   PO419556   1.329  13.354   5.921 -0.2321  0.1321  0.0562
 1272PYPI   GL119557   1.450  13.295   6.340  0.3112  0.0873  0.0123
 1272PYPI   GL219558   1.416  13.606   6.376  0.0252 -0.2301 -0.3537
 1272PYPI   C1A19559   1.283  13.079   6.737  0.1509  0.3035  0.0772
 1272PYPI   C2A19560   1.273  13.099   7.177 -0.1888 -0.0383 -0.1126
 1272PYPI   D3A19561   1.258  13.113   7.650  0.0636 -0.0960  0.1291
 1272PYPI   C4A19562   1.284  13.138   8.111 -0.3644  0.0160 -0.2174
 1272PYPI   C1B19563   1.158  13.613   6.761 -0.1870 -0.1347 -0.0959
 1272PYPI   C2B19564   1.290  13.581   7.165 -0.0774 -0.1095 -0.0172
 1272PYPI   C3B19565   1.328  13.666   7.610  0.2963 -0.1885 -0.1887
 1272PYPI   C4B19566   1.235  13.700   7.987 -0.3452  0.2782 -0.0592
 1273PYPI    C119567   5.571  12.492   6.045  0.1479  0.0620  0.0978
 1273PYPI    C219568   5.755  12.246   5.789 -0.1198 -0.1188  0.0744
 1273PYPI    C319569   5.526  12.543   5.651  0.1107  0.0760  0.1038
 1273PYPI   PO419570   5.771  12.525   6.227 -0.0949 -0.1140  0.0890
 1273PYPI   GL119571   5.934  12.359   6.520 -0.0001  0.2807 -0.1095
 1273PYPI   GL219572   5.645  12.182   6.656 -0.1702 -0.1670 -0.2396
 1273PYPI   C1A19573   6.163  12.478   6.857  0.2212 -0.2066  0.0205
 1273PYPI   C2A19574   6.185  12.481   7.320 -0.1590 -0.1279 -0.0991
 1273PYPI   D3A19575   6.188  12.553   7.744  0.1261  0.0825  0.1139
 1273PYPI   C4A19576   6.199  12.474   8.105  0.0583 -0.1876 -0.1955
 1273PYPI   C1B19577   5.765  12.188   7.031  0.2874 -0.1688  0.0619
 1273PYPI   C2B19578   5.760  12.238   7.469 -0.2943 -0.2214 -0.0327
 1273PYPI   C3B19579   5.757  12.270   7.857 -0.2424 -0.3610  0.1026
 1273PYPI   C4B19580   5.773  12.271   8.274 -0.1759 -0.2085 -0.0361
 1274PYPI    C119581  16.703  16.122   5.737  0.1464 -0.1996  0.1400
 1274PYPI    C219582  17.076  16.143   5.596  0.1081  0.0145  0.0672
 1274PYPI    C319583  16.865  15.806   5.554  0.1782 -0.0001 -0.1831
 1274PYPI   PO419584  16.639  16.244   5.986 -0.0749 -0.2259 -0.0147
 1274PYPI   GL119585  16.471  16.116   6.318 -0.0261  0.0368 -0.0282
 1274PYPI   GL219586  16.677  16.020   6.458  0.1436 -0.0472  0.0459
 1274PYPI   C1A19587  16.370  16.361   6.601 -0.0248  0.3842 -0.0567
 1274PYPI   C2A19588  16.238  16.464   7.118  0.1529  0.2622  0.4430
 1274PYPI   D3A19589  16.333  16.467   7.520  0.0734 -0.3383  0.3298
 1274PYPI   C4A19590  16.306  16.513   7.963  0.0735  0.0361 -0.1935
 1274PYPI   C1B19591  16.737  16.124   6.885 -0.0181  0.3227 -0.0443
 1274PYPI   C2B19592  16.753  16.173   7.376 -0.1962  0.0271 -0.0820
 1274PYPI   C3B19593  16.792  16.207   7.803 -0.0872 -0.1009 -0.2395
 1274PYPI   C4B19594  16.746  16.348   8.219  0.3392  0.1689  0.0326
 1275PYPI    C119595  11.054  15.017   5.664 -0.1350  0.1393  0.0885
 1275PYPI    C219596  10.654  15.012   5.671 -0.1325  0.0058  0.1714
 1275PYPI    C319597  10.851  14.826   5.377 -0.1293 -0.0398  0.2024
 1275PYPI   PO419598  11.120  15.120   5.915  0.1165  0.0500 -0.3654
 1275PYPI   GL119599  11.222  14.842   6.253 -0.0265  0.0988 -0.0706
 1275PYPI   GL219600  11.548  14.952   6.479  0.3830 -0.0043 -0.1619
 1275PYPI   C1A19601  11.053  14.760   6.675 -0.0620 -0.1439  0.0035
 1275PYPI   C2A19602  11.037  14.826   7.148  0.1792 -0.2050  0.1948
 1275PYPI   D3A19603  11.024  14.852   7.586  0.2638  0.1524 -0.0000
 1275PYPI   C4A19604  11.069  14.894   8.013 -0.0036  0.1832  0.0931
 1275PYPI   C1B19605  11.488  15.060   6.941  0.0967  0.0809 -0.2106
 1275PYPI   C2B19606  11.439  15.052   7.367 -0.1389 -0.0113 -0.2478
 1275PYPI   C3B19607  11.492  15.126   7.786 -0.3468 -0.2549  0.0446
 1275PYPI   C4B19608  11.552  15.115   8.196  0.0484  0.2535  0.0821
 1276PYPI    C119609   8.877   4.028   6.238 -0.0492 -0.0147  0.4921
 1276PYPI    C219610   9.122   3.815   6.472  0.3647  0.0844  0.1616
 1276PYPI    C319611   9.086   3.724   6.084 -0.0746  0.1180  0.1886
 1276PYPI   PO419612   8.673   4.061   6.440  0.2298 -0.2659 -0.0734
 1276PYPI   GL119613   8.713   3.815   6.777 -0.4127 -0.0340  0.2035
 1276PYPI   GL219614   8.773   3.459   6.835 -0.1805 -0.0181  0.3244
 1276PYPI   C1A19615   8.752   3.900   7.202 -0.0189 -0.1479  0.1511
 1276PYPI   C2A19616   8.712   3.955   7.708 -0.0931 -0.0467 -0.2175
 1276PYPI   D3A19617   8.786   4.086   8.133 -0.0421 -0.0751 -0.0391
 1276PYPI   C4A19618   9.215   4.252   8.113  0.0924 -0.4663 -0.0664
 1276PYPI   C1B19619   8.676   3.417   7.256 -0.0377 -0.0400  0.1559
 1276PYPI   C2B19620   8.895   3.533   7.616  0.0619 -0.2752 -0.0365
 1276PYPI   C3B19621   8.763   3.534   8.109 -0.0286  0.2307 -0.0763
 1276PYPI   C4B19622   8.754   3.619   8.520  0.0398  0.3488 -0.0315
 1277PYPI    C119623  13.612   5.345   5.712  0.0866 -0.0197 -0.0777
 1277PYPI    C219624  13.982   5.339   5.559  0.0642 -0.1596 -0.1281
 1277PYPI    C319625  13.808   5.688   5.648  0.1467 -0.0854 -0.2541
 1277PYPI   PO419626  13.656   5.052   5.849  0.1121 -0.2474  0.1619
 1277PYPI   GL119627  13.597   5.052   6.237 -0.0678  0.0084 -0.0510
 1277PYPI   GL219628  13.526   5.286   6.382 -0.0276 -0.0518 -0.0998
 1277PYPI   C1A19629  13.492   4.851   6.607  0.0233  0.0497  0.1207
 1277PYPI   C2A19630  13.578   4.916   7.075  0.0033 -0.1098 -0.4302
 1277PYPI   D3A19631  13.576   4.866   7.492  0.0159 -0.0465  0.1940
 1277PYPI   C4A19632  13.660   4.825   7.949  0.0175 -0.2671  0.0824
 1277PYPI   C1B19633  13.511   5.353   6.866  0.0505  0.0383  0.0349
 1277PYPI   C2B19634  13.583   5.400   7.309 -0.0931  0.1077 -0.0494
 1277PYPI   C3B19635  13.625   5.353   7.725 -0.1832  0.2916  0.0562
 1277PYPI   C4B19636  13.607   5.423   8.177  0.0947 -0.1593 -0.0518
 1278PYPI    C119637   2.362   7.139   5.749  0.0302 -0.1741 -0.0305
 1278PYPI    C219638   2.165   7.450   5.592  0.0135 -0.0625  0.2057
 1278PYPI    C319639   2.235   7.124   5.371  0.0028  0.0954 -0.0343
 1278PYPI   PO419640   2.271   7.095   5.993 -0.0340  0.0418  0.1863
 1278PYPI   GL119641   2.297   7.220   6.409 -0.0604 -0.2335  0.0042
 1278PYPI   GL219642   2.433   6.922   6.446 -0.1949 -0.0975 -0.2546
 1278PYPI   C1A19643   2.382   7.471   6.803  0.0548 -0.0245  0.1002
 1278PYPI   C2A19644   2.346   7.465   7.143  0.1958  0.2167  0.0321
 1278PYPI   D3A19645   2.314   7.515   7.567  0.0353  0.1362  0.0494
 1278PYPI   C4A19646   2.480   7.472   8.016  0.1419  0.2549 -0.0834
 1278PYPI   C1B19647   2.379   6.961   6.797 -0.1448  0.0144  0.0575
 1278PYPI   C2B19648   2.396   6.921   7.228 -0.1485  0.0518 -0.0298
 1278PYPI   C3B19649   2.354   7.015   7.692 -0.0765 -0.1848  0.0044
 1278PYPI   C4B19650   2.400   6.961   8.112  0.0251 -0.0568  0.1092
 1279PYPI    C119651  14.916   1.158   6.066  0.1803 -0.1371 -0.2887
 1279PYPI    C219652  14.973   1.097   5.675 -0.0859 -0.2821 -0.3070
 1279PYPI    C319653  15.254   1.281   5.892  0.0332 -0.1373 -0.5799
 1279PYPI   PO419654  14.698   1.015   6.070 -0.3237 -0.3069 -0.0672
 1279PYPI   GL119655  14.552   0.835   6.433 -0.0319 -0.0865  0.1927
 1279PYPI   GL219656  14.442   1.142   6.445 -0.1541 -0.0246 -0.2290
 1279PYPI   C1A19657  14.551   0.613   6.828  0.2346 -0.1294  0.0303
 1279PYPI   C2A19658  14.600   0.648   7.247 -0.1104 -0.1001  0.0456
 1279PYPI   D3A19659  14.510   0.624   7.576  0.0904  0.2325 -0.3745
 1279PYPI   C4A19660  14.548   0.687   8.082  0.2769  0.2553 -0.2600
 1279PYPI   C1B19661  14.567   1.162   6.891 -0.0817 -0.3575  0.0501
 1279PYPI   C2B19662  14.511   1.089   7.310  0.0488  0.0017 -0.2979
 1279PYPI   C3B19663  14.577   1.132   7.675 -0.0484  0.2749 -0.1197
 1279PYPI   C4B19664  14.556   1.192   8.079 -0.0389  0.1641 -0.0712
 1280ERGO   ROH19665   0.179   8.148   6.839  0.1742  0.0382  0.1916
 1280ERGO    R119666   0.044   8.211   7.080  0.0101 -0.0755  0.1336
 1280ERGO    R219667  -0.004   8.023   7.277  0.0790 -0.1248  0.1187
 1280ERGO    R319668   0.122   8.204   7.436 -0.1371 -0.0138  0.1642
 1280ERGO    R419669   0.008   8.010   7.622 -0.0188 -0.0939  0.1224
 1280ERGO    R519670  -0.020   8.226   7.627 -0.2092 -0.1299  0.1131
 1280ERGO    C119671   0.134   8.172   7.972 -0.2785  0.0283  0.1673
 1280ERGO    C219672   0.196   8.340   8.356 -0.1159 -0.1754  0.0663
 1281ERGO   ROH19673   8.536   5.780   6.829  0.1205 -0.1060  0.1079
 1281ERGO    R119674   8.393   5.842   7.065  0.0845  0.0029  0.0574
 1281ERGO    R219675   8.327   5.651   7.253 -0.1189  0.0552  0.0370
 1281ERGO    R319676   8.453   5.822   7.423 -0.0541 -0.0335  0.0800
 1281ERGO    R419677   8.235   5.706   7.582 -0.1258  0.0299  0.0396
 1281ERGO    R519678   8.275   5.918   7.553 -0.0262  0.0214  0.0828
 1281ERGO    C119679   8.299   5.898   7.933 -0.0690 -0.0681  0.0815
 1281ERGO    C219680   8.328   5.898   8.220 -0.1687  0.0905 -0.0121
 1282ERGO   ROH19681   2.507  14.227   6.610 -0.0718  0.2312 -0.0382
 1282ERGO    R119682   2.640  14.276   6.855  0.0281  0.1155 -0.0682
 1282ERGO    R219683   2.581  14.493   7.015  0.0731  0.0240  0.0728
 1282ERGO    R319684   2.548  14.302   7.206  0.1766 -0.0807 -0.0122
 1282ERGO    R419685   2.595  14.550   7.355 -0.0299 -0.1020  0.0990
 1282ERGO    R519686   2.704  14.362   7.377  0.1042 -0.0351  0.0401
 1282ERGO    C119687   2.572  14.405   7.733  0.0073 -0.2737  0.0344
 1282ERGO    C219688   2.625  14.537   8.067 -0.0956  0.0040  0.1110
 1283ERGO   ROH19689   8.171   9.216   6.552 -0.1286  0.1098  0.0530
 1283ERGO    R119690   8.236   9.028   6.753  0.1433  0.0592 -0.0765
 1283ERGO    R219691   8.416   9.083   6.956  0.0616  0.1839 -0.0310
 1283ERGO    R319692   8.209   9.009   7.115  0.1583 -0.2324 -0.0895
 1283ERGO    R419693   8.428   9.066   7.301  0.0816 -0.1144 -0.0446
 1283ERGO    R519694   8.312   8.883   7.291  0.3214 -0.2593 -0.2063
 1283ERGO    C119695   8.242   8.987   7.651  0.1842 -0.6789 -0.1074
 1283ERGO    C219696   8.232   8.942   8.014 -0.0459 -0.0742 -0.2236
 1284ERGO   ROH19697  13.313  17.084   6.509  0.1470 -0.0053 -0.1675
 1284ERGO    R119698  13.310  17.201   6.767  0.2990 -0.1051 -0.1198
 1284ERGO    R219699  13.087  17.195   6.930  0.2248  0.2795 -0.2031
 1284ERGO    R319700  13.261  17.086   7.109 -0.0532 -0.1549 -0.1822
 1284ERGO    R419701  13.041  17.192   7.272  0.2284  0.5208 -0.1982
 1284ERGO    R519702  13.253  17.235   7.296  0.3704 -0.0593 -0.2285
 1284ERGO    C119703  13.176  17.088   7.640 -0.0305  0.2534 -0.1758
 1284ERGO    C219704  13.236  17.155   7.947  0.0261  0.1542 -0.1080
 1285ERGO   ROH19705  16.061  10.852   6.696 -0.0469  0.0018 -0.0345
 1285ERGO    R119706  15.951  10.998   6.912  0.0284 -0.0507  0.0400
 1285ERGO    R219707  15.847  10.876   7.136  0.0523 -0.1075  0.0187
 1285ERGO    R319708  16.020  11.040   7.266  0.1119 -0.1871  0.0409
 1285ERGO    R419709  15.874  10.901   7.480 -0.1760  0.0766  0.0258
 1285ERGO    R519710  15.897  11.117   7.457  0.0406  0.0455 -0.0935
 1285ERGO    C119711  16.052  11.069   7.802 -0.2531  0.1092  0.0508
 1285ERGO    C219712  16.098  11.088   8.106  0.4673  0.3302  0.2936
 1286ERGO   ROH19713   3.927   6.078   6.553 -0.0332  0.0011 -0.0527
 1286ERGO    R119714   3.901   6.221   6.796 -0.0466 -0.0283 -0.0379
 1286ERGO    R219715   3.674   6.206   6.953 -0.0476 -0.0565 -0.0490
 1286ERGO    R319716   3.853   6.139   7.147 -0.0528 -0.0682 -0.0469
 1286ERGO    R419717   3.634   6.269   7.291 -0.1362 -0.2146 -0.0283
 1286ERGO    R519718   3.845   6.321   7.301 -0.1549 -0.1331  0.0299
 1286ERGO    C119719   3.778   6.242   7.669 -0.1928 -0.3177 -0.0143
 1286ERGO    C219720   3.780   6.265   8.019 -0.0379 -0.0751 -0.1342
 1287ERGO   ROH19721   3.920   2.008   6.787  0.0871 -0.2161 -0.0510
 1287ERGO    R119722   3.949   1.914   7.052  0.1108  0.0583  0.0459
 1287ERGO    R219723   4.143   2.010   7.224  0.0635  0.3041 -0.0399
 1287ERGO    R319724   3.930   2.057   7.387  0.0399  0.3832 -0.0915
 1287ERGO    R419725   4.165   2.099   7.557  0.0248 -0.0794  0.0710
 1287ERGO    R519726   3.996   1.967   7.599 -0.1593  0.0699 -0.1510
 1287ERGO    C119727   3.978   2.195   7.904 -0.0199 -0.2286  0.0872
 1287ERGO    C219728   4.138   2.213   8.148 -0.2166 -0.0217  0.1880
 1288ERGO   ROH19729  15.659  11.434   6.689 -0.1216  0.2828 -0.0383
 1288ERGO    R119730  15.675  11.594   6.923 -0.1222  0.1900  0.0259
 1288ERGO    R219731  15.466  11.614   7.103 -0.0732  0.0097  0.1069
 1288ERGO    R319732  15.656  11.539   7.282  0.0250  0.0246  0.0096
 1288ERGO    R419733  15.472  11.708   7.436  0.0761 -0.0089  0.1101
 1288ERGO    R519734  15.688  11.732   7.420  0.0658  0.0210  0.0053
 1288ERGO    C119735  15.653  11.692   7.798  0.2553 -0.0057  0.0205
 1288ERGO    C219736  15.535  11.788   8.078 -0.2045  0.1718 -0.0000
 1289ERGO   ROH19737   1.634   9.384   6.525  0.0905  0.0460 -0.1587
 1289ERGO    R119738   1.694   9.246   6.765 -0.0754 -0.0339 -0.1632
 1289ERGO    R219739   1.905   9.316   6.929 -0.0775 -0.2058 -0.0917
 1289ERGO    R319740   1.711   9.326   7.119 -0.1243 -0.1055 -0.1430
 1289ERGO    R419741   1.961   9.355   7.268 -0.1442 -0.1494 -0.0862
 1289ERGO    R519742   1.804   9.209   7.306 -0.2018 -0.0965 -0.0939
 1289ERGO    C119743   1.812   9.387   7.644 -0.2269 -0.0223 -0.1311
 1289ERGO    C219744   1.865   9.412   7.940 -0.0135 -0.1434 -0.0542
 1290ERGO   ROH19745  13.631  13.554   6.542 -0.1911 -0.0064 -0.0225
 1290ERGO    R119746  13.778  13.613   6.777 -0.1585  0.1439 -0.0782
 1290ERGO    R219747  13.744  13.848   6.919 -0.4199  0.0707 -0.0092
 1290ERGO    R319748  13.701  13.678   7.127 -0.0881 -0.0427 -0.0273
 1290ERGO    R419749  13.755  13.935   7.253 -0.4345  0.0157  0.0053
 1290ERGO    R519750  13.856  13.747   7.295 -0.1319  0.1573 -0.0692
 1290ERGO    C119751  13.720  13.827   7.643 -0.1314 -0.1225 -0.0033
 1290ERGO    C219752  13.778  13.771   8.057  0.0319  0.1453 -0.1765
 1291ERGO   ROH19753  13.602   6.489   6.570 -0.0574  0.1697  0.0953
 1291ERGO    R119754  13.515   6.420   6.830  0.0511 -0.0058  0.0884
 1291ERGO    R219755  13.672   6.277   7.007  0.1702 -0.0416 -0.0288
 1291ERGO    R319756  13.621   6.487   7.171  0.1348 -0.1414  0.0862
 1291ERGO    R419757  13.732   6.281   7.347 -0.0232 -0.2671  0.0097
 1291ERGO    R519758  13.544   6.387   7.374 -0.0005 -0.2436 -0.0242
 1291ERGO    C119759  13.719   6.482   7.700 -0.1690 -0.4921  0.1401
 1291ERGO    C219760  13.760   6.513   8.048  0.2385 -0.1696  0.2970
 1292ERGO   ROH19761  11.530  10.840   6.613  0.1129  0.0223  0.1395
 1292ERGO    R119762  11.400  10.822   6.863  0.0892  0.3033  0.1501
 1292ERGO    R219763  11.510  10.689   7.079 -0.1826  0.0496  0.1292
 1292ERGO    R319764  11.468  10.926   7.205  0.3499  0.1458  0.1517
 1292ERGO    R419765  11.517  10.734   7.421 -0.6420 -0.1658  0.1754
 1292ERGO    R519766  11.345  10.867   7.402 -0.2116  0.4146 -0.0850
 1292ERGO    C119767  11.481  10.984   7.739 -0.4097 -0.2011  0.2235
 1292ERGO    C219768  11.407  10.963   8.164  0.1695 -0.0928  0.2386
 1293ERGO   ROH19769   8.936   5.554   7.012 -0.0526  0.0384  0.1221
 1293ERGO    R119770   8.786   5.606   7.246 -0.1680 -0.1332  0.0874
 1293ERGO    R219771   8.767   5.424   7.453  0.1368 -0.0884  0.1559
 1293ERGO    R319772   8.853   5.635   7.603 -0.2482  0.1309  0.0841
 1293ERGO    R419773   8.744   5.444   7.798  0.3193 -0.1357  0.1720
 1293ERGO    R519774   8.690   5.655   7.777 -0.1913 -0.2479  0.1944
 1293ERGO    C119775   8.812   5.653   8.138  0.0640  0.0427  0.1141
 1293ERGO    C219776   8.817   5.750   8.545 -0.3872 -0.3686 -0.0714
 1294ERGO   ROH19777   3.975  13.778   6.583  0.2434 -0.0395 -0.2206
 1294ERGO    R119778   3.907  13.822   6.855 -0.0042 -0.1565 -0.2610
 1294ERGO    R219779   3.810  13.620   7.018  0.2239 -0.3284 -0.3304
 1294ERGO    R319780   4.017  13.695   7.178  0.0053  0.0164 -0.1958
 1294ERGO    R419781   3.797  13.640   7.363 -0.0226 -0.3516 -0.3362
 1294ERGO    R519782   3.915  13.822   7.353 -0.3177 -0.1522 -0.2556
 1294ERGO    C119783   3.984  13.720   7.714 -0.3714 -0.0416 -0.2133
 1294ERGO    C219784   3.968  13.749   8.050  0.2077 -0.0236  0.0835
 1295ERGO   ROH19785   3.978   3.122   6.761 -0.0501  0.0100 -0.0503
 1295ERGO    R119786   3.909   3.024   7.017 -0.1579 -0.0100 -0.0858
 1295ERGO    R219787   4.093   3.004   7.223 -0.2107 -0.1586 -0.0515
 1295ERGO    R319788   3.910   3.152   7.358 -0.1563 -0.0861 -0.0569
 1295ERGO    R419789   4.047   2.997   7.565 -0.0351  0.0637 -0.0214
 1295ERGO    R519790   3.832   3.006   7.531 -0.0544  0.0202  0.0805
 1295ERGO    C119791   3.848   3.132   7.891  0.1182  0.2613 -0.0089
 1295ERGO    C219792   3.918   3.199   8.147 -0.1509  0.0829 -0.2964
 1296ERGO   ROH19793  12.739  11.654   6.632 -0.0699 -0.2258  0.0782
 1296ERGO    R119794  12.684  11.587   6.901  0.0495 -0.1929  0.1118
 1296ERGO    R219795  12.884  11.558   7.091  0.1266 -0.0380  0.0611
 1296ERGO    R319796  12.736  11.740   7.227  0.0662 -0.0860  0.0582
 1296ERGO    R419797  12.898  11.608   7.432  0.0415 -0.0859  0.0711
 1296ERGO    R519798  12.681  11.631   7.433  0.0406 -0.1241  0.0285
 1296ERGO    C119799  12.767  11.808   7.759 -0.0647 -0.1589  0.0743
 1296ERGO    C219800  12.928  11.761   8.023 -0.0710  0.1291  0.0557
 1297ERGO   ROH19801  10.951   4.665   6.761 -0.0066 -0.0454 -0.1203
 1297ERGO    R119802  10.931   4.818   6.998 -0.0946 -0.0321 -0.1360
 1297ERGO    R219803  10.794   4.730   7.222  0.0650 -0.1455 -0.0845
 1297ERGO    R319804  11.031   4.780   7.346  0.0519  0.1199 -0.1585
 1297ERGO    R419805  10.829   4.810   7.556  0.0851 -0.3214 -0.0437
 1297ERGO    R519806  10.981   4.955   7.501 -0.1480 -0.0521 -0.0169
 1297ERGO    C119807  11.071   4.903   7.868  0.0846 -0.1745 -0.0894
 1297ERGO    C219808  11.016   4.903   8.133  0.1112 -0.4054 -0.1005
 1298ERGO   ROH19809   7.764  14.956   6.524  0.2553 -0.3936  0.1291
 1298ERGO    R119810   7.906  14.989   6.766  0.1619  0.0001  0.1358
 1298ERGO    R219811   7.886  15.217   6.920 -0.3441  0.0201  0.0500
 1298ERGO    R319812   7.824  15.040   7.117  0.0115 -0.0473  0.1088
 1298ERGO    R419813   7.949  15.265   7.257 -0.2229  0.1563  0.0092
 1298ERGO    R519814   8.007  15.055   7.270  0.0819  0.2316  0.0064
 1298ERGO    C119815   7.929  15.127   7.637  0.1814  0.1722  0.0405
 1298ERGO    C219816   7.887  15.077   7.915  0.3991  0.0151  0.0106
 1299ERGO   ROH19817   5.588   1.708   6.606 -0.0624 -0.1215 -0.0421
 1299ERGO    R119818   5.494   1.766   6.867  0.0686  0.0165 -0.0238
 1299ERGO    R219819   5.411   1.569   7.043 -0.1094  0.1281  0.0205
 1299ERGO    R319820   5.593   1.686   7.208  0.0667 -0.0556 -0.0399
 1299ERGO    R419821   5.443   1.503   7.380 -0.1456  0.1781  0.0335
 1299ERGO    R519822   5.476   1.715   7.414  0.1313  0.1508 -0.0296
 1299ERGO    C119823   5.632   1.573   7.732 -0.0013  0.0347 -0.0155
 1299ERGO    C219824   5.714   1.565   8.145 -0.1736 -0.1091 -0.0002
 1300ERGO   ROH19825   6.972  12.238   6.637  0.0441 -0.1157  0.0979
 1300ERGO    R119826   7.112  12.372   6.844  0.0552 -0.1111  0.0876
 1300ERGO    R219827   6.991  12.558   7.009  0.0944 -0.0117  0.0090
 1300ERGO    R319828   7.088  12.397   7.206 -0.0120  0.0043  0.0751
 1300ERGO    R419829   6.951  12.613   7.348 -0.0612  0.0260 -0.0148
 1300ERGO    R519830   7.156  12.548   7.378 -0.0831  0.0149  0.0913
 1300ERGO    C119831   7.019  12.494   7.730 -0.2518  0.0630  0.0335
 1300ERGO    C219832   7.002  12.466   7.982 -0.3131  0.1804  0.0012
 1301ERGO   ROH19833   1.286   0.673   6.528  0.0608  0.1847 -0.0837
 1301ERGO    R119834   1.268   0.855   6.744  0.3343  0.0290  0.0736
 1301ERGO    R219835   1.059   0.852   6.924  0.2531  0.2754 -0.0298
 1301ERGO    R319836   1.259   0.835   7.107  0.1459 -0.2813  0.0592
 1301ERGO    R419837   1.020   0.899   7.265  0.2297  0.5604 -0.0677
 1301ERGO    R519838   1.209   1.007   7.266  0.6048 -0.0211 -0.0443
 1301ERGO    C119839   1.185   0.910   7.634  0.1155  0.2038 -0.0063
 1301ERGO    C219840   1.167   0.987   7.989 -0.2201  0.0129  0.2787
 1302ERGO   ROH19841   4.666  16.386   6.632  0.0371 -0.2976 -0.0310
 1302ERGO    R119842   4.772  16.264   6.865 -0.1541 -0.3010  0.0546
 1302ERGO    R219843   4.936  16.399   7.043 -0.0971 -0.3780  0.0508
 1302ERGO    R319844   4.750  16.316   7.224 -0.2308 -0.1402  0.0291
 1302ERGO    R419845   4.968  16.425   7.386 -0.2201 -0.1657  0.0495
 1302ERGO    R519846   4.879  16.227   7.405 -0.3567 -0.1038  0.1444
 1302ERGO    C119847   4.813  16.362   7.755 -0.4172  0.1810  0.0283
 1302ERGO    C219848   4.880  16.323   8.023 -0.1015 -0.0082 -0.0696
 1303ERGO   ROH19849   9.459   4.628   6.844  0.1355 -0.0664 -0.0435
 1303ERGO    R119850   9.300   4.619   7.078  0.1204 -0.1179 -0.0573
 1303ERGO    R219851   9.359   4.453   7.292  0.2383  0.0081 -0.0001
 1303ERGO    R319852   9.348   4.685   7.433  0.0263  0.0461 -0.0721
 1303ERGO    R419853   9.273   4.478   7.626  0.1706  0.0260 -0.0176
 1303ERGO    R519854   9.160   4.658   7.578  0.0217 -0.0745 -0.0899
 1303ERGO    C119855   9.213   4.711   7.952 -0.0679  0.0721 -0.0954
 1303ERGO    C219856   9.283   4.885   8.178  0.2763 -0.1430  0.1376
 1304ERGO   ROH19857   6.062   6.036   6.894  0.0290 -0.1788 -0.0760
 1304ERGO    R119858   5.946   6.013   7.151  0.1059 -0.3987 -0.0563
 1304ERGO    R219859   6.054   5.855   7.350  0.4171 -0.2336 -0.0773
 1304ERGO    R319860   6.045   6.085   7.494  0.0439 -0.2485 -0.0710
 1304ERGO    R419861   6.087   5.874   7.694  0.3519 -0.1875 -0.0756
 1304ERGO    R519862   5.930   6.025   7.695  0.1172 -0.4319 -0.0863
 1304ERGO    C119863   6.098   6.102   8.029 -0.0364 -0.1747 -0.0687
 1304ERGO    C219864   6.224   6.156   8.392  0.0685  0.2679  0.1290
 1305ERGO   ROH19865  14.944   4.050   6.274  0.0198  0.3432 -0.0040
 1305ERGO    R119866  14.944   3.942   6.535  0.1347  0.1137 -0.0961
 1305ERGO    R219867  15.100   4.043   6.739 -0.0264  0.1536  0.0103
 1305ERGO    R319868  14.863   4.059   6.870 -0.0682 -0.2835 -0.0001
 1305ERGO    R419869  15.067   4.054   7.082 -0.0597  0.0868  0.0089
 1305ERGO    R519870  14.895   3.921   7.064  0.1788 -0.2342 -0.0014
 1305ERGO    C119871  14.825   4.074   7.406 -0.1184 -0.3625 -0.0016
 1305ERGO    C219872  14.822   4.040   7.689 -0.3343  0.0238 -0.0234
 1306ERGO   ROH19873  16.652   7.190   6.655  0.0233  0.3209  0.0862
 1306ERGO    R119874  16.789   7.096   6.885 -0.2199  0.0306  0.1169
 1306ERGO    R219875  17.001   7.232   6.999  0.0351 -0.4017  0.1720
 1306ERGO    R319876  16.849   7.214   7.224 -0.0583 -0.1035  0.1379
 1306ERGO    R419877  17.102   7.331   7.314  0.0563 -0.3315  0.1441
 1306ERGO    R519878  17.004   7.154   7.396 -0.1709 -0.1821  0.2186
 1306ERGO    C119879  17.019   7.371   7.709 -0.0191 -0.0107  0.0960
 1306ERGO    C219880  17.115   7.406   8.083  0.1029 -0.1799 -0.3186
 1307ERGO   ROH19881   2.540  11.903   6.539  0.3214 -0.1877  0.0702
 1307ERGO    R119882   2.641  11.804   6.784  0.4334 -0.0531  0.0803
 1307ERGO    R219883   2.832  11.939   6.931  0.1313  0.2867  0.1778
 1307ERGO    R319884   2.648  11.914   7.130  0.1033 -0.1144  0.1095
 1307ERGO    R419885   2.904  11.946   7.269  0.0062  0.3159  0.2038
 1307ERGO    R519886   2.760  11.786   7.299  0.2868  0.0353  0.1047
 1307ERGO    C119887   2.774  11.927   7.653 -0.0929 -0.0435  0.1549
 1307ERGO    C219888   2.728  11.956   8.027 -0.2106 -0.0591 -0.0290
 1308ERGO   ROH19889   1.789   1.578   6.327 -0.0213  0.0283 -0.1169
 1308ERGO    R119890   1.778   1.761   6.543  0.2911 -0.0335 -0.0453
 1308ERGO    R219891   1.578   1.754   6.734  0.1564  0.3568 -0.1660
 1308ERGO    R319892   1.788   1.741   6.906  0.0382 -0.2200 -0.0454
 1308ERGO    R419893   1.554   1.772   7.079 -0.0022  0.2947 -0.1729
 1308ERGO    R519894   1.733   1.895   7.080  0.3118 -0.1364 -0.0268
 1308ERGO    C119895   1.737   1.769   7.440 -0.2055 -0.2828 -0.0636
 1308ERGO    C219896   1.679   1.786   7.848  0.0659 -0.0508  0.0187
 1309ERGO   ROH19897  10.293   6.990   6.988 -0.0371  0.1423 -0.0647
 1309ERGO    R119898  10.139   7.074   7.210 -0.0059  0.1175 -0.0329
 1309ERGO    R219899  10.038   6.896   7.397 -0.1383  0.0747 -0.1387
 1309ERGO    R319900  10.168   7.058   7.573 -0.0481 -0.1037 -0.0388
 1309ERGO    R419901   9.984   6.903   7.738 -0.2952  0.0605 -0.1631
 1309ERGO    R519902  10.001   7.119   7.732 -0.0579  0.0424 -0.1075
 1309ERGO    C119903  10.074   7.059   8.102 -0.3019 -0.1152 -0.0834
 1309ERGO    C219904  10.107   6.981   8.478  0.1294  0.0805 -0.2024
 1310ERGO   ROH19905  15.860   4.988   6.524 -0.0959 -0.2417 -0.0727
 1310ERGO    R119906  15.769   5.047   6.785  0.0781 -0.1180 -0.0383
 1310ERGO    R219907  15.747   4.854   6.982  0.0463 -0.0583  0.0184
 1310ERGO    R319908  15.904   5.025   7.123  0.2382 -0.1312 -0.1026
 1310ERGO    R419909  15.761   4.870   7.327 -0.1014  0.3142  0.0120
 1310ERGO    R519910  15.770   5.087   7.311  0.2354  0.2904 -0.2342
 1310ERGO    C119911  15.917   5.040   7.660 -0.0074  0.4627 -0.1054
 1310ERGO    C219912  15.881   5.019   8.040 -0.0632 -0.0513 -0.2465
 1311ERGO   ROH19913  12.813  11.229   6.702 -0.2189 -0.2335  0.1905
 1311ERGO    R119914  12.783  11.093   6.949 -0.1174 -0.0767  0.2919
 1311ERGO    R219915  12.974  11.101   7.148 -0.0554  0.0894  0.2286
 1311ERGO    R319916  12.765  11.184   7.300 -0.0221  0.1539  0.2387
 1311ERGO    R419917  12.996  11.190   7.481 -0.0024  0.1302  0.2140
 1311ERGO    R519918  12.807  11.088   7.516 -0.0201  0.1747  0.2474
 1311ERGO    C119919  12.813  11.320   7.818  0.0597  0.2145  0.2151
 1311ERGO    C219920  12.878  11.253   8.191 -0.1528 -0.1303  0.0390
 1312ERGO   ROH19921  11.696  11.263   6.568  0.0099  0.1250 -0.1570
 1312ERGO    R119922  11.574  11.403   6.782 -0.1057 -0.0941 -0.0759
 1312ERGO    R219923  11.408  11.280   6.965  0.0313 -0.3465 -0.1117
 1312ERGO    R319924  11.580  11.389   7.145 -0.0500 -0.2632 -0.0843
 1312ERGO    R419925  11.333  11.345   7.296 -0.0732 -0.2778 -0.1484
 1312ERGO    R519926  11.443  11.532   7.279 -0.1146 -0.2623 -0.1592
 1312ERGO    C119927  11.450  11.485   7.658 -0.2102 -0.1595 -0.1440
 1312ERGO    C219928  11.473  11.509   8.034  0.0493  0.0060  0.3018
 1313ERGO   ROH19929  16.102  12.311   6.453  0.0203 -0.0406  0.0332
 1313ERGO    R119930  16.073  12.501   6.661  0.1103  0.0929 -0.0750
 1313ERGO    R219931  15.883  12.477   6.860 -0.0101  0.3802 -0.1487
 1313ERGO    R319932  16.098  12.502   7.024 -0.0593  0.2472 -0.0629
 1313ERGO    R419933  15.869  12.483   7.205 -0.1212  0.2343 -0.1497
 1313ERGO    R519934  16.021  12.639   7.204 -0.0775  0.1898 -0.0293
 1313ERGO    C119935  16.063  12.509   7.560 -0.2322  0.0244 -0.0697
 1313ERGO    C219936  15.991  12.562   7.946 -0.0965 -0.0162 -0.0538
 1314ERGO   ROH19937   6.213   9.521   6.672 -0.1916  0.0773  0.0061
 1314ERGO    R119938   6.309   9.415   6.916 -0.2648 -0.0639 -0.0248
 1314ERGO    R219939   6.482   9.553   7.082  0.0608 -0.3416 -0.1155
 1314ERGO    R319940   6.291   9.504   7.269  0.0498  0.0156 -0.0270
 1314ERGO    R419941   6.538   9.533   7.422  0.1519 -0.3184 -0.1297
 1314ERGO    R519942   6.399   9.366   7.430 -0.1069 -0.1018 -0.0234
 1314ERGO    C119943   6.392   9.475   7.796  0.1948  0.0304 -0.0550
 1314ERGO    C219944   6.379   9.451   8.148 -0.1417 -0.0688 -0.1254
 1315ERGO   ROH19945  14.793  12.541   6.376  0.1834  0.2887 -0.1045
 1315ERGO    R119946  14.786  12.705   6.606  0.1497  0.1660 -0.0184
 1315ERGO    R219947  14.577  12.699   6.787  0.0684  0.1553 -0.1201
 1315ERGO    R319948  14.777  12.654   6.966 -0.0337 -0.0233 -0.0464
 1315ERGO    R419949  14.552  12.750   7.128 -0.0797 -0.0082 -0.1041
 1315ERGO    R519950  14.754  12.831   7.126 -0.0381 -0.0905  0.0343
 1315ERGO    C119951  14.724  12.738   7.495 -0.2617 -0.2712 -0.0256
 1315ERGO    C219952  14.732  12.813   7.807  0.2006 -0.1977  0.2259
 1316ERGO   ROH19953   3.787   0.469   6.835 -0.0178  0.3041 -0.0581
 1316ERGO    R119954   3.894   0.411   7.091  0.0732  0.2647 -0.1040
 1316ERGO    R219955   4.010   0.603   7.251 -0.0308  0.2797 -0.0378
 1316ERGO    R319956   3.830   0.514   7.434  0.0628  0.0684 -0.0472
 1316ERGO    R419957   4.032   0.655   7.592 -0.0753  0.2293 -0.0276
 1316ERGO    R519958   3.963   0.451   7.623  0.1254  0.1593 -0.0654
 1316ERGO    C119959   3.876   0.601   7.962 -0.0134  0.0016 -0.0304
 1316ERGO    C219960   3.908   0.632   8.268  0.0939 -0.2543  0.1479
 1317ERGO   ROH19961  15.263   9.328   6.549  0.2287 -0.1027  0.0114
 1317ERGO    R119962  15.116   9.403   6.779  0.0532 -0.1995 -0.0661
 1317ERGO    R219963  14.987   9.219   6.940  0.2323 -0.3086 -0.0391
 1317ERGO    R319964  15.133   9.336   7.136  0.0225 -0.0424 -0.0351
 1317ERGO    R419965  14.906   9.216   7.276  0.0837 -0.2044 -0.0731
 1317ERGO    R519966  14.970   9.423   7.288 -0.1397 -0.1263 -0.1579
 1317ERGO    C119967  14.996   9.324   7.656 -0.1997  0.1062 -0.0891
 1317ERGO    C219968  15.134   9.439   7.972  0.1592 -0.2831  0.1992
 1318ERGO   ROH19969  16.806  11.550   6.567 -0.2330 -0.1035 -0.0210
 1318ERGO    R119970  16.767  11.468   6.835 -0.1294 -0.0742  0.0041
 1318ERGO    R219971  16.975  11.388   6.998 -0.0590 -0.0133 -0.0519
 1318ERGO    R319972  16.875  11.579   7.164 -0.0407 -0.0079 -0.0476
 1318ERGO    R419973  17.017  11.394   7.341  0.0533  0.0499 -0.0668
 1318ERGO    R519974  16.810  11.459   7.361  0.0486  0.0118 -0.0075
 1318ERGO    C119975  16.949  11.577   7.697  0.1361  0.0918 -0.0714
 1318ERGO    C219976  16.952  11.548   8.071  0.0131 -0.0922  0.3570
 1319ERGO   ROH19977   3.918  12.094   6.471  0.0241  0.1076  0.0747
 1319ERGO    R119978   3.952  12.209   6.728 -0.0289  0.1035  0.0825
 1319ERGO    R219979   3.749  12.219   6.914 -0.0071 -0.0755  0.1098
 1319ERGO    R319980   3.933  12.096   7.073  0.1084  0.0505  0.0746
 1319ERGO    R419981   3.796  12.286   7.250 -0.1638 -0.2130  0.1614
 1319ERGO    R519982   4.011  12.270   7.218 -0.1326  0.0655  0.1949
 1319ERGO    C119983   3.996  12.210   7.594 -0.1466 -0.1745  0.1583
 1319ERGO    C219984   4.003  12.203   7.980 -0.3213 -0.1227 -0.0823
 1320ERGO   ROH19985  14.095   4.279   6.250 -0.0213  0.0452 -0.0520
 1320ERGO    R119986  14.011   4.215   6.512 -0.0504 -0.0912 -0.0941
 1320ERGO    R219987  14.059   3.968   6.629  0.1997 -0.0513 -0.1094
 1320ERGO    R319988  14.170   4.119   6.825 -0.0586  0.0583 -0.0433
 1320ERGO    R419989  14.035   3.903   6.967  0.2613 -0.2091 -0.1343
 1320ERGO    R519990  14.009   4.115   7.002 -0.0779 -0.2561 -0.0617
 1320ERGO    C119991  14.125   4.007   7.349  0.0546 -0.1982 -0.0869
 1320ERGO    C219992  14.022   4.074   7.721  0.0513  0.2994 -0.2696
 1321ERGO   ROH19993   6.551  10.767   6.881 -0.0392  0.0340  0.0833
 1321ERGO    R119994   6.569  10.552   7.064  0.0956 -0.0049  0.0262
 1321ERGO    R219995   6.801  10.493   7.203  0.0471  0.3033  0.2506
 1321ERGO    R319996   6.638  10.512   7.420 -0.2177 -0.0178  0.0888
 1321ERGO    R419997   6.875  10.369   7.516 -0.0372  0.4105  0.3134
 1321ERGO    R519998   6.668  10.304   7.534  0.0553  0.0199  0.0938
 1321ERGO    C119999   6.766  10.314   7.903 -0.3348  0.1716  0.1981
 1321ERGO    C220000   6.813  10.152   8.282 -0.1838  0.0153  0.0688
 1322ERGO   ROH20001  13.734   8.961   6.454  0.2028 -0.0129 -0.0334
 1322ERGO    R120002  13.768   9.039   6.723  0.2923 -0.1983  0.0085
 1322ERGO    R220003  13.555   9.089   6.891  0.3423  0.2709 -0.0722
 1322ERGO    R320004  13.679   8.907   7.051 -0.1741 -0.1076 -0.0703
 1322ERGO    R420005  13.577   9.111   7.236  0.7199  0.4513 -0.1000
 1322ERGO    R520006  13.783   9.040   7.222  0.4841 -0.3352 -0.2472
 1322ERGO    C120007  13.706   8.954   7.586  0.4549  0.2009 -0.1144
 1322ERGO    C220008  13.757   9.053   7.945 -0.0094 -0.0821 -0.0690
 1323ERGO   ROH20009  15.936   6.610   6.756  0.2005  0.3310 -0.1002
 1323ERGO    R120010  15.901   6.731   7.010  0.0055  0.0074  0.0360
 1323ERGO    R220011  15.887   6.584   7.244  0.1527 -0.2813 -0.1184
 1323ERGO    R320012  16.089   6.749   7.321 -0.0621 -0.1085  0.0806
 1323ERGO    R420013  15.981   6.642   7.572 -0.0247 -0.4048 -0.0457
 1323ERGO    R520014  16.008   6.853   7.522 -0.2432 -0.3440  0.1237
 1323ERGO    C120015  16.225   6.831   7.835 -0.3296 -0.3144  0.1835
 1323ERGO    C220016  16.196   6.813   8.161 -0.1225  0.1368  0.0584
 1324ERGO   ROH20017   2.728  16.971   6.750  0.2403 -0.1420  0.0914
 1324ERGO    R120018   2.581  17.026   6.986  0.1882  0.0161  0.0250
 1324ERGO    R220019   2.543  16.838   7.185 -0.0767  0.0631  0.0303
 1324ERGO    R320020   2.648  17.032   7.343  0.0437 -0.0204  0.0515
 1324ERGO    R420021   2.519  16.846   7.530 -0.1857  0.1174  0.0206
 1324ERGO    R520022   2.486  17.061   7.517  0.0141  0.1424 -0.0075
 1324ERGO    C120023   2.604  17.033   7.879 -0.1362  0.0708  0.0349
 1324ERGO    C220024   2.691  16.985   8.256 -0.0180 -0.0299  0.1911
 1325ERGO   ROH20025  10.982   0.894   6.524 -0.0016 -0.0923 -0.0396
 1325ERGO    R120026  11.092   0.986   6.769  0.0929 -0.1197 -0.0705
 1325ERGO    R220027  10.999   1.213   6.897  0.2835 -0.0106 -0.1158
 1325ERGO    R320028  10.971   1.043   7.107  0.1633  0.0589 -0.0755
 1325ERGO    R420029  10.983   1.310   7.228  0.2705  0.0799 -0.1432
 1325ERGO    R520030  11.108   1.139   7.279  0.1765  0.0349 -0.0760
 1325ERGO    C120031  10.947   1.208   7.618  0.1500  0.1978 -0.1213
 1325ERGO    C220032  11.013   1.233   7.906 -0.0386 -0.1330  0.1641
 1326ERGO   ROH20033   6.672   7.660   6.484  0.0295  0.1413  0.1668
 1326ERGO    R120034   6.874   7.597   6.673  0.0182 -0.0764  0.1082
 1326ERGO    R220035   6.935   7.762   6.886  0.2397 -0.1529  0.1061
 1326ERGO    R320036   6.891   7.536   7.031  0.0515 -0.1236  0.0985
 1326ERGO    R420037   6.921   7.748   7.231  0.0511 -0.1280  0.1011
 1326ERGO    R520038   7.032   7.561   7.223 -0.0372 -0.1831  0.1716
 1326ERGO    C120039   6.873   7.529   7.568 -0.2354 -0.0858  0.0908
 1326ERGO    C220040   6.880   7.582   7.916  0.0092 -0.1105 -0.3164
 1327ERGO   ROH20041  10.099  13.176   6.513  0.3660 -0.0770  0.0135
 1327ERGO    R120042  10.218  13.208   6.767  0.2732  0.1917  0.0271
 1327ERGO    R220043  10.143  13.408   6.943 -0.1612  0.0645  0.0006
 1327ERGO    R320044  10.107  13.199   7.114  0.2398 -0.0026  0.0120
 1327ERGO    R420045  10.138  13.432   7.288 -0.3540  0.0990 -0.0034
 1327ERGO    R520046  10.252  13.247   7.298  0.0644  0.3493  0.0649
 1327ERGO    C120047  10.102  13.250   7.649 -0.0899  0.0561  0.0048
 1327ERGO    C220048  10.161  13.207   8.120  0.1001  0.4054  0.0066
 1328ERGO   ROH20049   2.167  15.288   6.512  0.0027  0.0280 -0.0420
 1328ERGO    R120050   2.083  15.281   6.782 -0.0582  0.1550 -0.0568
 1328ERGO    R220051   2.179  15.096   6.963 -0.2966  0.0653 -0.0135
 1328ERGO    R320052   2.238  15.318   7.109 -0.0759  0.0221 -0.0340
 1328ERGO    R420053   2.176  15.113   7.309 -0.4506  0.1550 -0.0180
 1328ERGO    R520054   2.086  15.310   7.293 -0.1798  0.2707 -0.1099
 1328ERGO    C120055   2.230  15.331   7.646 -0.3331  0.1667 -0.0400
 1328ERGO    C220056   2.214  15.232   7.985  0.0728 -0.1977 -0.1822
 1329ERGO   ROH20057   8.548  16.670   6.658  0.1433  0.0801 -0.0553
 1329ERGO    R120058   8.630  16.589   6.917  0.0992 -0.0094 -0.0694
 1329ERGO    R220059   8.860  16.686   7.037  0.1121 -0.1016 -0.0248
 1329ERGO    R320060   8.688  16.750   7.238  0.1135 -0.1101 -0.0201
 1329ERGO    R420061   8.937  16.675   7.373  0.2218  0.1854 -0.0376
 1329ERGO    R520062   8.739  16.593   7.411  0.2964  0.0428  0.0718
 1329ERGO    C120063   8.821  16.729   7.758  0.2871  0.3447 -0.0407
 1329ERGO    C220064   8.855  16.750   8.167 -0.2217 -0.0157 -0.1255
 1330ERGO   ROH20065  13.655   2.844   6.528 -0.0233 -0.0124 -0.0676
 1330ERGO    R120066  13.554   2.786   6.786 -0.0154  0.1275 -0.0316
 1330ERGO    R220067  13.663   2.590   6.949 -0.2373 -0.0443 -0.0760
 1330ERGO    R320068  13.680   2.795   7.127  0.1292 -0.0654 -0.0798
 1330ERGO    R420069  13.648   2.556   7.292 -0.0576 -0.0192 -0.0648
 1330ERGO    R520070  13.526   2.736   7.300  0.1704  0.1277  0.0187
 1330ERGO    C120071  13.654   2.728   7.659  0.3910 -0.0243 -0.0617
 1330ERGO    C220072  13.617   2.741   7.999 -0.0429  0.3137  0.1924
 1331ERGO   ROH20073   7.832   0.287   6.645 -0.0905  0.1038 -0.0697
 1331ERGO    R120074   7.969   0.281   6.893 -0.1115 -0.2457 -0.0618
 1331ERGO    R220075   7.945   0.482   7.081  0.3020 -0.2334 -0.0175
 1331ERGO    R320076   7.878   0.276   7.245 -0.1445 -0.1381 -0.0670
 1331ERGO    R420077   7.930   0.501   7.426  0.3507 -0.2715 -0.0133
 1331ERGO    R520078   8.020   0.303   7.436 -0.0709 -0.4844 -0.0617
 1331ERGO    C120079   7.858   0.318   7.781 -0.0401 -0.2042 -0.0573
 1331ERGO    C220080   7.912   0.374   8.095  0.0694  0.1278 -0.1393
 1332ERGO   ROH20081   1.499   4.216   8.901  0.0373 -0.0460 -0.0225
 1332ERGO    R120082   1.563   3.997   8.733 -0.0043 -0.1474  0.0930
 1332ERGO    R220083   1.783   3.998   8.565 -0.1147 -0.1976 -0.0475
 1332ERGO    R320084   1.841   3.766   8.695  0.0426 -0.0906  0.0795
 1332ERGO    R420085   2.048   3.790   8.489 -0.0502 -0.1248 -0.0263
 1332ERGO    R520086   1.918   3.619   8.522  0.0372 -0.1665  0.1377
 1332ERGO    C120087   2.258   3.451   8.566  0.1350  0.0181  0.1053
 1332ERGO    C220088   2.635   3.479   8.520 -0.0830 -0.3265  0.1319
 1333ERGO   ROH20089  14.655   6.929   6.614 -0.0205  0.2703 -0.0505
 1333ERGO    R120090  14.551   7.011   6.865  0.0343  0.0923  0.0308
 1333ERGO    R220091  14.470   6.831   7.058  0.1689 -0.0440 -0.0438
 1333ERGO    R320092  14.643   6.970   7.215  0.1672 -0.0669 -0.0199
 1333ERGO    R420093  14.501   6.792   7.400  0.0228  0.0334 -0.0202
 1333ERGO    R520094  14.521   7.008   7.417  0.1013  0.0360 -0.0737
 1333ERGO    C120095  14.682   6.900   7.746 -0.0638  0.0569  0.0159
 1333ERGO    C220096  14.791   6.845   8.114 -0.0875 -0.0488 -0.1765
 1334ERGO   ROH20097   3.695  10.432   6.613 -0.1113 -0.0669 -0.0446
 1334ERGO    R120098   3.581  10.368   6.864 -0.0213  0.0154  0.0181
 1334ERGO    R220099   3.719  10.231   7.059 -0.0354 -0.1573 -0.0874
 1334ERGO    R320100   3.649  10.444   7.213  0.2799 -0.1015 -0.0140
 1334ERGO    R420101   3.656  10.215   7.399 -0.5081 -0.2656 -0.1729
 1334ERGO    R520102   3.490  10.354   7.368 -0.1413  0.1610 -0.2834
 1334ERGO    C120103   3.553  10.406   7.741 -0.4873 -0.2764 -0.1538
 1334ERGO    C220104   3.640  10.338   8.071 -0.0327  0.0966 -0.0424
 1335ERGO   ROH20105   4.891   2.896   6.874 -0.0170  0.1737 -0.0095
 1335ERGO    R120106   4.776   3.031   7.094  0.0703  0.1140  0.0720
 1335ERGO    R220107   4.643   2.898   7.297 -0.0207  0.0773 -0.0154
 1335ERGO    R320108   4.820   3.031   7.456  0.0640 -0.1380  0.0754
 1335ERGO    R420109   4.591   2.972   7.631 -0.1359  0.1936 -0.0574
 1335ERGO    R520110   4.682   3.167   7.596  0.1547  0.0720 -0.0318
 1335ERGO    C120111   4.727   3.139   7.974 -0.1234  0.0591  0.0033
 1335ERGO    C220112   4.825   3.179   8.352 -0.0851  0.0969  0.0335
 1336ERGO   ROH20113   6.627  16.426   6.576  0.0349  0.1268 -0.0489
 1336ERGO    R120114   6.567  16.362   6.845  0.0371  0.0895 -0.0537
 1336ERGO    R220115   6.755  16.259   7.019  0.0445  0.0340 -0.0633
 1336ERGO    R320116   6.678  16.469   7.174  0.0704  0.0307 -0.0523
 1336ERGO    R420117   6.785  16.272   7.363 -0.1697 -0.0408 -0.0426
 1336ERGO    R520118   6.589  16.368   7.372 -0.1022  0.0562 -0.1350
 1336ERGO    C120119   6.731  16.477   7.709 -0.2702 -0.0873 -0.0201
 1336ERGO    C220120   7.085  16.708   7.883 -0.0075  0.0423  0.1343
 1337ERGO   ROH20121  12.508  17.156   8.350  0.1238 -0.1224 -0.0351
 1337ERGO    R120122  12.379  17.128   8.099  0.1019 -0.3028 -0.0053
 1337ERGO    R220123  12.398  17.318   7.900 -0.2443 -0.2485  0.0037
 1337ERGO    R320124  12.480  17.106   7.750  0.0532 -0.1136 -0.0321
 1337ERGO    R420125  12.350  17.286   7.559 -0.1229 -0.2249 -0.0158
 1337ERGO    R520126  12.305  17.075   7.590  0.1286 -0.2904 -0.0812
 1337ERGO    C120127  12.399  17.069   7.220  0.2272 -0.0845 -0.0608
 1337ERGO    C220128  12.364  17.195   6.993 -0.2208 -0.1398  0.1449
 1338ERGO   ROH20129   5.471   0.763   6.785 -0.0552  0.2445  0.1081
 1338ERGO    R120130   5.500   0.596   7.012 -0.0280  0.0769 -0.0173
 1338ERGO    R220131   5.730   0.591   7.165 -0.0644  0.0713  0.0332
 1338ERGO    R320132   5.557   0.642   7.368 -0.1393 -0.1796  0.0367
 1338ERGO    R420133   5.804   0.552   7.500 -0.0419  0.0452  0.0254
 1338ERGO    R520134   5.603   0.470   7.529  0.0387 -0.1851 -0.0143
 1338ERGO    C120135   5.685   0.577   7.887 -0.0991 -0.2056  0.0242
 1338ERGO    C220136   5.640   0.568   8.140 -0.5203 -0.1211 -0.1681
 1339ERGO   ROH20137   4.669   0.073   6.769  0.1532  0.1176  0.1385
 1339ERGO    R120138   4.809   0.050   7.014  0.0648 -0.0338  0.1759
 1339ERGO    R220139   4.806   0.249   7.206  0.1567 -0.0684  0.2121
 1339ERGO    R320140   4.723   0.048   7.368 -0.0415 -0.0388  0.1506
 1339ERGO    R420141   4.886   0.219   7.541  0.0461 -0.1964  0.2281
 1339ERGO    R520142   4.911   0.005   7.511 -0.1101 -0.2110  0.1925
 1339ERGO    C120143   4.854   0.012   7.888 -0.2044 -0.2431  0.1797
 1339ERGO    C220144   4.766   0.070   8.182  0.1064  0.0759 -0.1351
 1340ERGO   ROH20145   4.745   5.103   7.004 -0.0023 -0.1404 -0.1251
 1340ERGO    R120146   4.784   5.184   7.272  0.1379 -0.0635 -0.1675
 1340ERGO    R220147   4.574   5.241   7.443  0.2290  0.2145 -0.1408
 1340ERGO    R320148   4.696   5.057   7.602  0.0877  0.1600 -0.0934
 1340ERGO    R420149   4.605   5.265   7.786  0.0722  0.1782 -0.1235
 1340ERGO    R520150   4.807   5.188   7.769  0.0531  0.1081 -0.0304
 1340ERGO    C120151   4.738   5.108   8.135 -0.1518  0.1059 -0.0689
 1340ERGO    C220152   4.663   5.079   8.477 -0.0471 -0.2212  0.1877
 1341ERGO   ROH20153   9.505   2.953   6.638  0.0271 -0.0246 -0.0033
 1341ERGO    R120154   9.649   2.966   6.881 -0.0838 -0.0833  0.0655
 1341ERGO    R220155   9.625   3.177   7.057 -0.0738 -0.0710  0.0438
 1341ERGO    R320156   9.569   2.979   7.235 -0.2451 -0.0385  0.0297
 1341ERGO    R420157   9.691   3.191   7.396 -0.0035 -0.1671  0.0354
 1341ERGO    R520158   9.753   2.983   7.388 -0.2107 -0.2355  0.0016
 1341ERGO    C120159   9.678   3.014   7.761 -0.1234 -0.1925  0.0173
 1341ERGO    C220160   9.640   3.013   8.199  0.0169  0.1431 -0.0044
 1342ERGO   ROH20161  16.005   8.710   6.821  0.0687  0.2929 -0.0656
 1342ERGO    R120162  16.018   8.826   7.079 -0.0725  0.2410 -0.0340
 1342ERGO    R220163  15.812   8.804   7.262 -0.0443 -0.0766 -0.0287
 1342ERGO    R320164  16.008   8.706   7.423  0.0926  0.1305 -0.0673
 1342ERGO    R420165  15.858   8.892   7.593 -0.1194 -0.0937 -0.0139
 1342ERGO    R520166  16.073   8.893   7.558 -0.1245  0.1801 -0.0319
 1342ERGO    C120167  16.070   8.851   7.937 -0.0346  0.0908 -0.0415
 1342ERGO    C220168  16.116   8.851   8.256  0.4284  0.2109 -0.1031
 1343ERGO   ROH20169   5.607  10.292   6.771  0.4717  0.0504  0.0983
 1343ERGO    R120170   5.592  10.435   7.014  0.2626  0.0227  0.1037
 1343ERGO    R220171   5.365  10.439   7.171  0.1517 -0.0561 -0.0530
 1343ERGO    R320172   5.536  10.355   7.365  0.0414 -0.0269  0.0585
 1343ERGO    R420173   5.298  10.447   7.510 -0.0406  0.0024 -0.0908
 1343ERGO    R520174   5.504  10.511   7.544 -0.0574  0.0042  0.0149
 1343ERGO    C120175   5.420  10.374   7.890 -0.2561  0.0640 -0.0080
 1343ERGO    C220176   5.411  10.356   8.212  0.1625  0.0214 -0.2135
 1344ERGO   ROH20177  14.683  11.208   6.680 -0.1144  0.1171 -0.0023
 1344ERGO    R120178  14.534  11.197   6.921  0.0031 -0.1005  0.0634
 1344ERGO    R220179  14.613  11.043   7.137  0.3095 -0.0109  0.0247
 1344ERGO    R320180  14.592  11.279   7.271  0.0470 -0.0420  0.0419
 1344ERGO    R420181  14.603  11.076   7.481  0.2291 -0.0456  0.0254
 1344ERGO    R520182  14.451  11.229   7.458  0.0731 -0.2017  0.0185
 1344ERGO    C120183  14.578  11.316   7.807 -0.0643 -0.0952  0.0419
 1344ERGO    C220184  14.739  11.326   8.065  0.0765  0.3827  0.0106
 1345ERGO   ROH20185   8.670  15.584   6.513  0.2074 -0.1127  0.0912
 1345ERGO    R120186   8.811  15.678   6.741  0.1924 -0.2604  0.1613
 1345ERGO    R220187   8.683  15.782   6.962  0.1881 -0.2129  0.1307
 1345ERGO    R320188   8.827  15.594   7.094  0.0040 -0.3419  0.1534
 1345ERGO    R420189   8.724  15.769   7.305  0.3238 -0.0902  0.1207
 1345ERGO    R520190   8.932  15.714   7.273  0.2452 -0.3814  0.0480
 1345ERGO    C120191   8.883  15.585   7.629  0.2299 -0.1396  0.1362
 1345ERGO    C220192   8.882  15.616   7.910  0.1065 -0.0447 -0.2959
 1346ERGO   ROH20193   8.265  10.095   6.744  0.0100  0.1556 -0.0503
 1346ERGO    R120194   8.392  10.049   6.992 -0.0127  0.2463 -0.0268
 1346ERGO    R220195   8.368  10.222   7.206 -0.3118  0.1393  0.0024
 1346ERGO    R320196   8.288   9.998   7.337 -0.0496 -0.0036 -0.0671
 1346ERGO    R420197   8.342  10.193   7.550 -0.7646  0.2127 -0.0144
 1346ERGO    R520198   8.426   9.992   7.533 -0.3064  0.3534  0.1548
 1346ERGO    C120199   8.253   9.965   7.873 -0.7819  0.1213 -0.0895
 1346ERGO    C220200   8.202  10.074   8.230  0.0691 -0.1671 -0.1735
 1347W        W20201  14.801   6.049  12.874  0.1684  0.1042 -0.0054
 1348W        W20202  12.364   6.862  13.413 -0.2141  0.1816 -0.0292
 1349W        W20203  15.242  16.992   0.338  0.0021 -0.0746  0.0268
 1350W        W20204   3.183  12.991  16.527 -0.2417  0.2959 -0.0622
 1351W        W20205   3.928  14.214   0.356  0.0811 -0.1188  0.1855
 1352W        W20206  12.938  11.054  16.335  0.1194  0.0701  0.0687
 1353W        W20207  14.840  11.976  14.488  0.0006 -0.1472 -0.3361
 1354W        W20208   4.815   8.158   1.206  0.0140  0.2567 -0.0709
 1355W        W20209   0.532  16.019  16.664  0.0164 -0.0231  0.2126
 1356W        W20210   3.872  16.564   6.008  0.0615  0.3255  0.0284
 1357W        W20211  13.406   1.426   3.894  0.2767  0.0840  0.2872
 1358W        W20212   4.655  13.818   2.405  0.1042 -0.1087 -0.2991
 1359W        W20213   0.094   5.194   2.965 -0.1495  0.0205  0.2052
 1360W        W20214   5.720   9.327  13.555  0.1646  0.0273 -0.0211
 1361W        W20215   6.089  15.032  12.282 -0.2378 -0.2717  0.0843
 1362W        W20216  17.210  15.830  14.552 -0.0267  0.2397  0.0060
 1363W        W20217   6.576   0.843  14.614 -0.1873 -0.0967  0.0995
 1364W        W20218   5.271   4.855   1.443 -0.2549  0.0840 -0.2473
 1365W        W20219   2.035   8.220   2.841 -0.1432 -0.0580 -0.0160
 1366W        W20220   8.651   2.907  16.806  0.1419 -0.0300  0.0871
 1367W        W20221  16.595   6.424   4.603 -0.1161  0.1224 -0.0039
 1368W        W20222  12.683  16.195  12.544 -0.1773 -0.1549 -0.2464
 1369W        W20223   7.200   1.835  12.974  0.2141 -0.1199  0.1712
 1370W        W20224  14.025   8.453  12.831 -0.0452 -0.1020 -0.3026
 1371W        W20225  13.144   7.541  14.856 -0.2359  0.0487  0.1533
 1372W        W20226  17.040   2.096  14.251  0.0900  0.2517 -0.1078
 1373W        W20227  14.992  11.559   3.252  0.1354  0.0595 -0.0122
 1374W        W20228  14.264  11.926   3.714 -0.1906 -0.0453  0.2176
 1375W        W20229   0.254  11.613   3.916  0.1209  0.0430 -0.0362
 1376W        W20230  11.272   8.128   0.214  0.1052  0.1486 -0.0710
 1377W        W20231   3.374  17.179  13.531 -0.0656  0.0661  0.2907
 1378W        W20232   4.672   4.218   1.321 -0.2527 -0.1175 -0.0998
 1379W        W20233  13.600  16.929  17.079  0.0451 -0.1666  0.0451
 1380W        W20234   5.227   9.295   1.004  0.0719 -0.3581  0.2644
 1381W        W20235   7.256  15.265   2.775  0.2049  0.0151  0.0083
 1382W        W20236  14.805  16.331   3.697 -0.2488  0.0046  0.1919
 1383W        W20237   8.668   0.130   2.438 -0.0167  0.2479  0.2984
 1384W        W20238   1.623  12.391  13.611 -0.3082 -0.1329 -0.1408
 1385W        W20239   7.724   8.922   0.203  0.1114  0.2156  0.3319
 1386W        W20240   8.181   4.582  15.070 -0.0514  0.1153  0.3165
 1387W        W20241   1.839   4.065   1.119 -0.1880  0.0179  0.2293
 1388W        W20242  17.232   5.914  16.711 -0.4500  0.1840  0.1230
 1389W        W20243   0.765   6.366  15.489  0.0874 -0.3250  0.1362
 1390W        W20244   5.308  16.945   1.018  0.0346 -0.1136  0.1227
 1391W        W20245   8.984   5.951   3.939 -0.1652  0.0103  0.1870
 1392W        W20246  13.137  11.825   5.576  0.0369  0.0130  0.0775
 1393W        W20247  15.146   9.466  15.679  0.1647 -0.2739  0.0172
 1394W        W20248   8.903  12.164  15.883  0.1136 -0.0836  0.2363
 1395W        W20249   3.768   8.662   3.509  0.4186 -0.0319 -0.5104
 1396W        W20250  14.446   2.055  16.220  0.0109 -0.2319 -0.2582
 1397W        W20251  12.180  12.361  14.933  0.1292 -0.2575 -0.4361
 1398W        W20252  16.039  11.154   1.683 -0.3940  0.1868  0.0377
 1399W        W20253   0.027  10.701  13.807  0.0369 -0.1040 -0.2262
 1400W        W20254   3.892   0.809   0.963  0.3787 -0.2095  0.2000
 1401W        W20255   0.752   0.800  13.726 -0.1513 -0.0195 -0.2515
 1402W        W20256  15.061  15.155   0.853  0.1434 -0.1793  0.0629
 1403W        W20257   4.726   9.523   3.808  0.0640  0.0643 -0.0100
 1404W        W20258   0.740   5.257  15.503 -0.0799  0.0863 -0.0446
 1405W        W20259   7.193  10.542  13.476 -0.4101  0.0622  0.1131
 1406W        W20260  14.354   1.137  17.268 -0.1573 -0.4661 -0.0252
 1407W        W20261  11.443  16.927  12.911 -0.0215  0.0990  0.1177
 1408W        W20262   4.031   7.483  12.356 -0.2840  0.1200  0.3171
 1409W        W20263  14.025  10.035  12.840  0.2655 -0.2448 -0.1541
 1410W        W20264   8.633   1.609   3.732  0.1220 -0.1266  0.1688
 1411W        W20265  17.097  14.269  13.947  0.2150 -0.0541 -0.0695
 1412W        W20266  16.210   5.259   2.734 -0.1959 -0.0805 -0.0746
 1413W        W20267   4.677   6.024  17.220 -0.3830  0.3051 -0.2001
 1414W        W20268   5.611   6.128   1.621  0.1403 -0.2247 -0.0864
 1415W        W20269  15.966   7.681  15.553  0.0049  0.0297  0.1348
 1416W        W20270  17.114  14.519  15.126 -0.1226 -0.2642  0.1244
 1417W        W20271   8.169  10.613  11.067 -0.2206 -0.3549 -0.0227
 1418W        W20272   7.983   6.221   5.426 -0.2596  0.0778 -0.0195
 1419W        W20273   0.655  13.717   2.534  0.1477 -0.2024  0.1585
 1420W        W20274   6.170  11.023  12.686 -0.3373  0.0206 -0.0464
 1421W        W20275   3.248  17.033   3.557  0.1561 -0.0601 -0.1363
 1422W        W20276  15.936   0.872   4.717 -0.1555  0.1025  0.0937
 1423W        W20277  15.646   8.347   1.412  0.1336 -0.0370 -0.2485
 1424W        W20278   4.349  15.203  16.741 -0.0494  0.2961 -0.2989
 1425W        W20279   7.965   4.823   0.382  0.0808  0.2454  0.0645
 1426W        W20280   7.828  16.042   1.506 -0.0015 -0.2159  0.2126
 1427W        W20281   1.583  14.869  14.978 -0.2876 -0.0745 -0.1193
 1428W        W20282  13.860   0.075  15.261  0.3195  0.1842 -0.1260
 1429W        W20283   9.583  14.568   0.151 -0.0072  0.0243 -0.1100
 1430W        W20284   9.008   1.463  15.475 -0.0139  0.3167  0.2022
 1431W        W20285   8.017  17.169   0.580 -0.2323  0.0177 -0.4385
 1432W        W20286   3.214   7.545  14.855 -0.2443  0.0300 -0.1356
 1433W        W20287   4.573   8.693   2.062 -0.0873 -0.1713 -0.1332
 1434W        W20288   3.132   9.796  14.306 -0.2643  0.1878  0.0875
 1435W        W20289  11.853  12.616   4.796 -0.2889  0.0599 -0.0830
 1436W        W20290   8.405   8.749   4.012  0.1258  0.3532  0.0228
 1437W        W20291   1.739   4.322   0.641 -0.0635  0.5033 -0.0158
 1438W        W20292  14.871   3.734  13.000 -0.0114 -0.0187  0.1684
 1439W        W20293  14.196   8.823   2.858  0.0205 -0.0245  0.1098
 1440W        W20294  12.124  13.767  15.279 -0.0790 -0.0666  0.1028
 1441W        W20295  17.124   6.059   4.255 -0.0415  0.0206  0.2230
 1442W        W20296   8.137  11.904  15.332  0.0583  0.2210 -0.3321
 1443W        W20297   3.176  13.448  13.468  0.2355 -0.1572 -0.0793
 1444W        W20298  15.553   4.100  15.172 -0.1376  0.2088 -0.0419
 1445W        W20299   8.789  16.491   4.319 -0.1253  0.0600 -0.0468
 1446W        W20300  10.236  16.616   4.702 -0.0232  0.1281  0.0529
 1447W        W20301   9.459  11.357  14.631  0.2848  0.1423 -0.3055
 1448W        W20302  12.492   1.793  13.391  0.0112 -0.0152 -0.1332
 1449W        W20303  11.265   8.615   4.777  0.0067  0.0233  0.1577
 1450W        W20304  12.581   9.466  16.246 -0.2700 -0.0280 -0.0485
 1451W        W20305   2.644   2.267  12.457  0.0296 -0.0538  0.1519
 1452W        W20306   1.773   4.890  12.442  0.3093  0.1528 -0.1352
 1453W        W20307   4.377  12.052   3.185 -0.0044  0.1688 -0.0447
 1454W        W20308   2.624   0.621   3.418 -0.2111  0.0596 -0.1029
 1455W        W20309   8.308  11.668  16.108  0.2931 -0.0921  0.2362
 1456W        W20310  11.775  14.755   0.597  0.2596  0.2024 -0.1212
 1457W        W20311   2.633   0.720   0.850 -0.2649  0.1333  0.0655
 1458W        W20312   6.959   5.829  12.894 -0.2057 -0.3786 -0.0163
 1459W        W20313   5.329  16.893  12.518 -0.0081  0.0991  0.0093
 1460W        W20314   0.292  12.012   1.300 -0.2916 -0.2544 -0.1709
 1461W        W20315   0.313   0.041   4.735  0.1060 -0.1277 -0.2186
 1462W        W20316   7.942   0.522  13.333  0.1414 -0.2754  0.1241
 1463W        W20317   0.095  10.888  16.800  0.0680 -0.0086 -0.1539
 1464W        W20318   6.464   0.011  13.370 -0.0003  0.0865  0.2127
 1465W        W20319  13.541  13.559  16.595 -0.0221  0.0867 -0.0006
 1466W        W20320   8.161  16.788  16.046 -0.1534 -0.0292 -0.0945
 1467W        W20321  13.288   5.045  14.239  0.1874 -0.1581 -0.0214
 1468W        W20322  15.136  12.853   1.479  0.0758 -0.0334  0.0669
 1469W        W20323   0.377   6.112  14.227  0.3305 -0.1010 -0.0193
 1470W        W20324  16.075   4.437  14.806 -0.2405  0.2571  0.0509
 1471W        W20325   6.370   8.702  16.357 -0.0943  0.2165 -0.2144
 1472W        W20326  11.553   2.343  16.191 -0.0510  0.0019  0.0663
 1473W        W20327   9.052  16.010  15.319 -0.2282 -0.1998  0.0558
 1474W        W20328  11.151   2.271  12.445  0.2360 -0.2315  0.1701
 1475W        W20329   2.264   5.987   0.953  0.1612 -0.1727  0.0686
 1476W        W20330  12.152  10.006  12.314 -0.2866  0.0236  0.0572
 1477W        W20331   0.930  12.186   2.189 -0.0541  0.3275 -0.1472
 1478W        W20332  15.881   7.476   0.002 -0.1513  0.0265  0.1525
 1479W        W20333  11.162  11.039   3.917 -0.0237 -0.3575 -0.0668
 1480W        W20334  16.991   6.985   1.896  0.0533 -0.1108 -0.1975
 1481W        W20335   9.324   3.904   0.778 -0.2252 -0.1434 -0.2329
 1482W        W20336   1.382   0.098   0.498  0.1363 -0.1381 -0.1054
 1483W        W20337  15.822  16.106   3.750  0.1152 -0.2414 -0.0349
 1484W        W20338   1.541   5.280  15.430 -0.2915  0.1764  0.0274
 1485W        W20339   9.597  11.133   4.300 -0.0729  0.2046  0.1638
 1486W        W20340  15.171   3.073  13.582 -0.1057  0.0458 -0.1253
 1487W        W20341  11.632  13.606  16.299 -0.1821 -0.0501 -0.1094
 1488W        W20342   4.473   4.913  14.193  0.0451  0.0877  0.0724
 1489W        W20343  13.665  14.476   3.043  0.2849 -0.1077 -0.0031
 1490W        W20344   2.328   1.885   3.995 -0.1617  0.1345  0.0964
 1491W        W20345   7.209   1.311  13.078 -0.0377  0.4175  0.0466
 1492W        W20346   9.836   0.702  13.641  0.0927  0.1361 -0.0798
 1493W        W20347   6.940   1.721   0.014  0.5964  0.2891 -0.1696
 1494W        W20348   2.454  16.032   0.784  0.0411  0.2658 -0.4426
 1495W        W20349  12.756   5.278  16.006  0.0219  0.0667  0.1032
 1496W        W20350  10.029  11.387   1.555  0.2408 -0.1921 -0.0207
 1497W        W20351   5.155  10.401  15.209 -0.3142  0.1015  0.2022
 1498W        W20352  14.311   5.140  17.294  0.0882 -0.2162  0.1726
 1499W        W20353   0.546  16.930  14.937 -0.3350  0.0390  0.3599
 1500W        W20354   2.216   2.275  12.687  0.2007 -0.2086  0.0271
 1501W        W20355   0.852  12.062   3.999  0.0564 -0.1407  0.0328
 1502W        W20356   0.047   7.831  17.175  0.2248  0.1404  0.3451
 1503W        W20357   4.660   3.156  13.464  0.1739  0.1435 -0.0316
 1504W        W20358   0.604   6.800  14.824 -0.2785  0.2098 -0.1236
 1505W        W20359   1.565  13.870   2.665 -0.1870 -0.2475  0.0483
 1506W        W20360   8.306   5.179  16.870 -0.1289  0.1749 -0.0590
 1507W        W20361   1.303  16.045   3.649 -0.1643 -0.0609 -0.0307
 1508W        W20362  17.336   8.679   5.062  0.2589  0.0622  0.0961
 1509W        W20363  13.752  12.999   3.353  0.3485  0.2905 -0.0667
 1510W        W20364   9.340  10.683  13.082 -0.2191 -0.1612  0.1361
 1511W        W20365  15.555   6.275  14.539  0.0589 -0.2732  0.0862
 1512W        W20366  12.606  13.333  11.426  0.2982 -0.0744 -0.0963
 1513W        W20367   5.368  11.219   4.031  0.1347  0.0414  0.1547
 1514W        W20368   5.171  17.314  13.319 -0.2219 -0.1458 -0.2243
 1515W        W20369   4.651   7.525  17.276 -0.3420 -0.1668  0.1693
 1516W        W20370   9.787   8.757  14.204  0.2516 -0.1897  0.0264
 1517W        W20371   4.777   7.548   4.525 -0.1638 -0.1028  0.0417
 1518W        W20372   7.487   6.689  15.964 -0.2482 -0.0665  0.1652
 1519W        W20373   7.926   5.636  12.830 -0.0430  0.1520  0.4260
 1520W        W20374  12.275   2.948   0.792 -0.0780 -0.0893  0.1441
 1521W        W20375  10.338  12.936   0.922  0.0579  0.0562  0.0278
 1522W        W20376   5.369   7.459  16.538 -0.0271 -0.0865 -0.2080
 1523W        W20377  17.069  15.810   3.518 -0.0319 -0.3058  0.0116
 1524W        W20378   3.410   1.453   1.813  0.0439 -0.2283 -0.0460
 1525W        W20379  11.052  16.133   4.835  0.1144  0.2770  0.2779
 1526W        W20380  12.558  15.780  15.066  0.0987  0.0666  0.2037
 1527W        W20381   6.961   2.511   5.014  0.1811  0.0893 -0.0245
 1528W        W20382   2.393   6.569   1.614 -0.1046 -0.0893 -0.1416
 1529W        W20383  14.742   5.939   0.167 -0.1414  0.0319 -0.1912
 1530W        W20384   7.747  14.845   1.520  0.1328 -0.0397  0.0070
 1531W        W20385  11.000  11.258   1.434  0.1425 -0.0638  0.0234
 1532W        W20386  14.786   8.705   3.847 -0.1313 -0.1057  0.2087
 1533W        W20387  14.887   4.894   5.279 -0.0272  0.0031  0.2778
 1534W        W20388   7.022  14.354  13.022 -0.3281  0.2273 -0.1008
 1535W        W20389  13.684   6.641  15.944  0.3902 -0.1009 -0.4279
 1536W        W20390   3.622   9.380   5.179  0.1471  0.1890  0.0486
 1537W        W20391   1.812  17.117   2.537 -0.1483  0.1650  0.0761
 1538W        W20392   4.792  11.910  17.263 -0.2016  0.0376  0.0356
 1539W        W20393   2.951  13.616   4.416 -0.1671 -0.2058  0.0240
 1540W        W20394   3.347  14.098   1.224  0.1048 -0.1069  0.1145
 1541W        W20395  12.887   4.911   2.832  0.2972  0.0292  0.1063
 1542W        W20396   3.258  15.235   5.038  0.0844  0.1372 -0.1011
 1543W        W20397  15.443  11.021   3.783 -0.1037  0.1022  0.2802
 1544W        W20398   8.281   1.442   0.593 -0.1177  0.2049  0.0648
 1545W        W20399  14.307   0.213   1.185  0.1847 -0.1534  0.3373
 1546W        W20400   0.405  12.470  14.394  0.1077 -0.2985 -0.1912
 1547W        W20401   7.037   3.177   2.354 -0.0358  0.0771  0.1484
 1548W        W20402  12.370  10.298   2.949 -0.3063  0.0843 -0.1052
 1549W        W20403  11.980   1.634   3.515  0.1448 -0.0822 -0.0764
 1550W        W20404   3.373   8.533   3.822  0.1197  0.1915  0.0571
 1551W        W20405  11.678   8.689   2.310 -0.0686  0.3205 -0.2243
 1552W        W20406   4.931  11.490  12.790 -0.0543  0.0848 -0.1822
 1553W        W20407   8.939  11.753   4.503  0.0236 -0.1178 -0.1708
 1554W        W20408  14.047  16.133   2.702 -0.1872 -0.0761 -0.3942
 1555W        W20409   4.257   4.167   1.544 -0.1040  0.0827  0.1723
 1556W        W20410   7.009  15.213   4.454  0.0841  0.0841  0.1711
 1557W        W20411   9.588  10.115   1.229 -0.1781 -0.1707 -0.0098
 1558W        W20412   9.838   2.638  14.742 -0.0280  0.0874 -0.0526
 1559W        W20413  10.326   5.811  13.755  0.0847 -0.0119  0.2182
 1560W        W20414  10.000  14.878   4.805  0.0697  0.0776 -0.0103
 1561W        W20415  14.121   0.347   0.396  0.1112 -0.0348 -0.0690
 1562W        W20416  16.041   1.926   3.329  0.0563 -0.0829 -0.0599
 1563W        W20417  15.813  14.230   1.535  0.2648 -0.1141 -0.1217
 1564W        W20418  17.013   1.521  13.828  0.1983  0.1065 -0.1093
 1565W        W20419  14.623   4.329  12.142  0.1539  0.0451  0.1710
 1566W        W20420  14.250  17.291   0.065  0.0056  0.0893 -0.1151
 1567W        W20421   3.177  15.390   2.208 -0.1736 -0.0791 -0.1897
 1568W        W20422  11.576   2.711  13.090 -0.0293 -0.2016  0.4845
 1569W        W20423   9.973  14.839  15.118  0.1237 -0.0987  0.1531
 1570W        W20424   7.720   4.746  15.216  0.1650 -0.1695  0.0138
 1571W        W20425   1.800  13.533   1.168 -0.2543  0.0282  0.0538
 1572W        W20426  13.096  15.336   2.024  0.2036 -0.1337  0.1813
 1573W        W20427  12.018  14.593  13.704  0.0038  0.0460 -0.0821
 1574W        W20428   3.662   5.291  14.087  0.1084  0.1626 -0.1630
 1575W        W20429   9.642   5.496  17.253  0.1194  0.3485 -0.1388
 1576W        W20430   4.119   2.385  17.415 -0.0318  0.1664  0.3921
 1577W        W20431  15.128   5.322  12.925  0.2162 -0.0326 -0.1111
 1578W        W20432   5.065   2.160   2.884  0.1303  0.2116  0.2546
 1579W        W20433  16.596  14.807   1.176  0.0658 -0.2262  0.0441
 1580W        W20434   1.187   2.526   4.294  0.2046  0.0767 -0.1027
 1581W        W20435   6.130   6.520  14.717 -0.3162  0.2433  0.4125
 1582W        W20436   2.732   6.301  17.197 -0.2251  0.0530 -0.0962
 1583W        W20437   3.507   3.350  14.694 -0.2515 -0.1278  0.0348
 1584W        W20438  11.781   9.072   0.211 -0.1867  0.2310 -0.3889
 1585W        W20439  16.627  15.272  12.869  0.2265 -0.0951  0.0315
 1586W        W20440   4.237  13.901  14.274 -0.1181  0.0663  0.3696
 1587W        W20441   6.159  17.049   2.640  0.1664  0.1961 -0.1688
 1588W        W20442  16.821   2.232  15.921 -0.2927  0.3435 -0.2216
 1589W        W20443   0.160   0.906  16.073  0.0917  0.0931  0.0503
 1590W        W20444  14.859   4.854   0.775  0.1150 -0.1838  0.2158
 1591W        W20445   5.210   7.713   3.490  0.1365  0.0799  0.0903
 1592W        W20446   7.958  11.659  13.473 -0.1446 -0.1367 -0.2226
 1593W        W20447  14.663   2.694   0.726  0.0698 -0.0374 -0.1489
 1594W        W20448   6.051   5.522  15.753  0.0184 -0.0539  0.1829
 1595W        W20449  17.238  12.169   0.923  0.0526  0.1392  0.1275
 1596W        W20450   0.398   8.218   0.309  0.3722  0.0322 -0.0742
 1597W        W20451   3.458  12.256   1.118 -0.0423 -0.0838  0.2162
 1598W        W20452  11.155  16.538   5.099 -0.3134 -0.2272 -0.1183
 1599W        W20453  10.003   6.689   0.239 -0.3006  0.4249  0.0152
 1600W        W20454  11.619  11.473   3.718 -0.0718 -0.0553  0.2534
 1601W        W20455  16.565  16.850  15.793  0.2264 -0.0255 -0.0832
 1602W        W20456  12.923   8.634   3.926 -0.2977  0.1616  0.0848
 1603W        W20457   3.415  11.858   2.201  0.0812 -0.0415  0.1076
 1604W        W20458  15.022  11.668   0.801  0.0010  0.1111  0.0030
 1605W        W20459   9.758  15.722   5.182  0.1219 -0.1122  0.0431
 1606W        W20460   2.753   7.680   0.158  0.0675 -0.4609  0.0285
 1607W        W20461   5.945   5.324  16.778  0.0137 -0.0262 -0.1296
 1608W        W20462  16.558  13.252  14.612  0.1691  0.1066  0.0410
 1609W        W20463  10.577  12.660   4.609  0.1380  0.1676 -0.1883
 1610W        W20464   2.623  16.873  17.369  0.0898  0.1296 -0.1022
 1611W        W20465   6.970   4.575   2.674 -0.0522 -0.0324 -0.0108
 1612W        W20466  15.857  15.939   0.539  0.2204 -0.2340 -0.1668
 1613W        W20467   4.094  14.243  11.863  0.1462 -0.2300  0.0721
 1614W        W20468   8.743   6.071   3.475 -0.0338 -0.3754 -0.0450
 1615W        W20469   7.541   6.543  12.754  0.1788  0.1063 -0.1172
 1616W        W20470   7.813   6.071   4.929  0.1834 -0.0398 -0.2420
 1617W        W20471   0.758  13.630  13.708 -0.1864  0.1965 -0.0325
 1618W        W20472   3.916  15.826  14.161 -0.1084 -0.0665  0.2941
 1619W        W20473  13.504  17.219  14.857  0.0583  0.0170  0.1085
 1620W        W20474   9.952  15.479  15.681 -0.2335  0.0960 -0.1499
 1621W        W20475   8.593   3.096  14.018  0.1350 -0.1414  0.1130
 1622W        W20476   2.525   9.475   1.443 -0.2663  0.1659  0.1487
 1623W        W20477  11.255  11.057  14.492  0.2344  0.1618  0.0868
 1624W        W20478   5.015   0.138  16.451  0.1034 -0.0207 -0.1652
 1625W        W20479   1.003  14.351  15.531 -0.1244 -0.1574 -0.1912
 1626W        W20480  11.776   2.278  17.118  0.0102  0.0732  0.3845
 1627W        W20481  11.913  10.072   3.050  0.1748  0.1014 -0.1898
 1628W        W20482   6.912  17.204  12.393  0.1423  0.1663  0.1523
 1629W        W20483   8.336  14.776   3.719 -0.2237  0.0043 -0.0987
 1630W        W20484   6.978   9.708  14.584 -0.0631 -0.1223 -0.0892
 1631W        W20485   7.457   3.789  17.231 -0.0195 -0.2633  0.0357
 1632W        W20486   0.921   4.553   2.612  0.2695  0.1160  0.1394
 1633W        W20487   3.420  13.863   5.039  0.1379  0.0851  0.0777
 1634W        W20488   6.819  11.539  13.277  0.0101  0.0445  0.0416
 1635W        W20489   3.044  13.266  15.550 -0.0622  0.0289  0.0428
 1636W        W20490   4.024  13.027  15.305  0.2302  0.1191  0.3092
 1637W        W20491   2.882   0.937  13.659  0.0635 -0.0088 -0.2669
 1638W        W20492  10.930   5.421   2.230  0.2254 -0.0351  0.0194
 1639W        W20493   4.630   6.273   0.655  0.0963 -0.0495 -0.1512
 1640W        W20494  14.309   5.664   0.072  0.0353  0.1079 -0.1972
 1641W        W20495   0.343  10.047   2.727  0.0024  0.3519  0.1458
 1642W        W20496  15.354   6.393   1.263 -0.2287  0.1636  0.1677
 1643W        W20497   7.436  17.111  15.149  0.3361  0.0025  0.0760
 1644W        W20498   2.403   1.224   5.217 -0.0550  0.0920  0.3905
 1645W        W20499  12.042   5.430  13.954 -0.1799 -0.1775  0.3260
 1646W        W20500  14.283   6.338   4.525  0.2878 -0.0276  0.3002
 1647W        W20501  14.770  12.967   2.552  0.1497  0.0086 -0.2123
 1648W        W20502   0.194  14.485   2.126  0.1898 -0.2748 -0.2749
 1649W        W20503   2.775  14.061   4.228 -0.1498 -0.0431  0.1647
 1650W        W20504   7.998   7.360   4.598  0.0934  0.0270 -0.0441
 1651W        W20505   2.654   1.012  15.516  0.1816 -0.1301  0.0992
 1652W        W20506  11.588  14.577  17.242  0.2982  0.0630 -0.0652
 1653W        W20507  12.467   4.695   2.983  0.3601 -0.1555 -0.0919
 1654W        W20508   4.373   9.293  16.031 -0.0638  0.0623  0.0428
 1655W        W20509   4.505  10.265  17.298  0.0169  0.0142 -0.1361
 1656W        W20510  17.246  12.382   0.152  0.3222 -0.1386 -0.2631
 1657W        W20511   4.848   9.306  16.708  0.1989 -0.2981  0.1094
 1658W        W20512  10.490  14.273   2.654  0.1995  0.2320  0.2143
 1659W        W20513  10.791  12.865  17.295 -0.1296  0.0830 -0.1819
 1660W        W20514  15.670  13.577  15.625 -0.0498 -0.0070  0.1011
 1661W        W20515  10.402  16.713  14.138  0.1889  0.1054  0.2930
 1662W        W20516   6.346  10.455  16.962  0.1506  0.3681 -0.0425
 1663W        W20517   7.317  11.525  15.563 -0.0251  0.1009  0.0763
 1664W        W20518  11.986  16.013  13.170 -0.0863  0.1258  0.0519
 1665W        W20519   8.138   1.064  13.619  0.0713 -0.0647 -0.0036
 1666W        W20520   4.613  12.472  14.210 -0.4073  0.0648  0.1493
 1667W        W20521  14.978  12.160   0.723  0.0446  0.0580  0.0791
 1668W        W20522   9.870   5.315  15.102  0.1081 -0.3612 -0.0143
 1669W        W20523   5.610   4.493  16.770  0.0781 -0.2880 -0.1357
 1670W        W20524  11.142   9.256   2.876  0.1758  0.1655  0.2497
 1671W        W20525   8.847  14.904   3.394 -0.0016 -0.2452 -0.0439
 1672W        W20526   0.252  15.715  14.946  0.1258  0.0835 -0.1689
 1673W        W20527  10.149  13.174   1.992  0.5325 -0.1171  0.0179
 1674W        W20528   0.716   2.522   4.160  0.1326 -0.3668 -0.1158
 1675W        W20529  14.925  13.078  13.674 -0.1023 -0.1603  0.2728
 1676W        W20530   5.012   0.438   4.189 -0.2726  0.2161  0.0652
 1677W        W20531   4.249  16.299  15.841 -0.4350  0.1224 -0.1542
 1678W        W20532  12.983   7.740  13.499 -0.1998  0.0932  0.0418
 1679W        W20533   6.324   8.575  12.711  0.1895 -0.4108 -0.3487
 1680W        W20534   3.432  15.868  15.047 -0.1619  0.0808 -0.0879
 1681W        W20535   4.328  10.237  15.979 -0.0288 -0.1518 -0.0735
 1682W        W20536  14.946   4.801  13.600 -0.1525  0.0280 -0.0625
 1683W        W20537  16.566   1.056   2.984  0.1605 -0.0744  0.1199
 1684W        W20538   3.498   8.848   2.093  0.0090  0.0374  0.2620
 1685W        W20539   0.895   8.942  16.062  0.0906 -0.0676  0.3124
 1686W        W20540  17.195   4.544   0.318 -0.0959 -0.1215  0.1533
 1687W        W20541  13.541   1.971  13.450  0.1706 -0.2204 -0.1803
 1688W        W20542   5.938  14.422  17.403  0.2924  0.1017  0.2179
 1689W        W20543   9.036   1.539  13.580  0.0050  0.1019  0.2156
 1690W        W20544   1.977   6.436   1.835 -0.1023 -0.1342  0.0113
 1691W        W20545   6.855  12.664   1.662  0.0818 -0.1402 -0.0276
 1692W        W20546   9.448  14.174  13.130 -0.1126  0.2922  0.0957
 1693W        W20547   2.455  12.148  15.565 -0.1695 -0.0418 -0.0347
 1694W        W20548  13.879  16.911   0.069  0.0015 -0.0524 -0.2019
 1695W        W20549  11.747  14.024   4.131 -0.0059 -0.2755  0.0447
 1696W        W20550   9.723  14.393  13.740  0.1633 -0.3532  0.3779
 1697W        W20551  13.417   7.467   4.651 -0.1248  0.0551 -0.2981
 1698W        W20552   7.561   3.547  16.302  0.0792  0.2251 -0.0289
 1699W        W20553   4.167   2.592   1.038  0.0696 -0.2622  0.0223
 1700W        W20554   2.856   1.335   0.062  0.0269  0.2839 -0.0277
 1701W        W20555  10.378   3.301  16.968  0.1353 -0.2679  0.2930
 1702W        W20556   4.865   6.678   0.362  0.0160 -0.2248 -0.1275
 1703W        W20557  11.964   2.282  15.929 -0.2488  0.1803 -0.0351
 1704W        W20558  16.542  16.038  17.063 -0.0224  0.2465  0.0590
 1705W        W20559  10.389  13.099  16.966  0.0193  0.2813 -0.2601
 1706W        W20560  14.935   9.459   2.733  0.0579 -0.2547  0.0592
 1707W        W20561  11.483   3.349  15.222 -0.1284 -0.1533  0.1270
 1708W        W20562  15.629   9.677   2.243 -0.1787 -0.0104  0.1038
 1709W        W20563   5.772   3.834   0.602 -0.1122  0.1905 -0.1709
 1710W        W20564  14.893   8.182   3.657 -0.2810  0.0868  0.3295
 1711W        W20565   0.156   4.492   4.827 -0.1511 -0.0970 -0.0919
 1712W        W20566   9.258   9.038   4.775  0.0098  0.2635 -0.0788
 1713W        W20567   5.439   7.918  16.940  0.0513 -0.0305  0.2008
 1714W        W20568   1.064  14.734  16.571  0.3005  0.1287 -0.1385
 1715W        W20569   2.528   3.910   0.205 -0.1099 -0.0175 -0.0898
 1716W        W20570   6.052  16.307   5.330 -0.0891 -0.3178  0.1419
 1717W        W20571   5.196  14.178  15.729 -0.0738 -0.1373  0.1612
 1718W        W20572  12.505  14.927  16.925  0.0454 -0.1818 -0.1840
 1719W        W20573  16.309   5.693   2.334  0.1615  0.1543  0.0626
 1720W        W20574  15.444  15.188  15.731  0.0520  0.3618  0.0662
 1721W        W20575  16.959   1.989   1.570 -0.1542 -0.2205  0.0298
 1722W        W20576   4.467  16.391   2.221  0.2905  0.1671 -0.2682
 1723W        W20577   0.380  15.790   3.555 -0.2140  0.3307 -0.0946
 1724W        W20578  11.744   0.932  15.415  0.0524  0.1386  0.0798
 1725W        W20579  12.562   2.538  15.799  0.0771 -0.3395  0.0048
 1726W        W20580  16.220   7.899   0.827 -0.2080  0.2432  0.0644
 1727W        W20581   1.279  11.728  15.342  0.0463 -0.0745 -0.2081
 1728W        W20582  16.398   4.318  16.165  0.0576  0.1415 -0.2421
 1729W        W20583   1.651  11.935  14.265  0.1072  0.1892 -0.0077
 1730W        W20584  14.071  16.038  14.258  0.2763 -0.2826  0.0018
 1731W        W20585  14.972  17.181  14.042 -0.1036 -0.0058 -0.1490
 1732W        W20586   4.668  15.472  15.540 -0.1180 -0.0155  0.0056
 1733W        W20587  16.603   1.841  14.408  0.0830  0.0460  0.0153
 1734W        W20588  14.723  12.477  17.125 -0.0021 -0.3978 -0.0154
 1735W        W20589  11.915   1.072  16.395  0.2282 -0.3709  0.1688
 1736W        W20590  15.744  11.857  15.417  0.2032  0.2084 -0.3032
 1737W        W20591  13.463   6.013   0.726  0.2161 -0.1177 -0.0118
 1738W        W20592   3.518   0.477   0.706 -0.0141  0.1096 -0.0246
 1739W        W20593   5.859   2.960  15.751 -0.1657  0.1034  0.0096
 1740W        W20594  10.116  12.006  15.883 -0.1475 -0.1495 -0.1401
 1741W        W20595   7.191  14.306  16.363  0.3118 -0.0683  0.0861
 1742W        W20596  15.448   8.260   4.901  0.0969  0.1770 -0.0330
 1743W        W20597  11.535  11.653  16.835  0.0763 -0.1946  0.0034
 1744W        W20598  17.261   8.091  13.238 -0.0797 -0.1556 -0.3492
 1745W        W20599   0.112   3.206  16.324 -0.0312  0.0055 -0.0049
 1746W        W20600  12.328  12.056   2.273  0.1003 -0.0248 -0.0242
 1747W        W20601   8.995   2.739   1.080  0.1615 -0.0076 -0.2895
 1748W        W20602   9.661  10.716   0.370 -0.0308  0.0070 -0.1155
 1749W        W20603  15.140   1.047   0.041  0.1183  0.2074 -0.1851
 1750W        W20604   2.519   9.736  13.656 -0.0853 -0.4102 -0.1929
 1751W        W20605   9.633   3.776  14.913  0.2237 -0.3991 -0.1004
 1752W        W20606  11.482   8.393   3.938  0.1502 -0.0107  0.4033
 1753W        W20607  15.030   2.871  14.052  0.1995 -0.0536  0.0284
 1754W        W20608  10.936  15.684   2.439  0.1551 -0.0611 -0.1947
 1755W        W20609   7.984   8.485  15.630 -0.1521 -0.2650 -0.1179
 1756W        W20610   6.131   3.417  14.150  0.1049 -0.0719 -0.0109
 1757W        W20611   5.499   6.846   3.449 -0.0083 -0.0721 -0.3115
 1758W        W20612   5.191   3.279  16.554  0.1903  0.2090  0.2902
 1759W        W20613   9.113   5.607  13.424  0.0617 -0.0108  0.3565
 1760W        W20614   6.392   0.490  16.732 -0.2015  0.2084  0.0812
 1761W        W20615   0.142  16.312  15.489  0.0206  0.0059  0.0153
 1762W        W20616   8.658   2.818  12.822  0.0455  0.0605  0.0321
 1763W        W20617  13.557   6.032  17.111  0.0350  0.1825 -0.2255
 1764W        W20618  11.468   3.151   1.151 -0.3498 -0.0875 -0.2632
 1765W        W20619  11.500  15.728   3.090  0.1575 -0.1783 -0.0289
 1766W        W20620   7.736   1.157  14.591 -0.0791 -0.0273  0.1770
 1767W        W20621  13.443  12.485   1.614  0.0549  0.0958  0.2704
 1768W        W20622   9.074  10.512  14.474  0.2754  0.1450  0.2125
 1769W        W20623  11.797  14.224   1.155  0.0423  0.1533  0.4634
 1770W        W20624  16.957  16.343   3.799 -0.1258  0.1903 -0.1265
 1771W        W20625  12.227   2.771   4.567  0.0020 -0.1154 -0.0554
 1772W        W20626  10.412  11.945  12.505  0.1902  0.2847  0.0156
 1773W        W20627   0.818   5.809  12.848  0.2070  0.0298  0.1957
 1774W        W20628   8.883  11.683   0.852  0.5156  0.0933 -0.1772
 1775W        W20629  12.106   3.453   1.798 -0.1861  0.1718 -0.2773
 1776W        W20630  15.705   9.701  14.886 -0.0610 -0.1253 -0.0203
 1777W        W20631  12.809   2.890   2.297 -0.1145  0.0824 -0.1874
 1778W        W20632   3.382   5.344  14.544 -0.1721 -0.1323 -0.1626
 1779W        W20633   5.270  14.645  15.803 -0.2008 -0.4063  0.2235
 1780W        W20634   9.030   7.221   1.181  0.1636 -0.0972  0.1451
 1781W        W20635   4.293  11.999  15.530  0.0398  0.2544  0.2741
 1782W        W20636   8.226  14.549  16.628  0.0316 -0.0501  0.3021
 1783W        W20637  15.491   1.086   4.803 -0.1324  0.2592  0.1499
 1784W        W20638  11.460  16.129   2.110 -0.1398 -0.1592 -0.1879
 1785W        W20639   7.581   0.573  15.852  0.2483  0.0734 -0.0324
 1786W        W20640  10.191   3.509   4.361  0.0626 -0.2813 -0.1505
 1787W        W20641   6.403  11.635  14.370 -0.3617 -0.1745  0.0075
 1788W        W20642  15.140  14.627  12.148  0.0420 -0.2858  0.0910
 1789W        W20643   4.778   8.105   3.656 -0.0266  0.1951 -0.2020
 1790W        W20644  15.040   3.429  15.554  0.3539 -0.2228  0.0963
 1791W        W20645   9.313  14.690  13.808  0.0401 -0.2041 -0.1078
 1792W        W20646   3.041  15.315   2.763 -0.0243 -0.0850 -0.3777
 1793W        W20647  11.908   6.911   1.873  0.0504 -0.2834 -0.3393
 1794W        W20648  10.105   9.576  12.601  0.1149  0.0949  0.1278
 1795W        W20649  16.984   1.799  16.707  0.0479  0.0882  0.1209
 1796W        W20650  12.767  12.095  16.258 -0.0930  0.1514  0.1824
 1797W        W20651  16.537   6.261  17.257 -0.3555  0.2296  0.0225
 1798W        W20652   6.684  11.910   5.309 -0.1619 -0.1627  0.0675
 1799W        W20653   6.013   7.580   2.845 -0.1442  0.0333  0.0679
 1800W        W20654   5.584   9.557  14.031  0.1861 -0.1995  0.1993
 1801W        W20655   2.827   7.253  17.302 -0.1358  0.4516  0.1329
 1802W        W20656   6.177   7.455  14.104  0.3386 -0.1365  0.1034
 1803W        W20657   3.606  11.156  16.035  0.0758  0.0558 -0.0721
 1804W        W20658  16.313   9.191   2.491 -0.1135 -0.3109  0.2539
 1805W        W20659   9.785   8.987   1.638 -0.0809 -0.0211 -0.0289
 1806W        W20660  14.210   1.779   3.528 -0.2253 -0.0762 -0.1344
 1807W        W20661   4.419   9.735  16.950  0.2951 -0.0697  0.0962
 1808W        W20662   6.494   7.673  16.246  0.1360  0.1894  0.1889
 1809W        W20663   7.105  13.674  15.621  0.1289 -0.1846  0.2313
 1810W        W20664  14.111  13.796   0.603  0.0839 -0.1006 -0.2921
 1811W        W20665   7.673   2.189  16.568  0.1693  0.0104  0.0582
 1812W        W20666   3.986  12.086   0.893 -0.2282  0.0819 -0.2345
 1813W        W20667  16.102   6.633   0.182  0.2798  0.0950  0.0979
 1814W        W20668  13.232  17.295  17.107 -0.2569 -0.0364  0.4435
 1815W        W20669  15.326   4.010   0.471 -0.0097  0.0996 -0.2811
 1816W        W20670   7.147   2.213   3.286 -0.2158  0.0487  0.0266
 1817W        W20671  11.232  10.681  13.968 -0.0388 -0.2778 -0.2205
 1818W        W20672  10.142  13.032   2.879 -0.1790 -0.2608  0.0250
 1819W        W20673   0.900   3.911   3.268  0.2089 -0.1193  0.0845
 1820W        W20674  13.392   8.458   1.019  0.1990  0.1594  0.0684
 1821W        W20675  12.130   6.938   5.453  0.2021 -0.2629  0.0076
 1822W        W20676  10.891  14.230   4.398  0.1109 -0.0401 -0.2652
 1823W        W20677  14.650  12.295  12.467 -0.0806 -0.2730  0.1599
 1824W        W20678  16.775   2.054   0.682  0.0208 -0.3745  0.0052
 1825W        W20679   8.254   5.961  13.056 -0.1874  0.1897  0.2968
 1826W        W20680  14.299  15.694  13.695  0.0351  0.4310 -0.0990
 1827W        W20681  14.231  10.992   2.358 -0.0790 -0.0763 -0.1253
 1828W        W20682   4.838   9.509  17.154 -0.2021 -0.1310  0.2234
 1829W        W20683   4.815  15.505  13.012  0.3424  0.1337 -0.0010
 1830W        W20684  10.838   0.637   4.351  0.2018  0.0316 -0.4651
 1831W        W20685   4.265   8.328   4.818 -0.1630  0.0902  0.0495
 1832W        W20686   8.300  16.000  15.466  0.2238  0.2248  0.0145
 1833W        W20687   9.862   3.333  15.688 -0.1282  0.1678  0.4312
 1834W        W20688   8.566   8.075  17.444  0.1455 -0.1488 -0.1098
 1835W        W20689   7.385   7.546   2.369  0.1208 -0.0633  0.0750
 1836W        W20690  10.969   4.240  15.275 -0.1106  0.3702 -0.1120
 1837W        W20691   7.066   7.397  13.567  0.3391 -0.1643  0.0492
 1838W        W20692   6.631   2.352   0.388 -0.0825 -0.3917 -0.0910
 1839W        W20693  14.063  12.241   1.459  0.2561  0.1884 -0.0431
 1840W        W20694   7.514  13.125   3.926 -0.0651 -0.1869 -0.0782
 1841W        W20695  11.366  12.088   3.694 -0.2368 -0.0135 -0.2150
 1842W        W20696  13.927   4.068  17.289  0.1220  0.0707  0.2988
 1843W        W20697  12.221  15.658  15.398  0.0981  0.0983  0.1284
 1844W        W20698  15.645   6.998  13.543 -0.0153 -0.0545  0.0313
 1845W        W20699   5.037   5.540  13.315  0.0630 -0.0312 -0.0155
 1846W        W20700  16.916  13.505   1.500  0.2447 -0.0793  0.2592
 1847W        W20701   1.742  16.238   0.322  0.1245  0.2380  0.0368
 1848W        W20702   8.995   9.035   4.236  0.0328 -0.0676  0.2254
 1849W        W20703   0.603  12.999  11.969  0.0351  0.0277 -0.1571
 1850W        W20704   0.177   0.830   2.274 -0.2835  0.4054 -0.0191
 1851W        W20705   1.309  15.342   4.385  0.1633 -0.0723  0.3134
 1852W        W20706   4.511  16.633  12.899 -0.1891 -0.2405  0.0451
 1853W        W20707  15.056   5.989  14.421 -0.0889  0.2041 -0.0856
 1854W        W20708  14.693  11.216   0.761 -0.0027 -0.2051  0.2686
 1855W        W20709   6.533   0.778   0.164  0.0852  0.2317  0.0102
 1856W        W20710  11.877   2.792   2.806 -0.0379  0.2556  0.0877
 1857W        W20711  11.519   7.587   5.955  0.0642 -0.0963 -0.1437
 1858W        W20712   7.674  15.755   5.412  0.2460 -0.0821 -0.0784
 1859W        W20713   1.687   9.084   2.083  0.2385 -0.2397 -0.3231
 1860W        W20714  11.822  14.075  16.054  0.1692 -0.0670  0.2234
 1861W        W20715  16.491   4.936   4.433  0.1211 -0.0870  0.1343
 1862W        W20716  10.633   2.774  14.394  0.2768  0.0573  0.2436
 1863W        W20717  10.730   8.926   0.039  0.1575  0.0665 -0.2842
 1864W        W20718   0.867   9.443  15.860 -0.1603  0.0744 -0.0252
 1865W        W20719   2.799  16.955   3.261 -0.2063  0.1294 -0.0429
 1866W        W20720  12.755   8.094   0.479  0.0998 -0.2014 -0.3447
 1867W        W20721   0.698  15.137  16.540  0.0024  0.0015 -0.0087
 1868W        W20722  12.914   2.115   0.515 -0.3555 -0.1312  0.0350
 1869W        W20723  16.892   6.186   2.442 -0.0780  0.0574 -0.0597
 1870W        W20724  16.330   0.065   4.751 -0.2568  0.0833 -0.0172
 1871W        W20725  12.241  17.292  13.478  0.1734  0.0050  0.0001
 1872W        W20726   3.160   9.742   3.292  0.0443 -0.2150 -0.0065
 1873W        W20727  12.471   2.370   3.698  0.0595 -0.0889 -0.0687
 1874W        W20728  10.706  16.966   1.290  0.1905  0.3344  0.0949
 1875W        W20729   8.390  15.208   3.397  0.3864 -0.1106 -0.0321
 1876W        W20730   1.678   8.831  16.419 -0.1980 -0.1625  0.1799
 1877W        W20731   7.774   5.937  13.240 -0.0731  0.0828  0.1116
 1878W        W20732  11.983   3.370   0.860  0.2809  0.0463  0.0284
 1879W        W20733   1.341   1.353   4.535  0.2254 -0.1080  0.1649
 1880W        W20734  11.995  13.644   1.193  0.2887  0.0619  0.0322
 1881W        W20735  11.642   3.646   1.297  0.1857 -0.1758  0.0429
 1882W        W20736  11.677   9.754  16.619 -0.0562  0.3089  0.0402
 1883W        W20737  11.568   8.977   1.299 -0.1428  0.0400  0.1210
 1884W        W20738   1.696  14.974  15.908 -0.0844  0.2325 -0.0789
 1885W        W20739  13.426   1.428  14.240  0.0183  0.0302 -0.0457
 1886W        W20740  15.190   1.541  12.941 -0.1427  0.1641  0.0540
 1887W        W20741  10.558  14.951   2.156 -0.0095 -0.1387  0.2090
 1888W        W20742   8.220  11.392  16.643 -0.0393  0.1517  0.4473
 1889W        W20743   4.583  17.289  15.193  0.2255 -0.0061  0.0557
 1890W        W20744   5.914   9.932   1.173 -0.2623 -0.0074  0.0287
 1891W        W20745  12.691  17.171   2.081 -0.2454 -0.1813  0.0145
 1892W        W20746  15.622   3.769   0.841  0.2892 -0.1338 -0.0858
 1893W        W20747   5.409  15.773  15.800 -0.4118  0.0079 -0.0873
 1894W        W20748   5.224   1.525  12.712  0.1539 -0.1727 -0.0918
 1895W        W20749  11.269   7.583  12.545 -0.1069 -0.1808 -0.0690
 1896W        W20750   2.805  10.853  12.038 -0.2157  0.0240 -0.0499
 1897W        W20751   2.969   7.403  13.827  0.1490  0.0832 -0.0944
 1898W        W20752   2.154   3.612   0.326 -0.1911  0.1171 -0.0286
 1899W        W20753   1.664   4.956  13.590  0.0300  0.0635 -0.2283
 1900W        W20754   0.955   6.824   4.645 -0.1070 -0.0930  0.3628
 1901W        W20755  14.840   3.119   0.518 -0.2613  0.0020 -0.1231
 1902W        W20756  12.360   6.359   0.533  0.2860 -0.1526  0.0480
 1903W        W20757  12.701   1.088  16.903 -0.0358 -0.1584 -0.0685
 1904W        W20758  11.226  12.199   3.149  0.1061  0.2361 -0.0101
 1905W        W20759   8.612   0.771   2.177  0.3624 -0.0839  0.1337
 1906W        W20760   2.340   9.383   4.168  0.1713  0.1413 -0.1157
 1907W        W20761   9.599   2.589   5.782 -0.0946  0.0629  0.0493
 1908W        W20762  10.907  13.144   1.181 -0.1748  0.1060  0.3375
 1909W        W20763   5.862  13.105   2.793 -0.0086 -0.0833 -0.3629
 1910W        W20764   1.258  12.377  13.250  0.0579 -0.0719  0.3032
 1911W        W20765  17.157  12.027  15.529  0.3013 -0.1267 -0.0216
 1912W        W20766  14.990   1.651  14.321  0.0387 -0.2178  0.0772
 1913W        W20767  15.072  16.903  15.688  0.0438 -0.0272 -0.1992
 1914W        W20768   7.199   9.695   3.081  0.0081 -0.0619  0.3209
 1915W        W20769  13.716   4.216  12.820 -0.1324 -0.1660 -0.1060
 1916W        W20770  15.068   3.989   2.295 -0.3085 -0.0591  0.1353
 1917W        W20771  11.802   2.788   4.334  0.1196 -0.2039 -0.1301
 1918W        W20772  15.140   8.844   0.652 -0.2503  0.0686 -0.3038
 1919W        W20773   0.078   5.211   1.900  0.0240  0.0970 -0.1563
 1920W        W20774   2.375  12.000  16.045 -0.0372  0.0504 -0.1866
 1921W        W20775   8.912   4.773   0.643  0.4283  0.0930  0.1861
 1922W        W20776  15.641   1.597   1.030 -0.0583 -0.0004  0.1807
 1923W        W20777   4.583  17.125  14.680  0.2346  0.0834  0.0981
 1924W        W20778   1.067   8.732   3.817 -0.0200  0.3411 -0.0360
 1925W        W20779  13.700   0.650  13.638 -0.0771 -0.0970  0.0207
 1926W        W20780   6.575   7.459   0.434  0.0052 -0.0151 -0.0039
 1927W        W20781   1.064   6.155  11.583 -0.2242  0.0097 -0.1057
 1928W        W20782   3.219   9.555  13.611 -0.1946  0.0294 -0.0753
 1929W        W20783  15.698  10.005  14.502  0.2747  0.2602  0.5041
 1930W        W20784   6.426   2.656  14.406 -0.4034  0.1259 -0.1542
 1931W        W20785   3.841   8.072   3.217 -0.0127  0.1929 -0.1844
 1932W        W20786  10.650  14.646  12.299 -0.1089 -0.0512  0.0915
 1933W        W20787   8.004  14.406   0.324  0.1195 -0.2204  0.2072
 1934W        W20788   9.971  16.245  17.148 -0.0352 -0.2742 -0.2637
 1935W        W20789  11.190   3.392  17.398  0.0921 -0.1190  0.1507
 1936W        W20790   1.702   7.384  14.640 -0.0772 -0.0226 -0.2703
 1937W        W20791   2.780  11.633  14.756  0.0032  0.1667  0.1279
 1938W        W20792   9.773  11.355   2.931 -0.0171 -0.1156  0.2636
 1939W        W20793  11.153  12.958   1.835  0.1313  0.0791 -0.2386
 1940W        W20794   3.088   7.759   5.319 -0.3639  0.0344 -0.1029
 1941W        W20795   5.735   1.862   4.875  0.0069 -0.0010  0.2982
 1942W        W20796  15.317  10.265   3.136  0.1446  0.0088 -0.0567
 1943W        W20797   6.468   6.155   1.891 -0.0631 -0.2129  0.2051
 1944W        W20798   2.829   3.534   0.263 -0.1386  0.0685 -0.0814
 1945W        W20799   1.002   5.795   4.680  0.1599 -0.0202  0.0060
 1946W        W20800   9.362  17.181  11.451  0.1229 -0.1877  0.0111
 1947W        W20801   1.015  13.489  13.031  0.0453  0.0105  0.0399
 1948W        W20802   6.315   9.283   1.550 -0.2532  0.1471  0.0738
 1949W        W20803  13.934   7.215  14.877 -0.1641 -0.0577 -0.2091
 1950W        W20804   6.495  15.462   1.156  0.1410 -0.0716 -0.2187
 1951W        W20805  17.087  10.900  17.351  0.0039 -0.0832 -0.1188
 1952W        W20806   2.485   2.667  12.851  0.0323  0.0886  0.1850
 1953W        W20807   5.229  10.460   0.084  0.0323  0.0760  0.0171
 1954W        W20808  16.363   6.106   2.642  0.0041  0.0721  0.2072
 1955W        W20809   0.101   6.100   4.985 -0.1100 -0.0476  0.1510
 1956W        W20810   8.236   1.756   3.447 -0.0364  0.3373  0.0045
 1957W        W20811   2.735   7.751  16.731  0.5425 -0.0005 -0.0168
 1958W        W20812   7.936   3.586   0.216 -0.1962  0.3163 -0.3208
 1959W        W20813   8.072  16.879  12.967  0.1079 -0.0024  0.1436
 1960W        W20814  12.054   8.390  14.814  0.1421  0.2532  0.0651
 1961W        W20815  13.110   7.993   4.584 -0.0311  0.1376  0.3047
 1962W        W20816  12.471  16.817   0.335 -0.0208 -0.1575  0.2284
 1963W        W20817  10.368   6.335  17.423 -0.1127 -0.0140  0.0314
 1964W        W20818   0.544   3.729  13.104  0.0253  0.1147  0.1675
 1965W        W20819  12.998   0.175  13.056 -0.4226  0.2724  0.2111
 1966W        W20820  10.640   6.160  13.751 -0.0308 -0.0939 -0.0077
 1967W        W20821   3.456  15.065  13.875 -0.1517  0.1147 -0.2317
 1968W        W20822   2.449   2.530  16.338 -0.0662 -0.1396  0.0046
 1969W        W20823   1.615   3.669   0.181  0.1856  0.1231  0.0137
 1970W        W20824  13.735   5.605   1.043 -0.0233 -0.0704  0.1679
 1971W        W20825   8.324   4.499   3.444 -0.2462 -0.1313  0.1500
 1972W        W20826   0.861  11.251   2.284  0.0704 -0.1061 -0.1240
 1973W        W20827   2.611  12.644   0.877  0.2803 -0.2595 -0.0154
 1974W        W20828   8.703  12.728  16.902 -0.1358  0.2628  0.2291
 1975W        W20829   9.195   6.657   5.269 -0.1102  0.0064 -0.0113
 1976W        W20830   0.138   0.525  17.440  0.1597 -0.0191 -0.0788
 1977W        W20831  10.891   4.458   2.098  0.2756  0.1765  0.3232
 1978W        W20832   8.662   3.836   4.382  0.0563 -0.1863 -0.0874
 1979W        W20833   6.117   7.910  16.050  0.0772  0.2423 -0.1919
 1980W        W20834  10.453  12.812  14.570  0.1121 -0.0303  0.0500
 1981W        W20835   3.204  15.972  12.882 -0.0587 -0.3152 -0.0684
 1982W        W20836   7.648   0.147  16.395 -0.0973 -0.2072  0.0060
 1983W        W20837   5.783  11.254   0.558  0.1891  0.0718  0.0077
 1984W        W20838  10.102  12.065   4.251  0.0488 -0.0915 -0.0956
 1985W        W20839   7.253   4.811  12.549  0.0440  0.1670 -0.0611
 1986W        W20840  11.957   1.744  13.360 -0.0160 -0.0616  0.2787
 1987W        W20841  16.851   4.933   0.286 -0.0609  0.1422 -0.3247
 1988W        W20842  15.090   2.613  12.237 -0.2586  0.0996 -0.3312
 1989W        W20843   2.995   4.770  12.152 -0.0503 -0.2400 -0.2304
 1990W        W20844   3.397  16.899   5.341  0.1265 -0.0051  0.0175
 1991W        W20845  12.202  11.694   1.865 -0.1521 -0.4968 -0.0567
 1992W        W20846   9.070  12.667  12.167  0.3459  0.1422  0.0072
 1993W        W20847   2.160   1.805  12.937  0.3174  0.2943  0.1649
 1994W        W20848   2.743  10.647  16.117 -0.1030  0.0400  0.0830
 1995W        W20849   4.533   2.066  14.822 -0.0579  0.1011 -0.0046
 1996W        W20850   1.629  11.364  17.202 -0.3554  0.0647 -0.1133
 1997W        W20851   7.908  11.846  14.046 -0.0159  0.0762  0.2502
 1998W        W20852  14.265   6.190  12.594  0.0176  0.1259 -0.2293
 1999W        W20853  11.173  13.941  12.966  0.1395 -0.3377  0.1214
 2000W        W20854   1.611  10.025   1.013  0.0321  0.0950 -0.0448
 2001W        W20855  10.684   1.207  17.282  0.0150 -0.1215  0.1255
 2002W        W20856   1.396  15.908   0.457  0.1569  0.0143 -0.1647
 2003W        W20857   7.334  15.852   1.658  0.0023 -0.2059  0.0752
 2004W        W20858  13.049   2.718  15.468 -0.2169 -0.0802 -0.0561
 2005W        W20859  15.303  16.521   0.475  0.1159  0.3317 -0.0453
 2006W        W20860   3.155   2.029   3.585 -0.2583  0.0446 -0.1724
 2007W        W20861   3.500   8.235   2.895 -0.2098 -0.0043 -0.0792
 2008W        W20862   6.564   1.365  13.844 -0.0101 -0.1957 -0.2441
 2009W        W20863   7.960   0.521   1.492  0.0424 -0.2877  0.0338
 2010W        W20864  10.019   4.973   0.637  0.0743 -0.0824  0.1018
 2011W        W20865   4.926   2.915   4.482 -0.2493  0.0978 -0.1103
 2012W        W20866  10.774  11.422   3.873 -0.1078 -0.1847 -0.0373
 2013W        W20867   3.285   6.255  17.055  0.0464 -0.4315 -0.1772
 2014W        W20868  16.149   3.630  12.250  0.3007 -0.1408  0.1771
 2015W        W20869  10.955  11.941  15.752 -0.0216  0.1620  0.2635
 2016W        W20870   8.193  13.185  12.750 -0.1386 -0.0408 -0.1128
 2017W        W20871   8.048   6.310   3.444 -0.0551 -0.1235 -0.0501
 2018W        W20872   5.985  15.473  17.034  0.0061  0.0192 -0.0327
 2019W        W20873  16.756   2.342  12.939 -0.0580  0.1977 -0.2315
 2020W        W20874   0.735   2.986  15.842  0.1249  0.0086  0.1712
 2021W        W20875  14.096  16.605  16.487 -0.0189  0.2615  0.1202
 2022W        W20876   0.737   4.444  16.860 -0.0058 -0.1369 -0.0714
 2023W        W20877  16.849  14.819   3.578  0.2531 -0.0174 -0.1960
 2024W        W20878   6.898  14.158  14.800  0.0842  0.1632 -0.1134
 2025W        W20879   4.267   9.382   1.199  0.0132  0.1156  0.0270
 2026W        W20880   9.479   7.379  16.373  0.1715 -0.0937 -0.0057
 2027W        W20881   4.170   5.730   2.559  0.2172  0.0987  0.0162
 2028W        W20882   9.302  12.231  16.514 -0.0649 -0.1714  0.3009
 2029W        W20883  14.565  16.265  12.012  0.1057 -0.0192 -0.1163
 2030W        W20884   1.351   2.544  12.827  0.0470 -0.0301 -0.2425
 2031W        W20885   7.017  13.852   1.646  0.1455 -0.0178  0.0223
 2032W        W20886   9.873  13.763  15.887  0.0689 -0.0794 -0.3327
 2033W        W20887   2.733   0.744  16.588  0.0334 -0.2072 -0.0906
 2034W        W20888  12.870  10.011  12.802 -0.3029 -0.1712  0.1364
 2035W        W20889  11.055  15.845  12.046 -0.4158 -0.0964 -0.2449
 2036W        W20890  11.155   4.101  16.546 -0.1654  0.1434  0.2100
 2037W        W20891  15.714  12.968   4.154  0.2468  0.2339 -0.0105
 2038W        W20892  11.921   2.572   0.595  0.0765 -0.4262  0.1661
 2039W        W20893  15.866   6.179  16.862 -0.0205 -0.0098 -0.0577
 2040W        W20894  11.669   3.348   2.157  0.2089 -0.3047 -0.3099
 2041W        W20895   1.963   9.175  14.159  0.2059 -0.0002  0.0237
 2042W        W20896   8.389   1.669  16.142 -0.0181 -0.6636 -0.0891
 2043W        W20897  15.576   4.177  13.148  0.2835 -0.1147 -0.2096
 2044W        W20898  11.833   6.063  12.722 -0.0440  0.1143  0.1488
 2045W        W20899   4.522  12.144  14.583 -0.1834  0.1534  0.2130
 2046W        W20900   1.679   0.124  15.402  0.0553 -0.2466 -0.1915
 2047W        W20901   3.179   0.652  13.333 -0.2427  0.4291  0.0774
 2048W        W20902  10.276   8.704   4.611  0.0122  0.3337  0.3748
 2049W        W20903  10.528  13.443  14.021  0.2466  0.0253 -0.2334
 2050W        W20904  11.046  12.431  12.939  0.0941  0.0277 -0.0172
 2051W        W20905   2.953  17.178   1.167  0.1430  0.0511  0.3085
 2052W        W20906  17.248   2.122  15.033  0.1469 -0.2537  0.2283
 2053W        W20907   8.067   6.017   1.750 -0.0181  0.0172  0.4202
 2054W        W20908  11.229   7.720   5.208 -0.1451 -0.3903 -0.1398
 2055W        W20909   8.268  16.585   5.656  0.3313 -0.2100 -0.1437
 2056W        W20910   1.110   8.183   3.031  0.0414 -0.2680 -0.0752
 2057W        W20911  14.446   3.500  13.829  0.1384 -0.0972 -0.1287
 2058W        W20912  17.123   8.908   2.593  0.0541 -0.1072 -0.0950
 2059W        W20913   5.287  11.079   0.582 -0.1624 -0.0235  0.1449
 2060W        W20914  11.389  10.426   0.471  0.0345 -0.0043  0.0483
 2061W        W20915   2.180   5.661   0.485  0.1388  0.1305  0.1375
 2062W        W20916  12.896   3.239   0.654 -0.0047  0.0467 -0.2941
 2063W        W20917  10.998  11.931   4.910 -0.0002  0.2468  0.1141
 2064W        W20918   6.401   6.968  14.030  0.1295  0.2259  0.1254
 2065W        W20919   4.351   8.650  14.150 -0.0007 -0.0514 -0.2648
 2066W        W20920   4.252   6.867  14.948  0.1852  0.0641 -0.1777
 2067W        W20921  15.059   5.082   0.034  0.0714  0.0363 -0.3317
 2068W        W20922   1.700   0.333   2.485 -0.0668 -0.1592  0.1511
 2069W        W20923  15.461   8.063  14.353 -0.2574  0.1201  0.1848
 2070W        W20924  14.661  12.213   3.524 -0.2453  0.1343 -0.1034
 2071W        W20925   3.784  13.493  15.011 -0.0157  0.2192 -0.1233
 2072W        W20926   9.951   5.069   0.071 -0.0795  0.0565  0.2163
 2073W        W20927   2.983  16.204   3.108  0.1016  0.4264 -0.1640
 2074W        W20928   8.711   4.304   1.980 -0.3239 -0.0998 -0.1266
 2075W        W20929   4.192   2.227   5.585  0.0003 -0.1084 -0.0416
 2076W        W20930   8.635   2.731   3.109 -0.0631 -0.0040 -0.0317
 2077W        W20931  10.165   6.104   5.262  0.0221  0.0163  0.1429
 2078W        W20932   1.873  16.870   0.297 -0.0156  0.0029 -0.1064
 2079W        W20933   5.434   4.448  14.288 -0.0917 -0.1536  0.1338
 2080W        W20934  10.068  10.085   1.390 -0.2369 -0.1639  0.1937
 2081W        W20935   2.170  13.666  16.354 -0.3940  0.0649  0.1712
 2082W        W20936   7.039   1.295  13.796  0.1232 -0.1373 -0.0162
 2083W        W20937   6.620   9.836   2.783  0.1138  0.0360  0.0698
 2084W        W20938   0.148  15.871  12.382 -0.2608 -0.0752  0.2575
 2085W        W20939   7.269  10.607  12.906 -0.3052  0.1646  0.0339
 2086W        W20940   2.030  11.813   4.898 -0.0661  0.1667  0.1703
 2087W        W20941  10.211  13.976   5.049  0.0205  0.3346 -0.0055
 2088W        W20942   2.830   3.229   1.671 -0.0588  0.1585 -0.3231
 2089W        W20943  13.687  14.873  13.831  0.1811 -0.2123 -0.4530
 2090W        W20944  12.666  15.412   2.278  0.1393 -0.0910 -0.1665
 2091W        W20945  13.659   6.491   0.951  0.0799 -0.0353 -0.2495
 2092W        W20946  13.689   8.141  12.979 -0.0031  0.1263  0.1767
 2093W        W20947   9.417  12.835  13.566 -0.1561  0.2522  0.1874
 2094W        W20948   6.094  15.014  14.371  0.2207  0.2362  0.1423
 2095W        W20949   8.873   3.720   0.458  0.0940 -0.0890  0.0776
 2096W        W20950   0.307   7.403  13.529 -0.0840 -0.1723  0.1062
 2097W        W20951   8.079   5.583  15.710 -0.0129 -0.1712 -0.1071
 2098W        W20952  12.000   5.086  13.622 -0.0454  0.0836 -0.3205
 2099W        W20953   3.001   1.099   1.604 -0.1385  0.1043 -0.1303
 2100W        W20954  14.738  11.510  14.574 -0.2326  0.4564  0.1645
 2101W        W20955   7.667   8.140   3.112  0.0338 -0.1092 -0.1422
 2102W        W20956  13.634   7.913   4.801 -0.1391  0.0360 -0.1770
 2103W        W20957  10.061   1.501  15.582  0.2335 -0.0629 -0.1385
 2104W        W20958  13.741   7.332  13.543  0.1318 -0.0627  0.0458
 2105W        W20959  13.012   0.495   1.227  0.2946 -0.1830  0.1189
 2106W        W20960   3.893  13.402  16.106  0.1351 -0.0329 -0.2989
 2107W        W20961  11.367  10.984   0.515  0.1680 -0.2279 -0.2162
 2108W        W20962   6.400   0.348  13.697 -0.2164 -0.2825  0.2665
 2109W        W20963  15.387   1.978  12.795 -0.0727 -0.2574 -0.0770
 2110W        W20964   1.289   2.154   2.566 -0.1812 -0.1761 -0.1474
 2111W        W20965  10.808   7.463   0.573  0.0019  0.1539 -0.1674
 2112W        W20966   5.879   3.371   1.410  0.0365  0.2410 -0.1098
 2113W        W20967   5.731  12.140   3.465  0.0821  0.2156 -0.1346
 2114W        W20968  13.745   5.068   4.790 -0.2070  0.1322 -0.0217
 2115W        W20969  16.891   5.669   2.573  0.1464  0.2926  0.0714
 2116W        W20970   7.299  16.939  12.515  0.2193  0.2162  0.2718
 2117W        W20971   2.216   0.790  15.330  0.0322  0.0240 -0.2331
 2118W        W20972   9.993   6.977   4.207 -0.2892 -0.0087 -0.0074
 2119W        W20973  14.361   8.211  16.816 -0.1781  0.0467  0.4021
 2120W        W20974   7.780   6.895  12.981  0.0632 -0.1096 -0.0752
 2121W        W20975  14.691   1.706  13.053 -0.1717  0.3226 -0.1190
 2122W        W20976   1.983   6.780   1.453 -0.2370 -0.1987 -0.0333
 2123W        W20977   5.072  14.837  13.561 -0.1595 -0.1251  0.4481
 2124W        W20978   6.600   3.190   2.608  0.1457 -0.1320  0.3481
 2125W        W20979   5.763   1.143   2.688 -0.5091  0.1447  0.0883
 2126W        W20980   4.270   2.569  13.722 -0.0061 -0.0358 -0.2543
 2127W        W20981   8.987   2.956  15.325 -0.0573  0.0511 -0.1345
 2128W        W20982   8.311   1.122   1.297  0.1580  0.0224  0.1000
 2129W        W20983   4.341   1.789  12.540  0.2425 -0.0137  0.1650
 2130W        W20984  15.669  13.864  12.454 -0.2958 -0.2162 -0.0354
 2131W        W20985   6.543  16.405   2.562  0.0819 -0.0385  0.0960
 2132W        W20986  11.741   7.395   1.644  0.0322  0.1149  0.0974
 2133W        W20987  16.454  13.265   2.188 -0.1230  0.0997 -0.0381
 2134W        W20988  15.594  13.064   4.939  0.1887  0.0708 -0.3207
 2135W        W20989   0.637  13.674   0.421 -0.1436  0.2619 -0.5447
 2136W        W20990  15.295   5.681  13.323  0.1362  0.2306  0.1880
 2137W        W20991  13.275   9.020  17.329 -0.0989  0.2716 -0.1371
 2138W        W20992   8.677   3.325  12.685 -0.3060 -0.1237  0.0261
 2139W        W20993   0.914  13.634   0.797 -0.2016 -0.1608  0.1230
 2140W        W20994   7.183   6.889   3.008  0.0529 -0.1442 -0.0237
 2141W        W20995   4.503   9.596  14.000  0.1212  0.1120  0.1718
 2142W        W20996   1.634  13.065   3.902  0.0412  0.1885 -0.1516
 2143W        W20997   7.512   5.404   0.529  0.1272  0.1104 -0.1246
 2144W        W20998  12.838   7.159  14.794  0.0609 -0.0802 -0.2048
 2145W        W20999  10.101  16.691   2.217 -0.2504 -0.0913 -0.1441
 2146W        W21000  10.961  13.488  12.697  0.1858  0.1131  0.0012
 2147W        W21001  16.428   3.041  16.367  0.1066  0.1252 -0.0446
 2148W        W21002   6.802  14.000  16.531 -0.1598  0.0400  0.1517
 2149W        W21003   2.595   9.909  12.407 -0.0973 -0.1481  0.0111
 2150W        W21004  11.710   1.699   3.102  0.2943  0.0455 -0.0729
 2151W        W21005   7.303  12.277  12.083 -0.0175  0.3085  0.3000
 2152W        W21006   0.983  16.816   3.037 -0.0704  0.1444  0.0081
 2153W        W21007  12.112  10.434  13.902  0.0251 -0.0607  0.0729
 2154W        W21008  14.070  16.699  13.882  0.1363 -0.1853  0.0635
 2155W        W21009   5.520  12.380  13.971 -0.0597 -0.0518  0.1053
 2156W        W21010   3.102   4.375   0.927  0.1514 -0.1969  0.0909
 2157W        W21011  16.706  12.702  15.953 -0.0333 -0.0791  0.4751
 2158W        W21012  16.642  13.878  13.892  0.2200 -0.0105 -0.0233
 2159W        W21013   7.429   1.030  16.046  0.1534 -0.1741 -0.3746
 2160W        W21014  11.970   4.796   2.943  0.0491 -0.1270  0.1988
 2161W        W21015  15.699   8.871  15.500 -0.1643 -0.0601 -0.0521
 2162W        W21016  16.208   6.043  12.653 -0.2922  0.2510 -0.0598
 2163W        W21017  14.621   7.811  14.722  0.2841  0.0767  0.2426
 2164W        W21018   4.894   5.374  12.801 -0.1050  0.1769  0.2278
 2165W        W21019   3.140   6.765   2.156 -0.1777 -0.3191 -0.2680
 2166W        W21020  12.753   3.242   3.427  0.2269  0.1185 -0.2336
 2167W        W21021   5.803   3.412   3.134  0.0381 -0.1889  0.0638
 2168W        W21022   5.834   7.943   0.489  0.0218 -0.0151  0.0338
 2169W        W21023  11.635  12.983   4.431 -0.2796  0.0179  0.1907
 2170W        W21024  13.312  10.280   2.411  0.3372  0.0288 -0.0575
 2171W        W21025  14.217  13.239   1.710 -0.1471 -0.1886 -0.3016
 2172W        W21026   7.093   1.624  15.811  0.0160 -0.1387  0.1300
 2173W        W21027   6.527   5.634  12.992  0.1303 -0.1837 -0.3230
 2174W        W21028   9.349  16.740   0.810 -0.2739  0.0116 -0.3185
 2175W        W21029  15.648   7.865  15.929 -0.2158  0.1350  0.0893
 2176W        W21030   6.905   5.893  14.967 -0.0207  0.0548  0.2545
 2177W        W21031   1.145  13.164   3.053  0.1144  0.0669  0.2505
 2178W        W21032   3.667   0.072   1.488  0.0208 -0.2862  0.0296
 2179W        W21033   7.262   4.774  13.843 -0.0863 -0.3905 -0.0495
 2180W        W21034  15.157   7.212   5.188 -0.1056 -0.1349  0.0554
 2181W        W21035   1.115   5.801   0.504  0.0031  0.0276 -0.2657
 2182W        W21036   2.055   2.152  16.460 -0.1692  0.1416  0.2592
 2183W        W21037  13.300  15.481   3.424 -0.0615 -0.1674  0.1843
 2184W        W21038   5.175   8.243  15.828  0.0517  0.1344  0.1578
 2185W        W21039  10.299   7.908  15.336 -0.0528 -0.1144  0.1308
 2186W        W21040   1.934   2.212   1.281 -0.3685  0.1493  0.0719
 2187W        W21041   7.029  12.596   0.916  0.0178  0.3463  0.0893
 2188W        W21042  14.012   6.250   1.370 -0.3699  0.0774 -0.3080
 2189W        W21043  11.559  15.027  14.942  0.3046  0.1933  0.0416
 2190W        W21044  10.451  16.046   0.447 -0.2804  0.3372  0.3451
 2191W        W21045   2.071   1.556   3.640 -0.1051 -0.1087 -0.1704
 2192W        W21046  12.810   9.046   0.586  0.1035 -0.0701 -0.1463
 2193W        W21047  12.630   0.549  13.888  0.1665  0.1004 -0.2893
 2194W        W21048   9.723   0.877   0.137  0.2803  0.1216  0.2239
 2195W        W21049  16.086   7.361   2.393  0.1943  0.0276  0.0411
 2196W        W21050   2.464   1.126   3.465  0.0218  0.1159 -0.1837
 2197W        W21051  10.226   6.650   3.850 -0.0297  0.0966 -0.0556
 2198W        W21052  16.809   4.832  16.922  0.2558 -0.2100 -0.1509
 2199W        W21053  14.667   3.185  11.760  0.0251  0.0199  0.1842
 2200W        W21054  14.722   7.061  16.236  0.0368 -0.2194 -0.1314
 2201W        W21055  16.121  14.192   1.127 -0.2287  0.4269 -0.1063
 2202W        W21056   4.108   3.305   3.190 -0.1511 -0.1560 -0.1764
 2203W        W21057   7.735  10.696  16.011 -0.0613 -0.0011  0.0399
 2204W        W21058  10.572   1.577  14.922  0.0908  0.1178  0.5061
 2205W        W21059  13.429  12.720   2.942  0.0809  0.1985 -0.0161
 2206W        W21060   9.420   4.942  15.427  0.1132  0.1097  0.2137
 2207W        W21061   7.186   0.250  12.269 -0.1049  0.0332 -0.2769
 2208W        W21062   2.967   7.317   0.547 -0.3257  0.0429 -0.1798
 2209W        W21063  14.722  11.648   0.410  0.1897 -0.1057  0.0268
 2210W        W21064   3.278   1.977   0.395  0.1962  0.1684 -0.0127
 2211W        W21065  16.435   8.671   1.429 -0.2470 -0.0691  0.1613
 2212W        W21066   8.139  16.522   1.339  0.0812 -0.2975  0.0358
 2213W        W21067   2.598   2.994  14.616 -0.2107 -0.3319  0.1229
 2214W        W21068  15.327  11.258   2.989  0.0637 -0.1384  0.0138
 2215W        W21069  11.842  12.594  15.868 -0.0864 -0.0443 -0.0825
 2216W        W21070   6.705   4.273   3.887 -0.1344  0.1506  0.0208
 2217W        W21071   8.352  15.912  14.081  0.0865 -0.0053  0.1251
 2218W        W21072   9.144  16.521  13.173  0.1006  0.0463  0.2417
 2219W        W21073   5.097   0.710   5.509  0.0283 -0.0856  0.2639
 2220W        W21074   3.254   3.901   3.920 -0.3353 -0.0750  0.0123
 2221W        W21075   1.690  12.054   0.575  0.0329  0.0838 -0.1048
 2222W        W21076  13.041  13.733   4.761 -0.1883 -0.2525  0.1164
 2223W        W21077   4.764  10.240  14.910 -0.0462  0.2495 -0.0412
 2224W        W21078  13.470  15.823   1.482 -0.1589  0.0634  0.0263
 2225W        W21079  12.725   6.444   4.002  0.1155  0.0968  0.0676
 2226W        W21080   4.835   8.116  13.404 -0.1205 -0.0344 -0.3051
 2227W        W21081  13.478   9.025  14.916  0.2236 -0.2676  0.1126
 2228W        W21082  11.357  13.798   2.267  0.1382 -0.0599 -0.3072
 2229W        W21083   5.624   7.214  15.699 -0.0775  0.0036  0.0181
 2230W        W21084   5.670   0.535  16.475 -0.2607  0.2143  0.1154
 2231W        W21085  15.247  15.811   4.436  0.1538 -0.2009 -0.1568
 2232W        W21086  16.726   5.631   3.441 -0.0959  0.1589  0.1147
 2233W        W21087  11.897   4.220  13.206 -0.0367  0.2886 -0.1697
 2234W        W21088  17.146   9.958  16.588 -0.1275 -0.3309  0.2665
 2235W        W21089   5.664   0.196   2.301  0.1887 -0.1797 -0.3500
 2236W        W21090   6.253   9.402  13.332 -0.0446 -0.2690  0.3319
 2237W        W21091   9.863   0.195  17.160 -0.1006 -0.0225 -0.0069
 2238W        W21092  15.823  13.295  13.339 -0.0796  0.0865  0.1531
 2239W        W21093  13.400   1.171   3.318 -0.0575 -0.0236 -0.4017
 2240W        W21094  14.576  12.504  15.644  0.1444 -0.1965  0.2258
 2241W        W21095   9.991   5.709  16.793 -0.0464  0.1347 -0.0266
 2242W        W21096   9.251   3.706   3.713  0.0795  0.0295 -0.0812
 2243W        W21097  17.040   4.306   0.795  0.0490 -0.1782 -0.0496
 2244W        W21098   1.599   7.437  15.112 -0.2764 -0.0129 -0.2785
 2245W        W21099  12.161   6.121  17.407  0.0563 -0.0018  0.1346
 2246W        W21100   7.724  12.711  12.737 -0.0950 -0.1658  0.0783
 2247W        W21101  11.628  14.386   1.674 -0.3302 -0.1998  0.0566
 2248W        W21102  13.421   1.482   1.419  0.4707  0.1273 -0.0911
 2249W        W21103   8.125   3.561  16.228  0.1946 -0.1073  0.0637
 2250W        W21104  10.366   5.916   1.855  0.0570 -0.0382 -0.1127
 2251W        W21105   9.395   1.932   3.142 -0.3081  0.1815  0.2203
 2252W        W21106   3.559   6.083   5.128 -0.0997 -0.0785  0.0871
 2253W        W21107   4.059   5.156  16.700  0.1320 -0.1072 -0.0569
 2254W        W21108  15.544   4.251   3.070 -0.1580  0.0960  0.1831
 2255W        W21109   2.520   3.558  15.842  0.0778 -0.0006 -0.2136
 2256W        W21110   1.895  13.142   1.941  0.1490 -0.0653  0.0966
 2257W        W21111   1.895   8.715  15.040  0.0903 -0.0277  0.0396
 2258W        W21112  14.069  10.532  17.074 -0.0897 -0.0793 -0.1403
 2259W        W21113  11.216  10.821   5.152 -0.1151 -0.1617  0.0311
 2260W        W21114   4.032  10.300   1.574  0.1143  0.1516 -0.1734
 2261W        W21115   6.861   1.777  16.849 -0.0131 -0.0104 -0.2258
 2262W        W21116   7.317   8.337  16.370  0.0333 -0.3575  0.2211
 2263W        W21117   4.143  15.363  16.273 -0.2459  0.0997  0.0251
 2264W        W21118  14.683   1.560  15.070 -0.2852  0.0499 -0.0207
 2265W        W21119   0.781   3.392   3.183  0.1126  0.1019  0.0435
 2266W        W21120  15.273   5.033   3.569  0.0889 -0.1407  0.1854
 2267W        W21121   2.394   4.154   3.876  0.4105 -0.3198 -0.1189
 2268W        W21122  17.333   1.518   4.781 -0.1877  0.2135 -0.0043
 2269W        W21123  17.155  13.225  13.519 -0.1206 -0.2035  0.0037
 2270W        W21124  14.193   1.271   3.502  0.0897  0.1164  0.2392
 2271W        W21125   8.282   5.674   0.749 -0.1820 -0.1919 -0.1430
 2272W        W21126   5.912  16.813   5.084 -0.3595  0.1747  0.0475
 2273W        W21127   4.575  11.146  16.960 -0.0114 -0.1811  0.2110
 2274W        W21128   3.105   1.194  16.667  0.3230  0.1604  0.1858
 2275W        W21129  12.188   2.779   1.410 -0.1523  0.0968 -0.2543
 2276W        W21130   2.410   9.985  11.374 -0.1843 -0.0848 -0.0977
 2277W        W21131  15.556   5.651   2.299  0.1506 -0.0537 -0.0843
 2278W        W21132   3.934   5.791   5.057  0.0318  0.0394  0.0915
 2279W        W21133   2.047  13.374  13.632 -0.0535  0.0435  0.1781
 2280W        W21134  11.752  10.284   0.902 -0.0816  0.1557  0.1621
 2281W        W21135   8.048   9.724  16.876  0.0783  0.0550 -0.1732
 2282W        W21136   3.731  11.766  12.431 -0.0557 -0.0439  0.0668
 2283W        W21137   9.247   4.216  17.355 -0.1378  0.0828 -0.1344
 2284W        W21138   3.720  13.510  12.763 -0.1921 -0.3219 -0.1909
 2285W        W21139   8.021   4.337   0.812 -0.3978  0.0100 -0.0040
 2286W        W21140  16.655  13.569  13.259  0.0337 -0.3318  0.3950
 2287W        W21141   7.492  14.381   4.973 -0.0344 -0.0686  0.3033
 2288W        W21142   9.360   0.902   1.317  0.1784  0.0764  0.3326
 2289W        W21143  16.860   7.961   0.204  0.2723  0.1851  0.0289
 2290W        W21144  12.350   5.618   1.131  0.3053 -0.3962 -0.2379
 2291W        W21145   9.697   1.041  15.828  0.0738 -0.1537 -0.2027
 2292W        W21146   5.475   0.693  13.782 -0.1924  0.0281 -0.3054
 2293W        W21147  12.330  15.562   0.870 -0.3414 -0.0272 -0.2014
 2294W        W21148   0.545  14.641  16.653  0.2415 -0.0224 -0.2822
 2295W        W21149  14.402  14.586   3.664  0.0269  0.1323 -0.0367
 2296W        W21150   6.251  13.832   3.677 -0.0058 -0.2265  0.1013
 2297W        W21151   2.888   3.011   1.247  0.0237 -0.1305 -0.2791
 2298W        W21152   4.254   5.776  14.223  0.0959 -0.1354 -0.1128
 2299W        W21153  14.864   2.488   3.914 -0.0772  0.1649 -0.0362
 2300W        W21154  13.116   9.620  13.595 -0.3212  0.2073  0.0461
 2301W        W21155   1.573   6.193   5.051  0.3672  0.2425 -0.2023
 2302W        W21156   8.511   3.757   3.178 -0.1460 -0.1669  0.0728
 2303W        W21157  10.024  12.008   0.632 -0.0937 -0.1622  0.0230
 2304W        W21158   5.960  17.280  14.309  0.0223  0.3003  0.3463
 2305W        W21159   2.517   8.646   2.345 -0.1827  0.0069  0.3126
 2306W        W21160  12.296   3.632   2.297 -0.2896  0.0223  0.0515
 2307W        W21161   9.296  16.518   4.575  0.0668 -0.3361 -0.0117
 2308W        W21162   9.110  15.888   2.911  0.3540  0.1309  0.2025
 2309W        W21163   3.674  12.108  14.142  0.1213  0.0987  0.1098
 2310W        W21164   0.540   7.540  12.657 -0.2403  0.3055 -0.2235
 2311W        W21165  11.767   0.109  14.886 -0.1752  0.1585  0.0015
 2312W        W21166   6.538  15.669  15.075 -0.1305  0.2692  0.2803
 2313W        W21167   6.766   2.588  14.797  0.1569 -0.1218 -0.1988
 2314W        W21168   8.509   2.626   4.495  0.1192 -0.1416 -0.0474
 2315W        W21169   4.572   3.404   2.978 -0.1100 -0.1851 -0.1390
 2316W        W21170   5.811  10.371   3.015 -0.1517  0.2412 -0.2099
 2317W        W21171  14.745   2.293   0.345  0.2835 -0.3973 -0.1361
 2318W        W21172  16.482  10.368  13.933  0.1289 -0.0848 -0.0221
 2319W        W21173   7.385   6.482   1.350 -0.0702  0.0632 -0.0761
 2320W        W21174  11.240   8.847  12.212  0.2247  0.1138  0.1024
 2321W        W21175  15.374   7.374  12.690 -0.1602  0.4733  0.2403
 2322W        W21176   5.586  17.296  13.923 -0.0359 -0.0711 -0.2346
 2323W        W21177  12.165  12.887   5.097 -0.0522 -0.1621 -0.0106
 2324W        W21178   9.313  16.644   3.648  0.0476 -0.3323  0.1852
 2325W        W21179   2.481   3.547   1.946  0.0032 -0.1248 -0.2497
 2326W        W21180  16.795  11.790   2.636 -0.4257  0.3751 -0.0410
 2327W        W21181   3.486   0.173   3.360  0.3183  0.2725 -0.2599
 2328W        W21182  16.117   6.675   3.410  0.1759 -0.1125  0.2100
 2329W        W21183   0.124   9.382  12.967 -0.0751 -0.0285  0.1637
 2330W        W21184  12.007  13.654  14.812 -0.1409  0.0461 -0.0031
 2331W        W21185   7.475   4.647  16.948 -0.1133  0.3047  0.0892
 2332W        W21186   7.045   9.484   4.669  0.2598  0.0673 -0.0355
 2333W        W21187  13.531  11.462   2.658 -0.1538  0.0271  0.0707
 2334W        W21188  16.258   3.619  12.714 -0.2682  0.0524 -0.1025
 2335W        W21189  11.664  13.034  15.737  0.1285  0.0583  0.1558
 2336W        W21190  11.348   4.763   2.172 -0.2428 -0.3964  0.2950
 2337W        W21191   0.409   9.847   0.837 -0.0022 -0.1065  0.2029
 2338W        W21192   9.031   8.887  13.782  0.1219 -0.0471  0.0219
 2339W        W21193  15.406   1.435  14.137  0.1209 -0.1118  0.0963
 2340W        W21194   0.322   2.090  13.537  0.1269  0.1001 -0.0858
 2341W        W21195  11.534  14.829  12.133 -0.0006  0.1579  0.0852
 2342W        W21196  13.478   3.214   2.856 -0.0038  0.0602 -0.1837
 2343W        W21197   9.400   1.086  14.047 -0.1609  0.1942 -0.0728
 2344W        W21198  17.078  17.251   0.101  0.1062  0.1794  0.2151
 2345W        W21199   0.311  16.843   4.737 -0.2224  0.0739 -0.1374
 2346W        W21200  10.037  12.503   0.650  0.1568  0.0272 -0.0816
 2347W        W21201  16.572  13.673   2.614  0.2629  0.1442  0.1445
 2348W        W21202  10.712  15.961   1.283 -0.1199 -0.2491  0.0007
 2349W        W21203   2.891   7.640   2.984 -0.1869 -0.1404 -0.0707
 2350W        W21204  16.557   8.259  12.554  0.1034  0.0984 -0.0575
 2351W        W21205   4.372   1.694   3.384 -0.0531  0.3073 -0.2714
 2352W        W21206  14.636  15.992  16.985  0.1983  0.1462 -0.0031
 2353W        W21207   1.045   7.161   2.965 -0.0008 -0.1249 -0.4524
 2354W        W21208  17.179  12.051   1.992  0.2627 -0.1359  0.2112
 2355W        W21209   6.285  10.787  16.102  0.0096 -0.1470  0.0468
 2356W        W21210   0.108  13.868  15.608 -0.0105  0.1259 -0.0295
 2357W        W21211   2.243  13.251   2.343  0.3145 -0.3127  0.0645
 2358W        W21212   8.582  17.184   5.002 -0.0538  0.3907 -0.0500
 2359W        W21213  15.918   5.602   3.106 -0.0242  0.0353 -0.0331
 2360W        W21214   2.565   2.692  16.832  0.0176 -0.1627 -0.1273
 2361W        W21215  15.418  14.371  15.216 -0.0289 -0.2059  0.1723
 2362W        W21216   1.365   9.827  16.138  0.2672  0.2719  0.2102
 2363W        W21217  13.032  12.272   5.403 -0.0309 -0.0486 -0.2207
 2364W        W21218  15.177   3.548  11.969  0.1382  0.0790  0.2522
 2365W        W21219   0.428  10.038  14.704 -0.0229  0.0082 -0.0472
 2366W        W21220   2.628  15.602  16.360  0.0528 -0.1200 -0.0671
 2367W        W21221   7.355  15.757   0.682 -0.0544 -0.1111 -0.0857
 2368W        W21222  14.367   1.176   2.960 -0.1001 -0.3559  0.0891
 2369W        W21223   8.521   1.728  13.791  0.0203  0.2147 -0.1677
 2370W        W21224  13.054   4.837  16.778 -0.2693  0.1983  0.0658
 2371W        W21225  11.941   2.541  12.245  0.0377  0.2529 -0.0316
 2372W        W21226   2.363  11.146  12.422  0.3013  0.0293 -0.0314
 2373W        W21227  13.497   5.522  17.082  0.0755 -0.0729  0.1382
 2374W        W21228   6.225  15.581   0.756 -0.0741 -0.0188 -0.0680
 2375W        W21229  11.011  15.455   3.845 -0.0516 -0.4008 -0.0693
 2376W        W21230   3.553  16.655   0.093 -0.0829  0.1803  0.1909
 2377W        W21231  11.270   7.258   4.617 -0.0811 -0.2034 -0.0951
 2378W        W21232  15.822   1.917   2.317  0.0038  0.1795  0.2348
 2379W        W21233  10.102   4.540   4.915 -0.0012 -0.2763 -0.0802
 2380W        W21234   1.587   8.983  13.893  0.1675 -0.4343  0.2353
 2381W        W21235  16.541  14.932  13.917  0.2230  0.1131 -0.3227
 2382W        W21236   6.777  11.286  13.699 -0.1424  0.0898  0.0004
 2383W        W21237   8.041  15.994  17.365 -0.0379  0.2307 -0.3673
 2384W        W21238  11.606  14.704   1.266 -0.0833  0.1786  0.0813
 2385W        W21239  15.227   8.947  12.692 -0.0745  0.2094  0.1620
 2386W        W21240   3.146   2.342   2.546  0.0859 -0.0530 -0.4258
 2387W        W21241   0.646  17.017   0.071 -0.1649 -0.0568  0.0252
 2388W        W21242   8.477   9.648  15.669  0.0013 -0.2371  0.0046
 2389W        W21243  12.189  11.089  12.348  0.0094  0.0201 -0.2986
 2390W        W21244   9.249   5.518   5.235 -0.1791 -0.3821  0.0293
 2391W        W21245   3.140   5.134  12.390 -0.3936 -0.2170 -0.0252
 2392W        W21246  15.907  14.483  16.487 -0.1276  0.2686  0.2428
 2393W        W21247   7.805   6.098  16.556 -0.1031  0.3754  0.2436
 2394W        W21248  15.946  15.267  14.083  0.1635 -0.0047 -0.3275
 2395W        W21249  12.906  13.261   2.547 -0.0170  0.0529 -0.0738
 2396W        W21250  16.404   5.670   2.935 -0.1694 -0.1762  0.2232
 2397W        W21251   7.461  10.573   5.482 -0.0046 -0.0559 -0.4383
 2398W        W21252   6.401   9.592  15.279 -0.0883 -0.2048  0.1091
 2399W        W21253   7.444   2.673   1.685  0.0060 -0.2599  0.0204
 2400W        W21254   9.900   1.397  13.060  0.1183 -0.0020  0.0821
 2401W        W21255  16.018   7.267  15.251 -0.1522 -0.0359  0.2410
 2402W        W21256  10.885   3.592  13.754 -0.0493  0.0967 -0.1624
 2403W        W21257   6.199  13.699   1.419  0.1013  0.1774  0.1284
 2404W        W21258   0.769  16.391  13.101  0.1026  0.0321 -0.4869
 2405W        W21259   6.873   9.035  13.417 -0.2508  0.0836  0.1456
 2406W        W21260  14.492   5.912  15.324 -0.1140 -0.0555 -0.0220
 2407W        W21261   1.649  11.872  17.128 -0.0293  0.3034 -0.2446
 2408W        W21262  10.954   9.198  16.230  0.1808  0.2117  0.0236
 2409W        W21263  13.117   0.399   4.162 -0.0662  0.0867 -0.0778
 2410W        W21264  16.268   7.651  13.072 -0.1838 -0.1140  0.0358
 2411W        W21265  16.379   4.671  15.737 -0.0893 -0.0395 -0.0401
 2412W        W21266  14.625   7.885  13.712  0.2070  0.3203  0.1026
 2413W        W21267   8.681  10.230   3.696 -0.1705 -0.2356 -0.0945
 2414W        W21268   0.413   5.715  13.161 -0.2044  0.0637  0.2396
 2415W        W21269   2.198   5.376   2.295 -0.1088 -0.1427 -0.0720
 2416W        W21270   8.589   4.897  17.156 -0.0877  0.2406  0.3450
 2417W        W21271   0.416   2.458  12.847  0.1160  0.0556 -0.1031
 2418W        W21272   0.223   4.827  16.619  0.0778  0.0977  0.0327
 2419W        W21273   0.215   2.297   3.028  0.0408 -0.0726  0.0449
 2420W        W21274   9.431  12.406  13.278  0.2368  0.0568  0.0138
 2421W        W21275   7.084  11.896  15.765  0.0170  0.1059  0.1292
 2422W        W21276   5.669  11.043   2.149  0.4237  0.0942 -0.0963
 2423W        W21277  10.244   4.949   3.308 -0.4349  0.0729  0.4183
 2424W        W21278  13.306  13.018  15.301  0.1182 -0.0204 -0.1477
 2425W        W21279  13.929  11.086   3.826 -0.0020 -0.0657 -0.0886
 2426W        W21280   9.462   2.034   2.191 -0.0254  0.2052  0.1760
 2427W        W21281  16.607  13.350   0.473  0.1919  0.0624 -0.1354
 2428W        W21282   1.931   4.513  15.962  0.2815 -0.2347  0.1545
 2429W        W21283  11.678   3.570   2.671 -0.0419  0.0223 -0.0044
 2430W        W21284   2.360   2.129   4.535 -0.0998 -0.0411 -0.1420
 2431W        W21285   5.711   6.638   1.329 -0.0011  0.0599  0.1212
 2432W        W21286   7.838  14.355  15.616 -0.1018  0.1124 -0.1665
 2433W        W21287   9.574  14.066  17.299 -0.1673  0.0313  0.2965
 2434W        W21288  11.446   7.605   1.985 -0.2301  0.0887  0.0282
 2435W        W21289   0.915  16.172   0.591  0.0534  0.3610 -0.1274
 2436W        W21290   7.402   4.793  14.295  0.3923 -0.1446 -0.3147
 2437W        W21291  14.106  15.903  16.894 -0.1948 -0.2371  0.1602
 2438W        W21292   3.678   2.516  15.857  0.0544  0.1572 -0.2907
 2439W        W21293   4.153  16.969  16.716 -0.0410  0.3715 -0.0223
 2440W        W21294  14.471   4.833  12.270  0.0107  0.2077  0.4439
 2441W        W21295  13.764  16.426  16.931 -0.0787 -0.2057  0.0784
 2442W        W21296  10.071   8.052  13.177 -0.3499  0.2018 -0.0800
 2443W        W21297   2.830   5.879   4.791  0.1609  0.0565 -0.0510
 2444W        W21298  14.198  14.384   2.957 -0.0636 -0.2349  0.0147
 2445W        W21299  15.419   4.686   2.799 -0.2287 -0.1419 -0.1820
 2446W        W21300   3.726   6.871   2.805 -0.2896  0.0481  0.0010
 2447W        W21301  16.621  10.001   4.130  0.0100  0.1795 -0.1379
 2448W        W21302  15.796  11.439   0.664 -0.2579  0.2272 -0.0455
 2449W        W21303  12.529  17.245   1.065  0.1245  0.3768  0.0481
 2450W        W21304  10.474   0.990   4.255 -0.2137  0.2623 -0.3220
 2451W        W21305  11.156   7.353  14.775 -0.0324  0.0307  0.0320
 2452W        W21306  10.383   7.001  13.283  0.2298  0.0851  0.2881
 2453W        W21307   9.642  13.402  15.113 -0.1093  0.0403 -0.0435
 2454W        W21308  13.823   2.255   1.060 -0.3192 -0.3266 -0.0041
 2455W        W21309  10.045   6.014  15.460  0.1479  0.5744  0.0868
 2456W        W21310   6.600  10.699   0.395  0.1795 -0.1115  0.0821
 2457W        W21311   6.536  15.125   0.802 -0.0905  0.0645 -0.0190
 2458W        W21312  13.993  12.740  15.107  0.2065 -0.3403 -0.0472
 2459W        W21313   3.895  15.544   1.469  0.2738  0.0124  0.1704
 2460W        W21314  15.961   7.084   3.143 -0.0214  0.1402  0.0685
 2461W        W21315   8.981   9.494  16.923 -0.2314  0.1528 -0.0516
 2462W        W21316   2.559   1.718   2.792 -0.1788  0.0480 -0.2055
 2463W        W21317   0.458   6.632   3.561  0.1237 -0.2033 -0.0602
 2464W        W21318  10.238  14.612  15.552 -0.2541  0.0841  0.0964
 2465W        W21319   7.915   9.061   4.212  0.2852 -0.1073 -0.1039
 2466W        W21320  12.273   8.170   2.128  0.2072  0.1221 -0.1439
 2467W        W21321  14.756   6.885   1.341  0.0169  0.1510 -0.2397
 2468W        W21322   7.321  15.740   6.127 -0.1318  0.1452  0.3279
 2469W        W21323  10.567  17.263   5.789 -0.0497  0.0670 -0.1798
 2470W        W21324  14.378   9.173   1.943  0.0759  0.2191  0.3479
 2471W        W21325  10.774  10.589   2.504  0.0746  0.1301  0.0583
 2472W        W21326   6.681   9.440  13.129 -0.1983 -0.0190  0.0311
 2473W        W21327  14.514  10.134   4.980 -0.0885  0.2030 -0.1283
 2474W        W21328   5.634  10.248   4.984 -0.0647  0.1935  0.2787
 2475W        W21329  12.034   9.467   1.791  0.0097 -0.2449  0.0105
 2476W        W21330   9.911   6.317  11.911 -0.0248 -0.0761 -0.0139
 2477W        W21331   8.858   2.626  15.647  0.1582  0.0228 -0.6780
 2478W        W21332   3.945   8.633   3.016  0.0169 -0.2114  0.1811
 2479W        W21333   6.944   3.928  17.151 -0.1968  0.1202  0.2641
 2480W        W21334  15.694   5.396  13.073 -0.1259  0.1155 -0.1042
 2481W        W21335  15.542  17.208  13.256  0.1707 -0.0007  0.2118
 2482W        W21336  13.456  17.186   3.105 -0.0700  0.1102 -0.1625
 2483W        W21337   8.223  13.405  16.433 -0.1526  0.4564  0.1703
 2484W        W21338   6.674   0.184   3.948  0.2056 -0.0801 -0.0082
 2485W        W21339   7.684  16.740   2.784  0.3191  0.0439 -0.4441
 2486W        W21340  10.810  10.986  14.012 -0.1884  0.2314  0.1597
 2487W        W21341   6.425   1.550  16.713  0.1915 -0.0970  0.1330
 2488W        W21342  10.576  10.201   0.684  0.1901 -0.0708 -0.2319
 2489W        W21343   9.493   2.656   0.454 -0.0784 -0.0870 -0.0345
 2490W        W21344  15.180   3.898  13.395  0.2630  0.1613 -0.0088
 2491W        W21345   5.739  15.883   1.533  0.0176 -0.1805  0.0872
 2492W        W21346  13.639   3.274   1.454  0.1074  0.0493  0.1317
 2493W        W21347  10.639   2.829   1.891  0.0287 -0.2925  0.0546
 2494W        W21348  13.667   3.871   2.273 -0.0748 -0.1542  0.0941
 2495W        W21349   8.016  11.161   4.346  0.2589 -0.0704  0.0938
 2496W        W21350  16.695  13.208   3.383 -0.0071  0.1201 -0.1645
 2497W        W21351   8.947   4.620   3.101  0.2764 -0.2260 -0.0716
 2498W        W21352  13.264   2.540  14.243 -0.0530 -0.0729  0.0214
 2499W        W21353  10.672  16.914  15.897 -0.1671 -0.0072 -0.1930
 2500W        W21354   5.337   8.823   1.014 -0.0471  0.0275 -0.1430
 2501W        W21355  10.150  10.376   5.181 -0.3011  0.0114 -0.0552
 2502W        W21356   2.956  16.702   0.301  0.3216  0.1900 -0.1065
 2503W        W21357   7.431  13.922   4.608  0.0867  0.0737  0.0003
 2504W        W21358  16.810   7.171   0.655  0.0851  0.0408 -0.1271
 2505W        W21359  10.522   0.223  14.119  0.1466  0.0067 -0.1606
 2506W        W21360   6.116   5.804   2.060  0.1563  0.4329  0.0636
 2507W        W21361  11.322   8.674  12.649  0.0595 -0.1696  0.1267
 2508W        W21362  13.067  11.261   1.562  0.1414  0.0011 -0.0413
 2509W        W21363   8.211   3.981  13.662  0.0620  0.3451 -0.1453
 2510W        W21364   7.520   9.850  12.287  0.0486 -0.0146 -0.2018
 2511W        W21365  12.658   7.912  15.532 -0.1228  0.0362  0.1525
 2512W        W21366  17.206   9.285  17.134 -0.1172 -0.1994  0.2471
 2513W        W21367   7.150  13.504  15.087  0.0233 -0.2629  0.0443
 2514W        W21368   1.372  11.097   0.120  0.0302 -0.2118  0.0074
 2515W        W21369  16.540   3.904  13.019  0.0322 -0.0098 -0.1555
 2516W        W21370  10.157   4.284   5.347 -0.0743  0.1614 -0.2101
 2517W        W21371   6.121  11.269  12.201 -0.2593  0.0038  0.0164
 2518W        W21372   9.648   7.260  16.902 -0.0674  0.0810 -0.0530
 2519W        W21373  16.523   2.633   4.682 -0.6022  0.0658 -0.0605
 2520W        W21374   5.944  12.395  14.747  0.2860  0.0583 -0.1933
 2521W        W21375   5.733  16.051   2.551  0.0395  0.1610 -0.1831
 2522W        W21376   3.579  10.663   3.739  0.3539 -0.0923 -0.1158
 2523W        W21377   8.240   6.587  13.782 -0.1868  0.0975  0.0700
 2524W        W21378   0.219  15.234   2.478 -0.0157  0.0108  0.0695
 2525W        W21379  16.001  13.824   0.687  0.0389 -0.1618 -0.4034
 2526W        W21380   0.614  10.221  16.406 -0.1639  0.4469  0.2292
 2527W        W21381  10.326   1.802  14.520 -0.0776 -0.0131 -0.1955
 2528W        W21382  11.469   2.675  13.679  0.1341  0.2214  0.0617
 2529W        W21383   5.559   7.868   3.077 -0.1290  0.2129  0.1867
 2530W        W21384  14.264   6.660   1.287  0.0299 -0.2696 -0.1935
 2531W        W21385  14.892   7.371   4.359  0.2250 -0.3359  0.0042
 2532W        W21386   7.883   6.011  14.891 -0.1407 -0.0492 -0.0707
 2533W        W21387   2.413   2.227  13.541  0.1639 -0.5396  0.2032
 2534W        W21388   6.640   1.281  12.827 -0.1603 -0.1991  0.3101
 2535W        W21389   9.154   2.408   5.084 -0.1297 -0.0817  0.0940
 2536W        W21390  16.021  11.641  15.046 -0.0827 -0.0372  0.1808
 2537W        W21391   5.433  10.290   4.057  0.0229  0.1395 -0.1734
 2538W        W21392  11.323  11.802   2.198  0.1908 -0.0292  0.2453
 2539W        W21393  12.013  16.538   4.771  0.0527  0.0757 -0.1138
 2540W        W21394   7.973  16.326  15.795  0.3116  0.1591  0.0935
 2541W        W21395   0.128   3.802   0.058  0.0064  0.0041 -0.0951
 2542W        W21396  11.622  14.619  12.577 -0.0549 -0.0791 -0.1229
 2543W        W21397   5.939  14.234   2.788  0.0650  0.3016  0.2316
 2544W        W21398   9.023   1.344   2.965 -0.0692 -0.0595 -0.1067
 2545W        W21399  11.157  10.708   2.804  0.2984 -0.0344 -0.0483
 2546W        W21400   5.632  10.866   3.653 -0.0787  0.1872  0.2394
 2547W        W21401  14.240  12.729  14.678  0.3329 -0.0054 -0.4490
 2548W        W21402   9.748   9.569   3.412 -0.1018 -0.0640 -0.4044
 2549W        W21403  16.007   9.206   0.835  0.2770 -0.1232 -0.1222
 2550W        W21404  12.386   8.683  15.051 -0.1849  0.0098  0.0663
 2551W        W21405  14.240   0.829  12.855  0.0943  0.1421 -0.2883
 2552W        W21406  12.092  14.714  13.237 -0.0095  0.0549  0.1628
 2553W        W21407  13.973  16.694   1.449  0.2750 -0.2642 -0.1015
 2554W        W21408   7.616  15.496  15.896 -0.0402  0.3551 -0.0873
 2555W        W21409  10.736   0.946   1.661  0.1289 -0.0125 -0.1296
 2556W        W21410   1.557   7.565  17.082 -0.1281  0.3050 -0.2417
 2557W        W21411   1.764   6.459  15.039  0.1255 -0.0411 -0.2144
 2558W        W21412   5.130  12.678  14.115 -0.1006  0.1760  0.0163
 2559W        W21413  15.820  14.188  13.991 -0.0797  0.1367 -0.0159
 2560W        W21414   3.605  15.009  17.292  0.2883  0.1469 -0.1455
 2561W        W21415   2.367   8.037  14.997  0.2088 -0.0285 -0.4499
 2562W        W21416   9.453  13.031   2.972  0.1913 -0.0743 -0.0393
 2563W        W21417   7.431  12.435   4.181  0.0326  0.0463 -0.1782
 2564W        W21418   9.691  11.029   1.571 -0.1127 -0.3454  0.0066
 2565W        W21419  14.351   8.163  12.465  0.2636 -0.0176  0.0119
 2566W        W21420   1.196   3.381  14.223 -0.1122  0.0571  0.0856
 2567W        W21421  17.185  10.227  17.077  0.0748 -0.2450 -0.2154
 2568W        W21422  12.162  11.738  13.091 -0.0326  0.0436 -0.2981
 2569W        W21423  13.539  14.352   0.271 -0.1905  0.0363  0.0248
 2570W        W21424   9.627  10.152  16.986 -0.0599 -0.1769 -0.0358
 2571W        W21425   1.809  16.254  15.490  0.0633  0.1470  0.0409
 2572W        W21426   6.916  10.271  15.981  0.1456 -0.4965 -0.3236
 2573W        W21427   8.162  11.722   2.140 -0.1527  0.1762  0.0895
 2574W        W21428  11.525  11.231   4.278  0.2053 -0.0630  0.1188
 2575W        W21429   7.416   4.089  15.968  0.1034  0.1320 -0.2958
 2576W        W21430  15.422  15.427  14.211  0.2895 -0.1165 -0.2791
 2577W        W21431  10.126   1.491  14.155  0.0317 -0.2976  0.1558
 2578W        W21432   0.978  12.907  17.225  0.0087 -0.0094  0.0508
 2579W        W21433   0.822   5.014  13.806  0.1147  0.2282  0.2591
 2580W        W21434   5.313   9.409  16.280 -0.2678  0.0758 -0.2089
 2581W        W21435   3.268  12.688   0.850  0.0802  0.0106 -0.1271
 2582W        W21436  11.697   3.991   3.859  0.1822  0.3113  0.0107
 2583W        W21437   8.155   6.216   3.910 -0.2162 -0.1106  0.0526
 2584W        W21438  11.561  14.965  13.016 -0.1490 -0.3115 -0.0319
 2585W        W21439   5.263   9.981  13.729  0.1106 -0.2725 -0.2687
 2586W        W21440   9.286   8.613  14.994 -0.2341  0.2578  0.1632
 2587W        W21441   4.024   4.112  14.646  0.3108  0.1360  0.0440
 2588W        W21442  13.573  10.569   4.763 -0.0615 -0.0183 -0.1775
 2589W        W21443   4.767  16.332  15.725 -0.0869 -0.2369 -0.2860
 2590W        W21444   4.381  10.300   0.784  0.0460  0.1245  0.2193
 2591W        W21445   5.009   2.216   0.751 -0.0083 -0.0409  0.0532
 2592W        W21446   1.873   9.120  16.815 -0.2348 -0.0103 -0.0217
 2593W        W21447  16.196   3.752  13.866 -0.0089  0.3127  0.1524
 2594W        W21448   3.807  12.390   0.105  0.1235 -0.0108 -0.1415
 2595W        W21449  10.978  13.232  13.096 -0.1755  0.0301  0.0813
 2596W        W21450  14.308   0.455   4.041  0.3015  0.3867 -0.2394
 2597W        W21451  12.388  16.118   4.730 -0.0624 -0.1649 -0.0344
 2598W        W21452   3.107  11.822   0.422 -0.2005 -0.0969 -0.0499
 2599W        W21453   4.283  15.871  14.927 -0.1106 -0.0493 -0.0196
 2600W        W21454   8.129   0.996   1.752  0.0101 -0.2540 -0.0971
 2601W        W21455  16.463  12.511  14.469 -0.2360 -0.2218  0.1863
 2602W        W21456  17.172   6.100   3.239 -0.3186 -0.1100 -0.1760
 2603W        W21457   0.316   3.264   2.343  0.0457 -0.0739  0.0984
 2604W        W21458   3.529   2.490   3.286  0.0645  0.0965 -0.0778
 2605W        W21459   2.167  12.331  13.460  0.3497 -0.3747 -0.1185
 2606W        W21460   8.484   5.726  16.022  0.2113 -0.0071  0.0992
 2607W        W21461  15.399   9.964   4.427  0.3069 -0.0904 -0.1171
 2608W        W21462  15.390  11.782   2.851 -0.1262 -0.0970 -0.1425
 2609W        W21463  11.548  16.604   3.558  0.0590  0.2320  0.0754
 2610W        W21464  13.981   0.248  13.472  0.0492  0.2182 -0.0349
 2611W        W21465   0.361   8.908   2.365 -0.1169 -0.2263 -0.1295
 2612W        W21466   5.393  10.624  12.728 -0.1839 -0.0653  0.0530
 2613W        W21467   0.145   7.811  12.603 -0.0164 -0.1674 -0.0530
 2614W        W21468  13.239   4.563  14.103 -0.2774  0.1173  0.3878
 2615W        W21469   6.026  17.161   0.435 -0.0198 -0.1719 -0.0492
 2616W        W21470   1.669  10.984   4.987 -0.1046  0.0733 -0.1386
 2617W        W21471   7.301   4.616   4.413 -0.1273 -0.1133 -0.1696
 2618W        W21472  14.273   5.027   2.171  0.0275 -0.0151 -0.2644
 2619W        W21473   8.387  16.113  15.948 -0.0311  0.1627  0.0046
 2620W        W21474   9.458   4.994  13.481  0.2316  0.0308  0.1091
 2621W        W21475   0.787  11.512  16.705  0.0588 -0.3523  0.1945
 2622W        W21476  14.988   4.950   2.049 -0.0699 -0.0364 -0.3226
 2623W        W21477  15.294   0.640   2.003  0.2853 -0.0162 -0.3284
 2624W        W21478   6.431  11.823  17.361  0.2391  0.1096  0.0775
 2625W        W21479   5.056   1.875   4.230  0.1173 -0.2520 -0.1758
 2626W        W21480   5.679  12.051   1.473 -0.0614 -0.0645  0.2307
 2627W        W21481  10.615   2.577   4.790 -0.1067 -0.0999 -0.2086
 2628W        W21482  11.272  11.193  12.728  0.0306 -0.2095 -0.2574
 2629W        W21483   3.211   6.182   1.429  0.0092  0.2203  0.1910
 2630W        W21484  15.343   7.978   1.156 -0.0237 -0.1843  0.1009
 2631W        W21485   0.440   4.177  17.249 -0.0086  0.4149  0.1225
 2632W        W21486   2.816   5.264   5.312 -0.2297  0.0718 -0.0655
 2633W        W21487   9.934  16.120  16.712 -0.2392  0.0088  0.1640
 2634W        W21488  16.979  11.383  17.436 -0.0960  0.0300 -0.0644
 2635W        W21489   4.389  16.036  13.539 -0.1765  0.2324  0.0429
 2636W        W21490   5.057  14.326  14.384  0.0109 -0.0791 -0.1045
 2637W        W21491   7.541  14.448   3.314 -0.2355 -0.0461 -0.1128
 2638W        W21492   8.197   3.200   1.573  0.1478  0.0848 -0.1786
 2639W        W21493   8.962   7.735   2.442 -0.0067 -0.3203 -0.1921
 2640W        W21494   8.523  16.650  14.893  0.1794 -0.1575 -0.1053
 2641W        W21495  12.408   6.267   1.932  0.2897 -0.0469 -0.2587
 2642W        W21496   7.911   7.692  11.958 -0.0080  0.0172 -0.0904
 2643W        W21497   6.659  12.379   0.646 -0.1523  0.1251 -0.1756
 2644W        W21498   7.918   0.752  12.855 -0.1764 -0.1791 -0.2562
 2645W        W21499   6.892  12.279   2.482  0.2356 -0.0018 -0.1680
 2646W        W21500  13.067   0.970  15.464  0.2010  0.0859 -0.2007
 2647W        W21501   9.683  15.404   2.966 -0.2430 -0.1170  0.1604
 2648W        W21502  14.625   8.996  13.966  0.0933 -0.0512 -0.0552
 2649W        W21503   5.669   7.538   1.535  0.0623  0.0846 -0.0481
 2650W        W21504  10.432   8.208   4.715  0.2239 -0.0988  0.0428
 2651W        W21505   8.059  13.101   3.797 -0.1435  0.5812 -0.0036
 2652W        W21506   8.757   1.989   2.806 -0.1673 -0.0527  0.2609
 2653W        W21507   8.083   0.921   2.545  0.0453  0.0594 -0.0935
 2654W        W21508   3.308   3.603  14.250 -0.1812 -0.1130 -0.0560
 2655W        W21509   2.304   6.186  13.595  0.0820 -0.1221 -0.1233
 2656W        W21510   9.071   5.731  17.103 -0.2714 -0.1433 -0.1780
 2657W        W21511  12.801   4.598  12.263  0.0256  0.2606  0.3333
 2658W        W21512  14.879   2.362   3.407  0.1491 -0.4235  0.3038
 2659W        W21513  12.415   2.203   0.469  0.0769 -0.2284 -0.0923
 2660W        W21514   9.736   0.354  12.770 -0.1030  0.1785 -0.3401
 2661W        W21515   1.352   6.033  13.604  0.2233 -0.3431 -0.1169
 2662W        W21516   6.193   2.655   2.145 -0.2958 -0.0539 -0.1445
 2663W        W21517  17.229  17.032   1.857  0.0234  0.1414 -0.0608
 2664W        W21518  14.617   2.464   4.678 -0.2469  0.1194  0.3117
 2665W        W21519  10.768  15.057   3.956 -0.2238 -0.0733 -0.2117
 2666W        W21520   8.522  10.114   1.964 -0.1510 -0.1417 -0.1732
 2667W        W21521  14.407  14.233  17.398  0.1015  0.0238 -0.1892
 2668W        W21522   2.742   1.542   0.926 -0.2329  0.0591 -0.1742
 2669W        W21523   6.692   0.564   3.479 -0.1548  0.1495 -0.2442
 2670W        W21524  13.750  10.841   4.380  0.2246  0.1815  0.2512
 2671W        W21525  11.223   8.938   5.348 -0.0729  0.1408  0.2431
 2672W        W21526  13.954  14.125  12.434 -0.0049 -0.1633 -0.1407
 2673W        W21527  10.528   1.911   3.402 -0.1202  0.1891  0.0187
 2674W        W21528   9.418  10.496  14.841  0.2268 -0.2532 -0.1018
 2675W        W21529   8.606   9.916   2.412  0.0395  0.1872 -0.1259
 2676W        W21530   8.987  15.826  12.866 -0.1247 -0.0342  0.3489
 2677W        W21531   6.347  16.364  15.752 -0.1307 -0.1195 -0.2648
 2678W        W21532   2.951  10.105   1.203  0.0628 -0.0703 -0.2173
 2679W        W21533  16.344   9.816  16.441 -0.0592  0.0218  0.0731
 2680W        W21534   0.364   2.932   0.530 -0.2904  0.0020 -0.0167
 2681W        W21535  16.044  13.798  14.694  0.1081 -0.1749 -0.2071
 2682W        W21536  11.352   2.568   2.416 -0.0281  0.2348  0.2238
 2683W        W21537  16.329  10.390  12.900 -0.2073  0.0929  0.2389
 2684W        W21538  11.944   3.179   0.390  0.1352 -0.2235  0.0957
 2685W        W21539  10.893   9.743   1.414  0.1316 -0.0976  0.0577
 2686W        W21540  14.380   6.329   5.144 -0.2688 -0.1574  0.0109
 2687W        W21541  10.004   4.356   0.471  0.0174 -0.0323 -0.1403
 2688W        W21542   0.882  15.054  14.332  0.0442  0.1392 -0.0027
 2689W        W21543  11.813   9.076  17.172  0.0978 -0.1166  0.0233
 2690W        W21544  12.882  14.737  16.477 -0.3724 -0.2766 -0.2118
 2691W        W21545   3.914  15.564  14.922 -0.2750 -0.1334  0.0199
 2692W        W21546  11.977  13.389   5.273  0.0015  0.0300  0.0944
 2693W        W21547   9.061   9.787  13.985  0.0817  0.1538  0.2802
 2694W        W21548   0.934   8.404   5.197  0.1322  0.2464  0.2069
 2695W        W21549   1.733   0.571   3.544  0.1413  0.2168 -0.2044
 2696W        W21550  12.643   8.409  15.780 -0.0671 -0.1540 -0.2395
 2697W        W21551   8.354   4.181  15.348 -0.2004 -0.1106 -0.4211
 2698W        W21552  14.246   6.690  12.491 -0.0490 -0.0590 -0.1872
 2699W        W21553   2.806   3.353  15.031  0.1550 -0.0756 -0.0089
 2700W        W21554   7.945  10.428  17.174  0.2650 -0.1763  0.0333
 2701W        W21555  10.671   8.103  15.586  0.0353 -0.1652 -0.1554
 2702W        W21556  14.952   4.722   4.327 -0.0455  0.3612  0.1620
 2703W        W21557  12.831  15.091  13.226 -0.0444  0.0491  0.0098
 2704W        W21558   8.908  14.444   3.535 -0.0159 -0.0516 -0.0334
 2705W        W21559   1.221  15.106  17.441 -0.0973  0.0163  0.1088
 2706W        W21560   0.298  13.251   1.269  0.1378 -0.0354 -0.0771
 2707W        W21561  17.101  14.433   0.907  0.1753  0.0769 -0.1298
 2708W        W21562   2.843  16.395  16.295 -0.1177  0.1473  0.0846
 2709W        W21563  12.478  10.580   5.580  0.1549  0.0678 -0.1734
 2710W        W21564   4.962  16.496   2.996  0.0123  0.2320 -0.1584
 2711W        W21565  10.495   9.775  12.924  0.1370  0.1913  0.1933
 2712W        W21566  10.398   6.819  14.890  0.0258  0.1601  0.0564
 2713W        W21567   2.668  15.091   0.517  0.2457 -0.0119 -0.1399
 2714W        W21568  16.338  10.942   5.037  0.1478  0.0542  0.2311
 2715W        W21569   2.779   8.194  14.712 -0.0291 -0.0608  0.0744
 2716W        W21570   2.362   6.768  14.455 -0.0898  0.2468  0.0045
 2717W        W21571   8.513  16.978   2.998 -0.1699 -0.0880 -0.1911
 2718W        W21572   7.861  12.621   3.111  0.0347  0.0609 -0.1470
 2719W        W21573  12.468   6.755   5.139  0.2147 -0.1981 -0.3751
 2720W        W21574  12.943  15.459   0.604 -0.2364 -0.0038  0.1925
 2721W        W21575   9.842  12.710   2.647  0.1764 -0.2584  0.2113
 2722W        W21576   0.424  15.254   3.541  0.0869  0.0524 -0.0297
 2723W        W21577   2.854  10.910  17.219 -0.0603  0.0600 -0.0980
 2724W        W21578  13.820   9.952  13.895 -0.0679  0.0682 -0.0074
 2725W        W21579   7.436   2.610  16.461  0.0691 -0.2482 -0.0137
 2726W        W21580   9.637   0.260  14.612  0.0071 -0.0873 -0.0948
 2727W        W21581  13.228   8.565   5.231 -0.1827  0.1214 -0.0890
 2728W        W21582   0.757   4.379   0.055  0.0599  0.1089 -0.1993
 2729W        W21583   5.037   6.483   3.620 -0.0259 -0.1578  0.1209
 2730W        W21584  14.583   4.552  11.167  0.1582  0.2602 -0.0998
 2731W        W21585   9.442   0.300  14.094  0.2212 -0.0020 -0.1779
 2732W        W21586  11.368   0.873   5.242 -0.0881  0.1111 -0.1436
 2733W        W21587   2.456  14.926  12.784  0.4177 -0.1446 -0.3460
 2734W        W21588   8.108  10.223   1.041 -0.1446 -0.0578 -0.0761
 2735W        W21589  10.249   6.192   1.106 -0.2200  0.2282 -0.0695
 2736W        W21590   2.013   8.462   5.388  0.1023 -0.1796 -0.0356
 2737W        W21591  11.592   1.430  15.659  0.0382  0.0531 -0.0648
 2738W        W21592   2.746   4.191  16.136 -0.4174 -0.0680  0.0238
 2739W        W21593   3.976   7.758  16.603 -0.2441  0.2768 -0.0334
 2740W        W21594  14.300  14.512  12.231  0.0247 -0.0446 -0.0025
 2741W        W21595  16.604   5.129   3.519  0.0995  0.1903  0.1872
 2742W        W21596   2.755  13.140   0.887 -0.0133 -0.4906  0.1459
 2743W        W21597  12.809   5.619  14.922 -0.0346 -0.2697  0.3059
 2744W        W21598  14.751   0.912  13.783  0.1891 -0.0828 -0.0204
 2745W        W21599   0.242  12.172   4.049 -0.0784  0.0760  0.0303
 2746W        W21600   8.218  16.576  13.766 -0.1189 -0.1021  0.0716
 2747W        W21601   1.601  11.313   0.502  0.0769  0.0680 -0.0464
 2748W        W21602  11.842   5.695   3.444  0.0614 -0.1342  0.2133
 2749W        W21603  17.042  10.454   2.145 -0.2971 -0.1536 -0.3157
 2750W        W21604  14.986   2.967   3.692  0.0974  0.0634  0.0608
 2751W        W21605  17.025   3.038   3.574  0.2101 -0.0547 -0.2580
 2752W        W21606   6.564  12.538  14.689 -0.1574  0.0679 -0.0808
 2753W        W21607   4.446  14.987  14.755  0.0752  0.4894 -0.0965
 2754W        W21608  11.535   0.694   2.940  0.0792 -0.0950  0.1538
 2755W        W21609   2.297  14.464  15.049  0.1036  0.0437 -0.0757
 2756W        W21610   2.581   8.494   3.211  0.2621 -0.0295  0.0818
 2757W        W21611   1.958  14.996  16.737 -0.0756  0.1399 -0.0702
 2758W        W21612  15.473  17.074   4.388 -0.0792  0.3832  0.1065
 2759W        W21613   7.457   5.680  14.820  0.1048  0.3935 -0.2991
 2760W        W21614   8.570   6.155   1.845 -0.3213  0.4139  0.2730
 2761W        W21615   4.154  12.744   4.541  0.3960  0.1755  0.0864
 2762W        W21616  12.957   7.202   1.085 -0.1433 -0.2339  0.1723
 2763W        W21617  12.548   4.053   2.516 -0.1726  0.1733  0.2014
 2764W        W21618  17.249   4.987   1.553  0.0262  0.0459 -0.2089
 2765W        W21619   0.576   7.133   4.619  0.2105 -0.1026 -0.0016
 2766W        W21620   2.835   5.711  15.866  0.0272 -0.2435 -0.1121
 2767W        W21621   5.553  14.629  13.490 -0.1947  0.0227 -0.1929
 2768W        W21622  10.842  11.348  15.601 -0.2893 -0.2733  0.1299
 2769W        W21623   0.864   2.449   4.995 -0.2992 -0.1199  0.1326
 2770W        W21624  16.110   0.727  15.323  0.1912  0.0553  0.3459
 2771W        W21625   2.259   6.356  17.348  0.2239 -0.0656  0.1958
 2772W        W21626  13.154   9.719   4.712  0.5230 -0.3437  0.0089
 2773W        W21627   8.151   4.072   3.268 -0.0068 -0.1675 -0.1502
 2774W        W21628  14.393   3.240  16.572  0.2045  0.0070  0.1876
 2775W        W21629   9.704   3.651   2.640 -0.1711 -0.2153 -0.0899
 2776W        W21630  16.915  11.507  13.753 -0.2535 -0.1758  0.0079
 2777W        W21631   4.141  17.313  17.158  0.0309  0.2270  0.0792
 2778W        W21632   9.676   4.558   5.252  0.1769 -0.2909  0.1402
 2779W        W21633  10.520  10.079   5.132 -0.0817  0.2246  0.0601
 2780W        W21634  11.054   8.236  17.114  0.5068  0.0571 -0.0660
 2781W        W21635  14.380   4.362  15.205  0.1021  0.0787  0.0598
 2782W        W21636   0.813   1.513   2.294 -0.3210 -0.1080 -0.0725
 2783W        W21637   2.521   3.323   3.426  0.0813 -0.0413 -0.1320
 2784W        W21638   9.716  11.124  16.914 -0.1170  0.1892  0.1617
 2785W        W21639  16.728  16.851   2.181  0.1116  0.1673 -0.0229
 2786W        W21640  13.850   4.396   3.750 -0.1950 -0.2483 -0.0322
 2787W        W21641   5.941  16.586  15.551  0.1739 -0.2711 -0.3028
 2788W        W21642   1.420  14.656  15.576  0.2776 -0.2717  0.0791
 2789W        W21643   9.487   3.360  16.611 -0.0520 -0.0133  0.0862
 2790W        W21644   0.842   2.273  14.746 -0.1150  0.1233 -0.1050
 2791W        W21645   9.293   9.724   3.048 -0.1495  0.1339 -0.2041
 2792W        W21646  13.671   6.158   4.281 -0.0105  0.1315  0.1450
 2793W        W21647   7.484   9.649   4.860  0.0052 -0.0414  0.2802
 2794W        W21648   4.028  11.258  12.675 -0.1166 -0.0880 -0.1629
 2795W        W21649   8.597   8.846   4.444  0.1460  0.0690  0.1548
 2796W        W21650   6.313   0.394  15.092 -0.0179 -0.0194 -0.0948
 2797W        W21651  12.724  11.655   1.539 -0.0519 -0.3487 -0.3883
 2798W        W21652   1.074   6.438  13.239  0.1273  0.0086 -0.0982
 2799W        W21653   1.555   5.003   5.257 -0.2844 -0.0971  0.1709
 2800W        W21654   1.276  15.541   3.336  0.0824  0.1319  0.2518
 2801W        W21655  14.488   7.422   1.827 -0.0645  0.3267 -0.3091
 2802W        W21656  15.752   3.589  12.653  0.2534 -0.0970  0.2939
 2803W        W21657   1.803  17.286  12.423 -0.1061  0.0665 -0.3366
 2804W        W21658   1.966   3.667   3.063 -0.0666 -0.2045 -0.0511
 2805W        W21659  12.608   0.877   1.171 -0.0609 -0.1456  0.1236
 2806W        W21660   9.126  14.529  16.595  0.0541  0.2440  0.1418
 2807W        W21661  16.569   2.639   2.066  0.0228  0.0397  0.0008
 2808W        W21662  14.730  16.717  14.517  0.1962  0.1713  0.3753
 2809W        W21663  10.797   4.280   3.142  0.4211 -0.1415 -0.2324
 2810W        W21664   1.963  13.476   0.550 -0.0177 -0.0295 -0.2194
 2811W        W21665  17.141   6.993   3.314 -0.1062 -0.0415  0.0695
 2812W        W21666   0.442   3.036  15.401  0.0472 -0.1880 -0.0127
 2813W        W21667   8.678  10.902   1.290  0.0509  0.0848 -0.2348
 2814W        W21668   0.470   9.274  16.301  0.0585  0.0244  0.2947
 2815W        W21669  11.935   7.878   5.179  0.0378 -0.1754 -0.1511
 2816W        W21670  10.620   1.039   3.105  0.1778 -0.1165  0.2402
 2817W        W21671  13.234  10.776   4.462 -0.4015 -0.0046 -0.2083
 2818W        W21672   6.993  15.874  15.158 -0.1357  0.0816  0.1574
 2819W        W21673  12.917  10.169   3.877  0.3873 -0.0186  0.1560
 2820W        W21674  16.521  11.663   0.516 -0.1833 -0.0344  0.1587
 2821W        W21675  16.494   5.336  13.404 -0.1812 -0.2446  0.0966
 2822W        W21676   7.105   8.820   2.000 -0.2345  0.2671  0.0871
 2823W        W21677  14.061  14.989  13.443 -0.1105 -0.0870 -0.1746
 2824W        W21678   8.547   7.991   2.205 -0.1140  0.1030  0.3417
 2825W        W21679   1.067  15.100  14.805  0.1520 -0.0233 -0.1161
 2826W        W21680  16.829   2.523   1.588 -0.4031 -0.1176 -0.0414
 2827W        W21681   7.878  17.206  15.362 -0.0423  0.1184  0.1762
 2828W        W21682  14.907   6.416  13.265  0.0442  0.1202 -0.4247
 2829W        W21683   4.469  16.346  14.900  0.0091  0.2349  0.3115
 2830W        W21684   6.589  12.459   2.821  0.0065 -0.1963 -0.0546
 2831W        W21685   2.141  11.114   2.618 -0.1833  0.2436 -0.0303
 2832W        W21686   7.294   4.663   3.002 -0.1875  0.1409  0.3242
 2833W        W21687   2.457  13.892   4.567 -0.1156 -0.1245 -0.1389
 2834W        W21688   9.847  15.137  16.127 -0.4605  0.3093  0.1238
 2835W        W21689  15.458   8.667   1.111  0.0003  0.1804  0.1878
 2836W        W21690   7.957   4.470   2.345 -0.1401 -0.3593  0.3951
 2837W        W21691  12.692   8.925  14.568  0.2064  0.2598 -0.0019
 2838W        W21692  15.468   3.269  12.386 -0.2412 -0.0667 -0.0774
 2839W        W21693   0.007   8.104   2.353  0.1103 -0.0850 -0.1257
 2840W        W21694   5.006  13.023   3.836 -0.4629 -0.1854 -0.3353
 2841W        W21695  15.741  14.648  14.164  0.1455 -0.0485  0.0016
 2842W        W21696   5.853  14.869   4.824 -0.1953 -0.1073 -0.0777
 2843W        W21697  11.275  17.093  11.924  0.2061  0.2104 -0.2108
 2844W        W21698  11.554   9.961  13.799 -0.0437  0.0913 -0.1553
 2845W        W21699  16.873   9.637   3.301  0.1951 -0.1358 -0.0420
 2846W        W21700   0.858   9.396   4.878  0.1452 -0.0305 -0.1188
 2847W        W21701  14.316   2.783   4.497  0.0529  0.1835  0.0683
 2848W        W21702  13.488  13.708   4.445  0.2815 -0.0267  0.0874
 2849W        W21703  13.169   1.939  16.504  0.0895  0.0512 -0.0951
 2850W        W21704   6.014   4.051   1.952 -0.1826 -0.0334 -0.1978
 2851W        W21705   1.052  13.511  16.865  0.1840  0.1338  0.1092
 2852W        W21706   7.955   3.916  12.763 -0.0272 -0.1861 -0.1881
 2853W        W21707   0.985   5.630  15.768 -0.0720 -0.0956 -0.1925
 2854W        W21708  14.582   0.861  12.476 -0.0525 -0.1861  0.0923
 2855W        W21709  11.247  12.883  16.830  0.3843 -0.2242 -0.0578
 2856W        W21710   4.822   7.358  12.845  0.2132 -0.1319  0.0028
 2857W        W21711   9.811   8.057   0.566 -0.1762 -0.0455  0.1020
 2858W        W21712  16.818   1.410  12.726  0.2634  0.1115 -0.0070
 2859W        W21713   9.982   6.529  14.084  0.0626  0.3291 -0.1223
 2860W        W21714   1.684  10.527   0.112  0.3391 -0.0502 -0.3060
 2861W        W21715  16.822   9.865   0.137  0.0423  0.0284 -0.1507
 2862W        W21716   6.435   7.848   2.643 -0.3817  0.1358 -0.3766
 2863W        W21717   9.653   2.420   2.453  0.1015 -0.1286 -0.0027
 2864W        W21718   6.827   7.284  16.130  0.1073  0.3338  0.1699
 2865W        W21719   1.208  17.214  15.731  0.0521  0.0233 -0.2774
 2866W        W21720   1.740  14.524  13.288 -0.0244  0.0340 -0.0697
 2867W        W21721   5.088  16.876   4.553 -0.3507  0.0062  0.0332
 2868W        W21722  14.661   2.488  13.948 -0.0043  0.1064  0.0971
 2869W        W21723   0.847   8.667  15.568 -0.0848  0.0295  0.2314
 2870W        W21724  17.024   2.745   4.600 -0.3470 -0.2843  0.0910
 2871W        W21725   6.513  14.197  15.275  0.0449 -0.1634  0.3473
 2872W        W21726   1.604   7.466   4.387  0.3763 -0.1831 -0.0768
 2873W        W21727   1.832  13.637  14.966 -0.1259  0.0929 -0.2875
 2874W        W21728   5.067   1.894   0.193  0.1085  0.4005 -0.0801
 2875W        W21729   4.551  10.007  16.445  0.2565  0.2123  0.1812
 2876W        W21730  13.076  17.037   2.323 -0.1701  0.0756 -0.1146
 2877W        W21731  11.457   8.496   3.411  0.0505  0.0646 -0.1328
 2878W        W21732  13.354  15.776   0.600  0.3784 -0.0267 -0.2498
 2879W        W21733  15.754   1.616   2.684 -0.1703  0.0981  0.3484
 2880W        W21734  13.752  12.747   3.806  0.0536  0.1326 -0.0930
 2881W        W21735   7.811   1.359   0.907  0.0344 -0.1834 -0.0149
 2882W        W21736   8.171   4.336   0.284 -0.0432  0.0678 -0.4386
 2883W        W21737   3.826  12.992  17.033 -0.1200 -0.1059  0.0105
 2884W        W21738  15.519   8.602   2.649  0.1589  0.0089 -0.1919
 2885W        W21739  11.448  12.952   3.540  0.1334 -0.0038  0.0189
 2886W        W21740   1.314   1.266  12.999  0.0367 -0.2821  0.0450
 2887W        W21741   5.314   7.521  14.879  0.1590 -0.3685  0.0662
 2888W        W21742  13.841   9.987  14.742  0.0684 -0.2109 -0.2359
 2889W        W21743  11.153   2.644   3.355 -0.0428  0.2118 -0.0166
 2890W        W21744  15.727  10.590   2.356 -0.1452 -0.1310 -0.3129
 2891W        W21745  13.841  14.405   1.999  0.1138 -0.0417 -0.0503
 2892W        W21746   4.552  13.404  14.347  0.1662 -0.0172 -0.2115
 2893W        W21747   0.527   3.274  12.725  0.0381 -0.0349  0.0006
 2894W        W21748  11.519   5.178  13.841 -0.0014  0.1400 -0.2967
 2895W        W21749   1.772  15.063  15.444  0.0409  0.1611 -0.2860
 2896W        W21750  13.502   8.876  15.457 -0.0775  0.1086  0.1544
 2897W        W21751   0.823   1.090  13.268 -0.0470 -0.0501  0.2111
 2898W        W21752   2.620   2.562  13.891 -0.0504 -0.0907 -0.1487
 2899W        W21753  10.629   8.745   1.104 -0.0836 -0.3338  0.2265
 2900W        W21754  16.172   7.586   5.213  0.0143  0.0216 -0.1364
 2901W        W21755   0.619  11.516  17.201  0.0789  0.1184 -0.0753
 2902W        W21756  13.563   0.372   0.442 -0.0689 -0.2908 -0.3129
 2903W        W21757  12.762   9.510  12.781 -0.0379 -0.1066 -0.1592
 2904W        W21758  12.727   5.355   1.240 -0.0599  0.2463  0.4283
 2905W        W21759   8.959  10.902   5.028 -0.2783 -0.0654 -0.1677
 2906W        W21760  14.858   8.906   0.264 -0.0349  0.2057 -0.1208
 2907W        W21761  12.098   0.825  16.922 -0.0757  0.1841  0.0648
 2908W        W21762  12.556  16.854  16.331 -0.0371  0.0874 -0.3263
 2909W        W21763  13.958   6.772   2.283 -0.0825  0.2213  0.2316
 2910W        W21764  13.208   6.506   1.937  0.0407 -0.3985 -0.1948
 2911W        W21765   5.807   8.808   1.632  0.1244  0.3792  0.0003
 2912W        W21766  14.047  10.725  12.740 -0.1016  0.0300 -0.1375
 2913W        W21767  10.999  16.863  13.939  0.1510 -0.0750  0.0884
 2914W        W21768   3.679   4.870  16.298  0.3865  0.0552 -0.1561
 2915W        W21769  10.862   1.369   2.738 -0.1515  0.1418 -0.2347
 2916W        W21770  11.098  11.511  15.981 -0.0291 -0.0329  0.2787
 2917W        W21771   0.849   2.498   5.883 -0.2353 -0.0349 -0.0161
 2918W        W21772   9.132  16.338  16.417  0.1234  0.0430  0.0068
 2919W        W21773  10.561   3.876   5.218 -0.0433  0.0286 -0.3701
 2920W        W21774  14.470   6.351  17.406  0.0379 -0.0020 -0.1255
 2921W        W21775   2.599  16.774  14.697  0.1639  0.1293 -0.1576
 2922W        W21776  13.548  16.992   1.394  0.1093  0.1840 -0.2087
 2923W        W21777  12.009   6.048  14.786  0.0568  0.2040  0.0798
 2924W        W21778   0.390   7.061  16.040 -0.0023 -0.0026 -0.3914
 2925W        W21779   9.370  13.490   2.685 -0.1012  0.2483 -0.0257
 2926W        W21780   0.537  10.315  14.164  0.0786 -0.0653  0.2088
 2927W        W21781   4.045   3.036   4.548 -0.0251  0.0175  0.1937
 2928W        W21782  16.773  14.642   0.548  0.0480  0.1065 -0.1384
 2929W        W21783   7.572  15.922  13.094  0.1144  0.1083  0.1973
 2930W        W21784  14.240   6.676  14.455 -0.1864  0.1333  0.1027
 2931W        W21785  12.498   3.785   3.837 -0.2277  0.0448  0.1642
 2932W        W21786  12.535   2.559   1.796 -0.3193  0.0788  0.0689
 2933W        W21787  10.026  14.269   1.129 -0.3047  0.2581 -0.0626
 2934W        W21788   0.143  15.598   4.971 -0.3940  0.2243 -0.0569
 2935W        W21789  12.119  14.189  11.777 -0.0406 -0.0322 -0.0590
 2936W        W21790   0.485  14.240  16.254  0.1982  0.1639  0.2639
 2937W        W21791   4.051   8.948  16.220 -0.0052 -0.0316  0.1832
 2938W        W21792  10.466   1.921  11.925 -0.1034 -0.1370 -0.2526
 2939W        W21793   1.582  16.899   2.095 -0.0864  0.3309 -0.3024
 2940W        W21794   5.450   1.722  14.035  0.1611  0.3014  0.1092
 2941W        W21795  15.834  15.065  15.039 -0.0151  0.2864 -0.1997
 2942W        W21796  14.786  11.564  12.459 -0.1321  0.0803  0.0131
 2943W        W21797   1.485   7.765   0.888 -0.1548  0.2263 -0.0692
 2944W        W21798   7.427  14.076  14.779  0.2528  0.1098 -0.0569
 2945W        W21799   1.932  10.929   0.460  0.3439  0.2674  0.1007
 2946W        W21800   3.487  11.488   5.090  0.5358 -0.3633  0.1090
 2947W        W21801   1.150   1.821   1.380  0.0008 -0.2050 -0.3271
 2948W        W21802   6.478  12.858  13.599 -0.0717  0.1453  0.0578
 2949W        W21803  15.970  12.964   4.633 -0.0993  0.0806  0.1268
 2950W        W21804  14.073   4.823   1.100 -0.2771  0.2993 -0.2590
 2951W        W21805  11.552  10.002  13.230 -0.0838 -0.0607  0.0484
 2952W        W21806   4.790   5.225  15.987  0.0539  0.2502  0.2598
 2953W        W21807   1.156   8.296  13.864 -0.2161 -0.1136  0.0276
 2954W        W21808   5.132   3.332  13.368  0.0112  0.0257 -0.0487
 2955W        W21809   2.180   0.242  15.333 -0.1383  0.0228 -0.0174
 2956W        W21810   9.158   3.573   1.575  0.3155  0.1377 -0.0477
 2957W        W21811  15.960   4.438   1.557 -0.0440 -0.1113 -0.2001
 2958W        W21812  10.937  11.147  16.274 -0.2172 -0.0927 -0.1055
 2959W        W21813   9.597   2.096   1.730  0.2744 -0.0828  0.0199
 2960W        W21814   1.222   4.953  14.082 -0.2627 -0.0439  0.0864
 2961W        W21815  12.595   1.050   4.045 -0.0402 -0.0612 -0.1824
 2962W        W21816   0.773  10.196   1.047  0.0774 -0.1890  0.1689
 2963W        W21817   0.590  11.159   0.762  0.1006  0.0872  0.0983
 2964W        W21818  17.087  11.334  14.216  0.1875  0.1226  0.2915
 2965W        W21819   1.141   8.373   4.738  0.2439  0.2441  0.1325
 2966W        W21820   3.285   2.269   1.109  0.0502  0.1836  0.1922
 2967W        W21821  10.707   3.581  15.977 -0.1574  0.3369  0.1443
 2968W        W21822   8.851  16.658   4.888  0.2457  0.0323 -0.0048
 2969W        W21823   9.094   6.992  13.190  0.1705  0.2029  0.0086
 2970W        W21824  13.230   9.061   5.218 -0.1462 -0.0566  0.1729
 2971W        W21825   9.218  12.290   1.217 -0.0443 -0.0362  0.1203
 2972W        W21826   4.153   8.801  14.981  0.1440  0.0860  0.1957
 2973W        W21827   4.288   2.616  16.636 -0.0165  0.0859 -0.1933
 2974W        W21828   3.560   7.347  12.535 -0.1415  0.3275 -0.0360
 2975W        W21829   1.684   3.777   0.708 -0.0220  0.0837 -0.0804
 2976W        W21830  16.851   7.263  13.443  0.1229 -0.2566 -0.0376
 2977W        W21831   4.233  13.570   2.540  0.2351 -0.0660  0.0957
 2978W        W21832   2.458  10.881   3.982  0.1990  0.3268 -0.0143
 2979W        W21833   8.000  14.506  16.061 -0.1709  0.0819 -0.1454
 2980W        W21834  12.110  17.062  15.555  0.1641  0.2389  0.1822
 2981W        W21835   9.078   7.327   4.325  0.1182  0.2594 -0.1949
 2982W        W21836  17.209   0.976  14.973 -0.1659 -0.3077 -0.1782
 2983W        W21837  15.137   2.088  12.302  0.0344 -0.0156 -0.0941
 2984W        W21838   8.388  10.025  12.600 -0.2634  0.0420 -0.0468
 2985W        W21839   2.450  16.129   5.129 -0.0281 -0.0377 -0.0650
 2986W        W21840  11.562   5.231   4.739  0.1270  0.3015 -0.1719
 2987W        W21841   7.479   2.315   2.055 -0.4090  0.2040  0.0439
 2988W        W21842  11.699   8.248  13.956 -0.0152 -0.0337 -0.1902
 2989W        W21843  13.527   2.703   2.831 -0.2617  0.1527 -0.1941
 2990W        W21844   1.961   1.310   0.740  0.1395 -0.0085  0.1077
 2991W        W21845   4.660  17.221  14.077  0.0437 -0.2895 -0.1423
 2992W        W21846  15.084   8.288   1.483 -0.0766  0.2240 -0.1180
 2993W        W21847   3.237   9.602   0.417 -0.1182 -0.1542 -0.2997
 2994W        W21848  15.757  14.749  12.297  0.1751  0.2102 -0.3223
 2995W        W21849   6.264   0.506   4.412 -0.0333  0.2760 -0.0164
 2996W        W21850  16.299   8.019   3.826  0.2403 -0.0575 -0.1484
 2997W        W21851   5.814  11.188  15.879  0.0084  0.2512 -0.2417
 2998W        W21852   8.170   6.520  15.246 -0.1651 -0.1710  0.0314
 2999W        W21853   4.203   4.440   3.331 -0.0435  0.2679  0.2425
 3000W        W21854  12.078   8.343  15.539  0.0308  0.1185 -0.0450
 3001W        W21855  16.895   4.575  17.335  0.2040  0.5327 -0.0570
 3002W        W21856   1.260   3.081  12.169  0.2096  0.1510  0.1616
 3003W        W21857  11.451   4.022  16.102 -0.0193 -0.1013 -0.1720
 3004W        W21858   1.551   3.823   2.575 -0.4100  0.2101  0.0565
 3005W        W21859  12.268   4.988  14.236 -0.0519 -0.0224 -0.2431
 3006W        W21860   1.800   0.511   2.943 -0.2533  0.1493  0.0489
 3007W        W21861   7.013  12.143   3.413 -0.1162  0.1352  0.2207
 3008W        W21862  10.653  10.086  12.197  0.0625  0.0944 -0.0486
 3009W        W21863   4.287   0.372   2.877 -0.2977 -0.0918  0.1006
 3010W        W21864   9.153  15.207  13.626  0.0043 -0.0091 -0.0767
 3011W        W21865  16.755   3.578   1.695  0.1826  0.0999 -0.0834
 3012W        W21866   3.774  16.236  16.210  0.0290  0.0219  0.1908
 3013W        W21867   6.001   2.365   2.502  0.1351 -0.3271 -0.3240
 3014W        W21868   6.308  17.152  12.464  0.1638  0.0238  0.1024
 3015W        W21869  10.965   6.828  13.062  0.0242 -0.1386 -0.2207
 3016W        W21870   3.424   6.622  14.920 -0.0247 -0.0504  0.1700
 3017W        W21871   8.044   8.930  13.368 -0.1234 -0.0280  0.3645
 3018W        W21872   7.566   4.751  12.164 -0.0299 -0.0905 -0.1063
 3019W        W21873  10.432   6.623  14.292 -0.0414 -0.4970  0.0314
 3020W        W21874   7.222   0.610  11.291  0.0929 -0.1766 -0.1659
 3021W        W21875   8.262  14.709   4.673  0.1733  0.1890 -0.1761
 3022W        W21876   5.530   2.482  11.955 -0.2242 -0.0380  0.0749
 3023W        W21877   2.098  16.879   2.114 -0.0370 -0.1009  0.0941
 3024W        W21878   3.785   3.276  13.331  0.2194  0.1167  0.0607
 3025W        W21879   8.232  14.992   1.416  0.2086  0.1495 -0.2167
 3026W        W21880   5.348  14.533   2.126 -0.2250 -0.0037  0.3603
 3027W        W21881   8.949  15.291  15.859  0.0693 -0.2752 -0.1721
 3028W        W21882   2.843   0.403   2.904  0.0163 -0.2080  0.2263
 3029W        W21883  12.562  14.508   0.436 -0.1722 -0.1729  0.2214
 3030W        W21884   5.312   5.511   1.087  0.0111 -0.3530  0.1794
 3031W        W21885   7.379  12.727  15.669  0.1653  0.1261 -0.0263
 3032W        W21886  10.327   0.919   0.725  0.0750 -0.1412 -0.0525
 3033W        W21887  13.836   1.324   2.816  0.0741 -0.0749 -0.1240
 3034W        W21888   1.886  16.293   4.973 -0.3410 -0.0549  0.0111
 3035W        W21889  12.024  16.415   1.225  0.3039  0.0174  0.0262
 3036W        W21890  14.422   0.725   1.158  0.1341 -0.1269 -0.1346
 3037W        W21891  11.534   0.495   1.993 -0.1073 -0.1093  0.0146
 3038W        W21892  12.697  16.525  14.923 -0.2476 -0.0785 -0.0824
 3039W        W21893   6.460   7.022  15.876 -0.2277  0.1226 -0.3009
 3040W        W21894   5.468  17.293   0.660  0.0479 -0.1368 -0.0828
 3041W        W21895   4.933  11.526   3.338 -0.2448  0.0588 -0.2672
 3042W        W21896  15.584  16.407  16.207  0.4436  0.2298 -0.2926
 3043W        W21897  13.145  12.842   4.710 -0.1907  0.1525 -0.1492
 3044W        W21898  11.935   5.123  13.102  0.0272 -0.1223  0.2291
 3045W        W21899   7.177   0.046  12.768 -0.2433 -0.1534 -0.2598
 3046W        W21900  11.525  16.111   0.574  0.0433 -0.2367  0.1509
 3047W        W21901   3.702   6.666  16.369  0.0520  0.0435 -0.1464
 3048W        W21902   0.162  14.938  12.862 -0.1633 -0.2440 -0.0832
 3049W        W21903   6.921   4.951  14.688 -0.2832  0.2183  0.0595
 3050W        W21904  17.136  14.380  13.043 -0.1747 -0.0789 -0.1370
 3051W        W21905  12.144  14.888  15.676 -0.0946  0.0082 -0.2732
 3052W        W21906  15.972   7.323  16.583 -0.0840 -0.3329  0.1380
 3053W        W21907   1.049  15.653  15.371 -0.1263 -0.0230  0.1817
 3054W        W21908  16.691  14.468  13.233  0.1787 -0.0323  0.2708
 3055W        W21909  12.130  14.417   0.642  0.1172 -0.2655 -0.1035
 3056W        W21910  11.067   0.477   3.895  0.1760 -0.2933 -0.1532
 3057W        W21911   7.130   4.456   5.704 -0.0289  0.0211  0.0592
 3058W        W21912  16.023   6.942  13.880  0.2562  0.1242 -0.1216
 3059W        W21913   1.836   1.583  16.789 -0.1000 -0.0152 -0.1686
 3060W        W21914  11.487  11.713   5.023 -0.0103 -0.5285 -0.2947
 3061W        W21915  14.568   2.411  14.891  0.0059  0.2150  0.0322
 3062W        W21916   9.643  12.511   4.920 -0.1568  0.2402 -0.3855
 3063W        W21917  12.656  11.617  16.433 -0.2034 -0.0458  0.2283
 3064W        W21918   2.633  15.249   1.889  0.2155 -0.3249 -0.1201
 3065W        W21919   9.800  17.260   4.123 -0.1738  0.0107 -0.0569
 3066W        W21920  16.716  13.332  13.712  0.2121  0.0043  0.0832
 3067W        W21921  12.863  16.639   0.108  0.2784  0.0901 -0.3337
 3068W        W21922  16.350  13.337   4.191  0.0949  0.1337 -0.3136
 3069W        W21923   4.633   3.439  16.742  0.4518 -0.0729  0.0616
 3070W        W21924  13.724   9.678  15.551 -0.1108  0.0659  0.2452
 3071W        W21925  15.191   8.708  13.577  0.2474  0.0514 -0.1125
 3072W        W21926   5.886   1.948  14.853  0.3426  0.0616 -0.0210
 3073W        W21927  12.045  16.129   3.982 -0.2063 -0.1334 -0.0493
 3074W        W21928   2.675   9.980   3.265  0.0176 -0.0672 -0.0267
 3075W        W21929  15.788   0.541  14.991  0.0419  0.0267  0.4813
 3076W        W21930   8.065   6.182  13.511  0.1340  0.3091 -0.1534
 3077W        W21931  16.798   5.402   5.509  0.0199  0.0537 -0.1626
 3078W        W21932   5.743   6.268  16.794 -0.0310 -0.0991 -0.2656
 3079W        W21933   1.026  10.837  12.494  0.1159  0.0171  0.1473
 3080W        W21934  13.210   5.152  12.783 -0.2417  0.3975 -0.0825
 3081W        W21935   1.972  13.636   1.692 -0.0403  0.0124  0.1283
 3082W        W21936  15.270  13.535   2.094 -0.2239  0.0695  0.0939
 3083W        W21937   0.866   1.448  17.086  0.3200 -0.1776 -0.0891
 3084W        W21938   0.874   6.531   1.102  0.2130  0.3380  0.1263
 3085W        W21939  12.583   8.932   2.324 -0.0437  0.1505  0.1571
 3086W        W21940  10.903  11.437   5.739  0.3404 -0.0714  0.0489
 3087W        W21941   6.741  15.545  17.429  0.0715  0.1452 -0.0137
 3088W        W21942   9.628  11.870   3.052  0.1634  0.0319 -0.0247
 3089W        W21943   8.851   9.956   1.596 -0.0958 -0.1479  0.0491
 3090W        W21944   8.594  12.676  15.412  0.3092  0.1088  0.0374
 3091W        W21945  14.593  10.021  12.467 -0.2087 -0.0397 -0.0055
 3092W        W21946   7.618   5.697   5.412  0.3104  0.1524 -0.0325
 3093W        W21947   4.557   7.199  16.856  0.0377  0.1505  0.0763
 3094W        W21948  16.597   7.368  11.360 -0.1238  0.0279 -0.1894
 3095W        W21949   4.972  12.701  15.099  0.0248 -0.0925  0.0720
 3096W        W21950   4.505  11.482  15.534  0.0244  0.1237  0.4270
 3097W        W21951   9.472   7.307  13.284 -0.1019 -0.0169  0.0268
 3098W        W21952   1.869  12.587   2.060  0.2059 -0.1368  0.2980
 3099W        W21953  12.226   7.849   3.024 -0.0524  0.2269  0.1072
 3100W        W21954   7.399   5.184   5.118  0.2698 -0.0221 -0.1843
 3101W        W21955  16.853  15.433  14.732 -0.2499  0.2868 -0.1167
 3102W        W21956   7.539   1.568  12.658  0.0296 -0.1197 -0.1629
 3103W        W21957   5.166   3.272   0.283  0.3711  0.0417 -0.1250
 3104W        W21958   1.742   5.514  11.234 -0.0284 -0.0219  0.2758
 3105W        W21959  14.123  16.957  15.286  0.3066 -0.2225 -0.0455
 3106W        W21960   4.049  13.121  13.880  0.1458  0.1531 -0.0309
 3107W        W21961  14.892   3.423   3.992  0.0444  0.0907  0.0651
 3108W        W21962   3.145  10.929  16.003 -0.2354 -0.1160 -0.0699
 3109W        W21963   5.155   1.374  16.375  0.0274 -0.3061  0.0071
 3110W        W21964   5.973   2.315  13.715 -0.3766  0.0238 -0.0618
 3111W        W21965   6.894  15.686  15.634 -0.0419 -0.3363 -0.1913
 3112W        W21966   1.840   4.878  15.660 -0.1184  0.3092  0.1360
 3113W        W21967  11.016   7.629   3.721  0.0931  0.1788 -0.0727
 3114W        W21968  10.025   1.942   1.621 -0.1355 -0.1838  0.1335
 3115W        W21969   9.682   2.158   3.674 -0.3473 -0.1468  0.0687
 3116W        W21970   5.908   0.936   2.207 -0.2517 -0.0820  0.1124
 3117W        W21971  16.211  12.494   5.370 -0.0313 -0.1220  0.2071
 3118W        W21972   0.976   6.873   2.542  0.2737 -0.0169 -0.1121
 3119W        W21973  15.174   3.382  14.936  0.0819  0.2642  0.1929
 3120W        W21974   2.183   0.866  12.494  0.1565  0.1136 -0.0388
 3121W        W21975   2.442  17.248   3.386  0.1491 -0.1838  0.0742
 3122W        W21976   7.444   6.679  16.489 -0.1170 -0.0700 -0.0665
 3123W        W21977  14.239   5.527  11.735 -0.1850  0.0364 -0.0410
 3124W        W21978  17.331   9.418   4.694 -0.0495  0.0580 -0.0443
 3125W        W21979  11.516   4.396  14.588  0.1226  0.0587 -0.1069
 3126W        W21980  11.892  14.740   3.155 -0.1154  0.2340 -0.0017
 3127W        W21981  12.823  10.845   5.335 -0.1319  0.0663 -0.3976
 3128W        W21982  16.424   5.083  13.952  0.0648  0.2036  0.3213
 3129W        W21983   7.388   5.100  14.716  0.2282 -0.0191 -0.1169
 3130W        W21984  12.609   4.790  13.248  0.0163  0.2568 -0.3135
 3131W        W21985   5.889   1.659  13.795  0.2171  0.0017  0.2173
 3132W        W21986   5.167  13.984   2.097 -0.4201 -0.0694  0.0797
 3133W        W21987  14.847   5.541  14.185  0.2632 -0.1585 -0.1621
 3134W        W21988   7.275   1.415   2.114 -0.4095 -0.1210  0.2086
 3135W        W21989  13.008  14.159  16.762 -0.2469 -0.2229  0.0339
 3136W        W21990  13.171   7.376  16.392 -0.0549 -0.0235 -0.1633
 3137W        W21991  13.506  14.231  14.614 -0.2208  0.1575 -0.3693
 3138W        W21992  12.088   8.214  16.090 -0.5473 -0.0688  0.0250
 3139W        W21993  10.347  11.447  12.806 -0.1114 -0.1668 -0.3489
 3140W        W21994   9.753   9.356  15.833  0.0189 -0.0647  0.0119
 3141W        W21995   7.793  12.401  15.695 -0.2689 -0.0748  0.0848
 3142W        W21996  10.783  11.098   0.910 -0.0810 -0.0252 -0.0716
 3143W        W21997   4.496  11.753  15.096 -0.1621  0.1961 -0.2335
 3144W        W21998   9.065   0.908   1.973 -0.1433 -0.0685 -0.1272
 3145W        W21999  12.835  10.928  14.545 -0.2011 -0.0508 -0.0475
 3146W        W22000   5.929   4.094   3.774 -0.2238  0.3267  0.0125
 3147W        W22001  14.783  16.776   2.158 -0.1691  0.0658 -0.1975
 3148W        W22002  14.580  12.602  16.557 -0.0048 -0.3048 -0.0828
 3149W        W22003   1.110   1.591  12.579 -0.1457  0.1511 -0.1631
 3150W        W22004  10.572   9.655   2.090  0.1304  0.2134  0.1263
 3151W        W22005   6.385   6.023  17.396 -0.1051 -0.3315  0.1817
 3152W        W22006  13.642   9.009   0.244 -0.3568  0.1337  0.2346
 3153W        W22007   2.848   4.781  16.034 -0.0107 -0.0075 -0.0848
 3154W        W22008   8.627  11.708  13.237  0.1569 -0.1607 -0.3825
 3155W        W22009   1.955   3.456  15.267 -0.3323  0.0063 -0.0645
 3156W        W22010   5.435  16.610   2.765 -0.0422  0.0529 -0.0140
 3157W        W22011  16.605   6.925   3.188  0.4553 -0.0178  0.1173
 3158W        W22012  12.382  11.267   2.849 -0.1943  0.1795  0.1840
 3159W        W22013   2.802   6.267   2.441  0.0429 -0.1184  0.0985
 3160W        W22014   6.528   1.378   0.919 -0.1760  0.1508  0.2133
 3161W        W22015   9.850  12.649  13.554  0.2876  0.2735 -0.0342
 3162W        W22016   9.268   5.826  14.155 -0.0467  0.0447 -0.0921
 3163W        W22017  10.003  12.733  14.846  0.0292 -0.2716  0.1777
 3164W        W22018   3.414   0.312  12.359  0.2303  0.2110 -0.3465
 3165W        W22019   1.366  10.169  15.237  0.3796 -0.0841 -0.4268
 3166W        W22020  17.154   2.859   0.729  0.0897  0.4043 -0.2091
 3167W        W22021   3.011   6.475   1.058  0.1075  0.1211 -0.1349
 3168W        W22022   7.663   4.804   0.822 -0.0978  0.1082 -0.0702
 3169W        W22023   9.982  14.394  17.264  0.1832 -0.0693  0.1292
 3170W        W22024   0.719   1.959   3.598 -0.0369  0.2010  0.2331
 3171W        W22025   6.492   4.706  17.281  0.0954 -0.0791  0.2607
 3172W        W22026   5.948  14.961  16.977 -0.0525 -0.3552 -0.2046
 3173W        W22027   8.959   1.102  13.846  0.0655 -0.0279  0.1804
 3174W        W22028   2.632  15.681   4.826  0.3341 -0.0354 -0.2056
 3175W        W22029  10.846  12.964   4.949  0.1652  0.2782 -0.0473
 3176W        W22030   7.354   0.287   4.926 -0.0995 -0.1579 -0.2913
 3177W        W22031  13.091  13.829  12.384  0.0144  0.0785  0.0084
 3178W        W22032   3.858   5.352   0.903 -0.0717  0.0020 -0.3302
 3179W        W22033   1.639  10.689   4.034 -0.1081 -0.0938  0.1159
 3180W        W22034   6.967  16.260   1.472  0.1113 -0.2044 -0.1456
 3181W        W22035   4.780  13.753   3.610  0.0319  0.1570  0.1278
 3182W        W22036   9.038  15.424   1.167  0.6210  0.1610  0.0603
 3183W        W22037   2.116  10.721  12.567  0.4249 -0.3479  0.4130
 3184W        W22038   3.876  13.435   6.230  0.1923 -0.0944 -0.1669
 3185W        W22039   3.244  10.316   3.996  0.0367  0.2451  0.0963
 3186W        W22040  12.528  10.534   0.475  0.0468  0.2088  0.1892
 3187W        W22041  16.807  11.462   2.986  0.0594  0.0004  0.0817
 3188W        W22042  15.252   8.829   2.289 -0.1276  0.1678  0.0890
 3189W        W22043   0.164   9.379   4.239 -0.0512 -0.1148  0.1589
 3190W        W22044   2.759   1.638   2.324 -0.0365  0.2557 -0.3542
 3191W        W22045  13.749   2.511  12.315 -0.0777  0.2880  0.0255
 3192W        W22046   1.796   1.559   1.214 -0.0700  0.1991  0.0072
 3193W        W22047  14.790  14.279   3.772  0.1489 -0.4991  0.0752
 3194W        W22048  10.694   8.722   0.607 -0.0986  0.2460 -0.0392
 3195W        W22049  16.400  16.974  14.013  0.1987 -0.0198 -0.2589
 3196W        W22050  12.508  16.722  14.452  0.1989 -0.1651 -0.0401
 3197W        W22051  10.248  16.225  13.966  0.1045  0.0428  0.0388
 3198W        W22052  14.610   1.183   5.278 -0.1215 -0.1381  0.0196
 3199W        W22053   7.875   7.424  13.229 -0.2151  0.0106 -0.0994
 3200W        W22054   7.867   6.493   4.258  0.1778  0.2857 -0.1659
 3201W        W22055  14.096   0.533   2.185  0.1049 -0.0688  0.0870
 3202W        W22056   4.443   9.214   1.992  0.0370 -0.4126  0.3942
 3203W        W22057   5.290  13.339  11.917  0.1930  0.1309 -0.2371
 3204W        W22058   3.465  12.753   0.388  0.1805 -0.3090  0.0986
 3205W        W22059   4.041  13.962   3.699 -0.0772  0.0703  0.0104
 3206W        W22060   5.351  11.785  15.361  0.1216 -0.0957 -0.1022
 3207W        W22061   2.813  15.061   6.391 -0.3662  0.0141 -0.1317
 3208W        W22062   1.652  13.921  14.434  0.0999  0.1788 -0.0884
 3209W        W22063  14.083   3.181   1.186  0.0926 -0.0338 -0.2421
 3210W        W22064  17.076  16.515  15.256  0.1112 -0.0175  0.0399
 3211W        W22065   1.240  16.652  14.010  0.0587 -0.2908 -0.0913
 3212W        W22066   9.365   0.269  12.448 -0.0454  0.1355 -0.0420
 3213W        W22067  17.100   4.539  12.990 -0.0843  0.4020 -0.0618
 3214W        W22068  17.157   7.431   0.192 -0.0602  0.2040  0.3369
 3215W        W22069  10.134  16.219   2.436 -0.0452 -0.1630  0.2329
 3216W        W22070   6.868   1.158   4.856  0.2673 -0.0430  0.2054
 3217W        W22071   2.401  11.907  14.707  0.1880  0.0519  0.0957
 3218W        W22072   0.391   6.316   3.102  0.2782  0.2374  0.3555
 3219W        W22073  17.006  12.864   5.116 -0.3017  0.1374 -0.1243
 3220W        W22074  13.828  12.459   1.895 -0.0671  0.0822 -0.2672
 3221W        W22075  10.019   0.681   4.191 -0.0064 -0.0251  0.1595
 3222W        W22076  12.745  10.364   4.328  0.0122  0.1368 -0.1370
 3223W        W22077  11.038  12.860  15.626 -0.1242  0.0209  0.2232
 3224W        W22078   7.108   2.305   1.772 -0.1800  0.1798 -0.3103
 3225W        W22079  10.341  14.990  15.904 -0.0294  0.1407 -0.0269
 3226W        W22080  13.673   6.376   2.065  0.2978 -0.1262  0.2334
 3227W        W22081  16.577   1.984  14.908 -0.0083 -0.1668  0.0961
 3228W        W22082   6.948   1.127   0.057 -0.3059  0.1991 -0.2097
 3229W        W22083  10.536   1.112  16.823  0.1151 -0.2163 -0.0588
 3230W        W22084  14.636  14.158  15.092 -0.1677 -0.0147  0.0823
 3231W        W22085  16.568   9.461   3.918 -0.1161 -0.0765 -0.0528
 3232W        W22086   9.129  10.278   5.076  0.1018 -0.0407 -0.2825
 3233W        W22087   5.292   3.581  13.884  0.0237  0.0934  0.1776
 3234W        W22088   4.622   1.930  14.333  0.5980  0.1265  0.0171
 3235W        W22089   7.151  11.605   4.693  0.2389 -0.0014  0.2073
 3236W        W22090   2.695   9.170  14.700  0.0430  0.2103  0.0042
 3237W        W22091   8.319   2.259  17.369 -0.3428  0.1214 -0.3061
 3238W        W22092   8.992   6.429  12.854  0.0430 -0.4125  0.0341
 3239W        W22093  11.566   4.727  17.254  0.2904 -0.3371  0.0141
 3240W        W22094   6.674   5.205   3.521 -0.0305  0.3157  0.1221
 3241W        W22095  11.074   0.133  16.195 -0.0767  0.2194  0.2859
 3242W        W22096   1.684   3.929   2.111 -0.1320 -0.2312  0.0090
 3243W        W22097   0.309   7.032   2.431  0.2457  0.0288 -0.0269
 3244W        W22098   1.322  12.197  12.750  0.0003 -0.1050 -0.2885
 3245W        W22099   9.453   1.320   4.212 -0.1766 -0.0144  0.0394
 3246W        W22100   0.258   6.229   4.506  0.1388  0.1434 -0.0526
 3247W        W22101   8.533   2.444  15.328  0.3191  0.4095  0.3524
 3248W        W22102   5.428   1.720  15.579  0.1563  0.2120  0.0203
 3249W        W22103   1.094  11.301  12.343  0.4171  0.0730 -0.0241
 3250W        W22104   5.774  12.148  17.013  0.2728  0.1313  0.3129
 3251W        W22105   1.437   1.199  14.998  0.0722 -0.0132  0.1267
 3252W        W22106  13.069  10.472  14.623  0.1006 -0.1248 -0.1441
 3253W        W22107  10.946  15.102   0.370 -0.0222  0.1694  0.1180
 3254W        W22108   3.499   3.486   4.092 -0.0323  0.2097 -0.1722
 3255W        W22109  12.419  12.263   4.227  0.1535  0.0313  0.1936
 3256W        W22110  15.145  11.196  15.044 -0.0361 -0.2590  0.2313
 3257W        W22111   4.591   7.109  14.652  0.2522 -0.0621 -0.2647
 3258W        W22112   5.688   4.734   1.114 -0.0935  0.1444 -0.3058
 3259W        W22113   7.449   4.582   2.251 -0.0650  0.0456  0.2534
 3260W        W22114   8.790  16.583  13.543 -0.2257 -0.1042 -0.0683
 3261W        W22115   3.371  14.892   5.355 -0.1132 -0.0702  0.1760
 3262W        W22116  13.639   5.007  13.142 -0.1975 -0.0957  0.0398
 3263W        W22117   4.851  10.250  13.396  0.0819  0.1562 -0.0381
 3264W        W22118   5.576   3.397  14.650  0.1595  0.0587  0.0795
 3265W        W22119  12.686  17.299  13.342 -0.1263  0.1531  0.2702
 3266W        W22120   0.774  11.976  16.870  0.1094  0.1230 -0.1303
 3267W        W22121   9.839   9.044  12.871  0.2717  0.1011 -0.2091
 3268W        W22122  15.170   1.920  13.920 -0.1931 -0.0581 -0.2036
 3269W        W22123  10.755   3.081  13.580 -0.3645 -0.0015  0.1783
 3270W        W22124   1.319  15.922   4.549 -0.2136 -0.1563  0.1159
 3271W        W22125   2.919   8.582   2.748  0.1598  0.0670 -0.0432
 3272W        W22126   9.320  13.948   1.220 -0.0350 -0.0601  0.0071
 3273W        W22127   5.206   0.267  17.325  0.0183 -0.2367 -0.1903
 3274W        W22128   5.737  15.516   2.020  0.0240 -0.1129 -0.0486
 3275W        W22129  14.683   6.862  15.232 -0.0278  0.1618 -0.1487
 3276W        W22130   8.741   2.513  17.140  0.1455  0.1796 -0.0559
 3277W        W22131  13.747   6.258  15.039  0.0279 -0.2434  0.1622
 3278W        W22132  16.703   5.484  14.150 -0.2220 -0.3733  0.0836
 3279W        W22133   2.766   4.343   0.374  0.0567  0.0104  0.2510
 3280W        W22134   3.479   1.378  12.763  0.2228 -0.0202  0.0259
 3281W        W22135   6.043  16.408  14.782  0.0693 -0.0706  0.0406
 3282W        W22136   7.785  13.515   3.690  0.3283 -0.3033 -0.0223
 3283W        W22137  10.811  12.584   4.144  0.1507  0.0145 -0.0095
 3284W        W22138  16.234   5.331   1.446 -0.2827 -0.3251 -0.0216
 3285W        W22139   6.053  16.277   4.223  0.1541  0.0324 -0.1144
 3286W        W22140   8.460  16.048   4.086  0.1968  0.2012 -0.0615
 3287W        W22141   6.010   9.921   0.659  0.2690  0.0236 -0.1829
 3288W        W22142  15.475  12.671  16.663  0.1241 -0.2045  0.0439
 3289W        W22143   8.637  11.425   0.374  0.1323  0.0454 -0.3674
 3290W        W22144  11.671   1.771  14.090  0.3553 -0.2574 -0.1446
 3291W        W22145  14.287   3.963   0.430 -0.0163 -0.2570 -0.1302
 3292W        W22146   7.227   8.924   1.235 -0.0207 -0.2093 -0.2011
 3293W        W22147  15.343   7.971   0.350 -0.2189  0.1214 -0.3944
 3294W        W22148   3.549  15.574  13.864  0.0844 -0.1026 -0.2193
 3295W        W22149   0.597   7.803   0.593  0.2389  0.1049 -0.0745
 3296W        W22150   9.744   2.090  15.941 -0.1554 -0.1029 -0.0354
 3297W        W22151   4.179   6.455  16.450  0.4219  0.0101 -0.3173
 3298W        W22152   5.218  10.092  15.603  0.0220  0.0013  0.0454
 3299W        W22153   7.277  12.411  16.409 -0.2286 -0.0624 -0.3867
 3300W        W22154   4.568   9.343   0.733  0.0228  0.0170 -0.0617
 3301W        W22155   9.784   7.476   0.105  0.1307 -0.0915 -0.2451
 3302W        W22156   7.054  10.823   3.991 -0.2082 -0.1824  0.1061
 3303W        W22157  13.255   2.897   1.483  0.0909  0.0225  0.2705
 3304W        W22158  16.760  15.018  13.315 -0.0793  0.1577 -0.0441
 3305W        W22159  10.673  16.783   0.808  0.0263  0.0148  0.1147
 3306W        W22160  14.834   9.382  15.224 -0.1000 -0.1328 -0.3485
 3307W        W22161  13.342  13.274   2.092  0.1098 -0.1104  0.2501
 3308W        W22162  10.037   3.159   3.629  0.0927 -0.0599  0.3970
 3309W        W22163   6.463  11.564   3.005 -0.1375  0.2542 -0.0684
 3310W        W22164   1.511  15.730  16.635 -0.1156 -0.1957  0.0839
 3311W        W22165   5.591   7.442   0.387 -0.0527  0.0779 -0.0353
 3312W        W22166   9.259  16.547  15.933 -0.1050  0.2991  0.2516
 3313W        W22167   4.403  16.096   1.304 -0.1620  0.0167 -0.0267
 3314W        W22168   1.368  14.124   4.674  0.0057  0.0503 -0.0699
 3315W        W22169   5.838   8.700   3.582  0.1524  0.2079  0.1476
 3316W        W22170  11.524  11.796   2.662 -0.1697  0.0513  0.0022
 3317W        W22171   5.849   3.892  15.572 -0.0164  0.1101 -0.0013
 3318W        W22172   4.757  12.918  15.688  0.0152 -0.2335 -0.2203
 3319W        W22173   7.292   1.823  16.604 -0.0396 -0.3185  0.1032
 3320W        W22174  16.258  15.532   4.657  0.1708  0.0968 -0.2588
 3321W        W22175   4.248   0.524   0.255 -0.1260 -0.0484  0.0054
 3322W        W22176   7.818  13.290  15.034  0.0391 -0.0631  0.1731
 3323W        W22177   7.111   0.869   4.171  0.1704  0.2324  0.0464
 3324W        W22178   5.584  12.579   3.190 -0.1150 -0.0641  0.2284
 3325W        W22179   1.293  15.430   3.854 -0.0013 -0.0404  0.0069
 3326W        W22180   5.685  12.360  12.947 -0.2153 -0.3063  0.2209
 3327W        W22181  13.433  15.164  16.950 -0.0389 -0.0781  0.0040
 3328W        W22182   2.564   3.963   1.609 -0.0837  0.1936  0.2652
 3329W        W22183   1.096  15.022  16.995  0.0283  0.1653  0.2762
 3330W        W22184   7.321   6.982  16.887  0.0687 -0.0572  0.0024
 3331W        W22185  11.239   0.063   1.912 -0.1284  0.0098  0.3163
 3332W        W22186   6.023   4.281  17.014 -0.0287 -0.1045  0.1161
 3333W        W22187   8.906  15.239  15.284 -0.1296 -0.1746 -0.2605
 3334W        W22188   1.762  10.508  12.826  0.0289 -0.2903 -0.1084
 3335W        W22189  15.178   4.410  13.435  0.3500 -0.2183 -0.0343
 3336W        W22190   2.562   2.032   1.962 -0.0246 -0.1223 -0.0200
 3337W        W22191   4.888  13.368   2.091  0.0464 -0.3958 -0.2384
 3338W        W22192   8.813  13.938   3.553  0.0397  0.3395 -0.2335
 3339W        W22193  11.676   8.607   2.885 -0.0162 -0.0104 -0.0325
 3340W        W22194   7.587  16.007  12.589  0.1568  0.2387 -0.1339
 3341W        W22195  10.325   3.401   5.217 -0.0928  0.1390 -0.0581
 3342W        W22196   2.144   5.269   5.163  0.1155 -0.3854  0.2899
 3343W        W22197  12.047   2.721  15.704 -0.0599 -0.0636  0.0503
 3344W        W22198  10.471   6.415   3.423 -0.0379 -0.0297 -0.0726
 3345W        W22199  11.478   8.547   0.909 -0.0853 -0.0043  0.0833
 3346W        W22200  11.437   2.527   3.861 -0.0523  0.2070 -0.1047
 3347W        W22201   2.905  10.000   4.113 -0.2288 -0.2745 -0.0419
 3348W        W22202  15.151  13.481  15.029 -0.2770 -0.1831  0.2120
 3349W        W22203  15.336  14.174   1.713 -0.1617 -0.2780  0.1916
 3350W        W22204   0.072   4.885  12.936  0.1725  0.3491  0.2711
 3351W        W22205  11.226  12.066  15.294  0.0280  0.5146  0.3383
 3352W        W22206   3.033  15.728  16.852 -0.1000 -0.0451 -0.2931
 3353W        W22207   6.376   7.398   3.771  0.1051 -0.0638  0.1788
 3354W        W22208  15.505  16.680  12.921 -0.0493 -0.1437 -0.2626
 3355W        W22209  15.537   9.742  15.888 -0.1132 -0.0831 -0.2296
 3356W        W22210  16.134   2.679   4.402  0.2705  0.1308  0.2894
 3357W        W22211  16.411   1.362  15.788  0.2698 -0.0176  0.2174
 3358W        W22212   5.858  10.406   3.641 -0.0100  0.1017  0.1178
 3359W        W22213   9.125   1.332  16.599 -0.2009 -0.0030  0.1062
 3360W        W22214   3.136   4.317  16.447  0.1556  0.0016  0.1484
 3361W        W22215  11.554   9.938  17.108  0.1721  0.2431 -0.1269
 3362W        W22216  17.228  15.977  15.235  0.0711  0.0700  0.2774
 3363W        W22217   2.755  14.921   1.507 -0.0667 -0.2588 -0.0564
 3364W        W22218  11.624   0.519  13.676 -0.4636  0.1657  0.2628
 3365W        W22219  16.090   4.251   5.023  0.2253  0.0726 -0.0799
 3366W        W22220  16.977   8.355  15.086  0.0980 -0.2282 -0.0837
 3367W        W22221   4.590  14.683   2.485  0.0909  0.0981  0.0945
 3368W        W22222  12.155  15.756  16.505  0.1833  0.1620 -0.2113
 3369W        W22223  16.903   1.309   4.847 -0.1938  0.0376  0.0076
 3370W        W22224   7.125   7.726  13.082 -0.4230 -0.1397 -0.2607
 3371W        W22225   0.433   9.430   5.357  0.2038  0.2817 -0.1649
 3372W        W22226   9.406   4.085  12.876 -0.1792  0.0009 -0.1720
 3373W        W22227   1.875   7.334  13.089  0.2145 -0.2291  0.0188
 3374W        W22228  10.407  11.336   1.207  0.0819  0.1114 -0.1560
 3375W        W22229   9.669   7.227   3.427  0.3756 -0.0788 -0.1811
 3376W        W22230  15.950  16.459   1.203  0.1548  0.1286 -0.1378
 3377W        W22231  13.433   2.483  15.635 -0.2597  0.0004 -0.1411
 3378W        W22232   8.868   5.889   5.207  0.4590 -0.1773  0.0162
 3379W        W22233   3.864   7.681  16.072 -0.0454  0.4657 -0.0484
 3380W        W22234   4.143   5.300  14.314 -0.1682  0.3041 -0.1413
 3381W        W22235   4.318   9.942  13.662 -0.0923 -0.3296 -0.2083
 3382W        W22236  14.274   9.537  17.139 -0.3513  0.0943  0.2136
 3383W        W22237  16.954  14.397  12.526  0.1746  0.2834  0.0506
 3384W        W22238   9.139  10.048   0.701 -0.1895  0.1874 -0.4074
 3385W        W22239  14.524   3.918  15.421 -0.2772 -0.1843 -0.1812
 3386W        W22240   4.373   8.885   1.528 -0.0511 -0.0659  0.0810
 3387W        W22241  15.769   9.342  16.764  0.2714  0.1308  0.4105
 3388W        W22242   7.256  15.052   2.268  0.1525  0.0003 -0.0841
 3389W        W22243  13.496  15.347   0.467  0.0257 -0.0552  0.0963
 3390W        W22244   0.716   8.017   3.509  0.2696  0.0265  0.0448
 3391W        W22245   5.973  10.956   4.841  0.1438 -0.1241 -0.0119
 3392W        W22246   4.912  14.594   1.429 -0.2534 -0.0082  0.1953
 3393W        W22247  12.102   7.261  16.369  0.0400 -0.0489  0.2178
 3394W        W22248   9.465  15.280  15.283 -0.1380  0.0321  0.0706
 3395W        W22249   7.586   3.862  13.177 -0.1685  0.2921  0.1117
 3396W        W22250  10.751  10.691  14.394  0.0315  0.0945 -0.3978
 3397W        W22251   9.679  14.081   0.825  0.0540 -0.1316  0.1356
 3398W        W22252   4.027  15.106  14.589  0.0821 -0.3883  0.1872
 3399W        W22253   9.865  15.001  17.454 -0.0624 -0.2239 -0.0538
 3400W        W22254  16.343   4.289   3.017  0.1500 -0.2860  0.2326
 3401W        W22255   6.455   7.223   1.876 -0.1083 -0.4865 -0.0585
 3402W        W22256   5.241   0.984   0.714 -0.0705 -0.0932 -0.1241
 3403W        W22257   0.814  13.952   3.349  0.2566  0.1251 -0.4982
 3404W        W22258   8.261  17.176  15.692  0.0982  0.1451  0.1894
 3405W        W22259  16.148  13.737   4.577 -0.0810 -0.2392  0.2479
 3406W        W22260   6.464  10.908  15.627  0.1197  0.2523 -0.1906
 3407W        W22261   1.391  15.785  15.699  0.5117  0.1454 -0.0156
 3408W        W22262   6.314  16.620   2.912  0.1395  0.0337  0.3728
 3409W        W22263   2.330  17.308   4.112  0.1703  0.1145  0.1436
 3410W        W22264   7.556   6.687   2.211  0.1660  0.1263 -0.0825
 3411W        W22265  10.110   9.519   0.712  0.3409 -0.1524 -0.0038
 3412W        W22266   9.440  11.946   2.119 -0.1591 -0.1397 -0.3380
 3413W        W22267   5.447  11.505   2.065 -0.3710  0.1698 -0.3129
 3414W        W22268  11.190   7.035   1.248 -0.2700  0.0504  0.0726
 3415W        W22269  12.202  16.971   5.044  0.2502 -0.0626  0.0480
 3416W        W22270   9.126  15.450   2.118  0.0776  0.1579  0.0995
 3417W        W22271   2.237   9.515   2.376 -0.0063  0.2032 -0.1258
 3418W        W22272   5.929   0.085  14.829 -0.1350  0.0045  0.2337
 3419W        W22273   6.835  10.103  13.894  0.1579  0.2216  0.1102
 3420W        W22274   5.796   2.624   1.844  0.2623  0.0630  0.0263
 3421W        W22275   6.157  16.646   0.499  0.0796 -0.1479 -0.5010
 3422W        W22276   4.221   6.647   3.019 -0.1244 -0.1226  0.1843
 3423W        W22277  14.580   4.458   0.375 -0.1802  0.5527 -0.0524
 3424W        W22278  15.337   6.959   1.383  0.0182  0.2826  0.0162
 3425W        W22279   3.678  16.885   2.081  0.0161  0.0278 -0.0809
 3426W        W22280  11.657  13.080  16.233  0.2457 -0.1302 -0.2165
 3427W        W22281  13.459   7.093  14.780  0.0903 -0.2831 -0.3505
 3428W        W22282  16.053   8.870   5.403 -0.1883  0.0562  0.5956
 3429W        W22283  11.695   8.078  16.462  0.4813 -0.3606 -0.0084
 3430W        W22284   5.670  14.454   4.603  0.0996  0.0323 -0.0119
 3431W        W22285   2.865   5.337  11.905  0.1351 -0.1142 -0.1958
 3432W        W22286  16.465   6.849   1.900  0.1802 -0.1722 -0.2040
 3433W        W22287   1.745   4.008  14.006 -0.1292 -0.0751  0.2294
 3434W        W22288   0.797   1.574  13.004 -0.2605 -0.1279  0.2740
 3435W        W22289  16.326   0.936  17.383  0.2404 -0.1092 -0.1135
 3436W        W22290   1.715   9.748  13.384  0.2689  0.1570  0.1200
 3437W        W22291   1.944  12.118   0.016  0.0640  0.2290  0.2411
 3438W        W22292  10.542  10.144  17.412  0.1638 -0.3574  0.0632
 3439W        W22293   7.923  10.157   4.111 -0.0951  0.2544 -0.0177
 3440W        W22294   8.180   0.867   4.649  0.0166 -0.2082 -0.2815
 3441W        W22295  13.497   1.056   0.564  0.0114  0.0543  0.0091
 3442W        W22296   4.365  12.423   1.453  0.5853 -0.0463  0.0175
 3443W        W22297   9.555   8.750   5.642 -0.0723 -0.0907  0.2830
 3444W        W22298   5.767  12.079  13.688 -0.0812 -0.0647  0.1960
 3445W        W22299   9.310  14.429   2.971 -0.0584 -0.1726  0.2371
 3446W        W22300  15.148   3.362  16.054 -0.0829  0.0799 -0.1755
 3447W        W22301  16.037  12.366  14.175 -0.0033  0.3023 -0.1097
 3448W        W22302  12.629  16.480  16.020 -0.1252  0.0822 -0.1631
 3449W        W22303   9.124  15.929   1.977 -0.1340  0.1457  0.5597
 3450W        W22304  12.110   1.068   1.300  0.1599 -0.0612  0.3882
 3451W        W22305   3.898  17.241   3.328 -0.2122 -0.0883  0.1603
 3452W        W22306  15.556   6.479   0.195  0.3881 -0.1915  0.1219
 3453W        W22307   4.056  17.248   0.833  0.0045  0.1847 -0.2133
 3454W        W22308  13.787   1.699  11.817 -0.1870  0.3044 -0.0807
 3455W        W22309   5.373   4.008   6.516  0.0701  0.2083  0.0712
 3456W        W22310  10.612   7.662   2.127 -0.0853  0.2071 -0.1011
 3457W        W22311  15.007  13.067   3.163  0.1618 -0.0929 -0.3360
 3458W        W22312   7.324  15.070   1.157  0.2122 -0.2453  0.0543
 3459W        W22313  10.714   7.159  15.913 -0.0101 -0.0885 -0.5877
 3460W        W22314   4.694  16.206   1.771 -0.3739 -0.1037  0.2408
 3461W        W22315  12.131   5.415   0.701  0.5753 -0.0568  0.3932
 3462W        W22316   7.561   1.159   0.515 -0.2676 -0.1601  0.0910
 3463W        W22317   2.570  14.837  15.430 -0.2735  0.1830 -0.3417
 3464W        W22318  12.265   2.558   4.118  0.0309  0.1877  0.0615
 3465W        W22319   6.897   5.900  12.369  0.0700  0.0264 -0.0036
 3466W        W22320  11.155   8.986   0.947  0.1462 -0.3604 -0.2097
 3467W        W22321   1.093  11.219   3.648  0.0927 -0.2966 -0.3348
 3468W        W22322   3.533   1.821   2.798 -0.0438 -0.0622 -0.0228
 3469W        W22323   2.639  10.540   4.991 -0.2513  0.1061 -0.0786
 3470W        W22324   3.403   4.420  15.284  0.1541 -0.1959 -0.1763
 3471W        W22325  11.647   5.993  17.331 -0.2090 -0.1182  0.1083
 3472W        W22326  14.065  16.474   0.160 -0.1477 -0.3912  0.0009
 3473W        W22327   3.624  13.910   1.569  0.1347 -0.0736 -0.1156
 3474W        W22328  11.860   2.543   0.098 -0.0699 -0.3229 -0.2129
 3475W        W22329  16.752  11.789   3.753 -0.1168 -0.1335 -0.1424
 3476W        W22330   6.549  11.105   1.934 -0.0895 -0.0278 -0.1012
 3477W        W22331   2.793   7.729  12.074  0.1546 -0.1915  0.3187
 3478W        W22332   8.438  14.182   4.677 -0.0645  0.0830 -0.1682
 3479W        W22333   8.996   0.201  14.976 -0.1042 -0.0874  0.0248
 3480W        W22334   3.125   8.925   4.614 -0.1929 -0.4220  0.1602
 3481W        W22335   2.737   3.986   2.169 -0.1560 -0.1844  0.0988
 3482W        W22336   3.984  16.597  13.071  0.1702 -0.2348 -0.2450
 3483W        W22337   7.415   8.636  15.060 -0.1136 -0.0782 -0.1599
 3484W        W22338   7.509  11.814  12.139 -0.1854  0.0657 -0.0844
 3485W        W22339  14.866  10.818   5.247  0.0494  0.1862  0.1020
 3486W        W22340  13.605   8.774   5.513 -0.1269  0.2643 -0.3151
 3487W        W22341  13.746   8.833  17.188  0.0564 -0.2147 -0.2827
 3488W        W22342   8.540   9.701  15.152  0.0175  0.1456 -0.0136
 3489W        W22343   8.993  10.404  15.710  0.0700 -0.3842 -0.1276
 3490W        W22344  16.005   4.355  16.397  0.1508 -0.1004  0.0226
 3491W        W22345   4.666   5.124   1.146  0.3685  0.0932  0.2247
 3492W        W22346   3.935   6.980   0.713  0.4980  0.2506  0.1563
 3493W        W22347  10.870   0.110  17.030 -0.2250 -0.1057  0.1796
 3494W        W22348  16.555   9.253  13.264  0.2837  0.0199  0.4714
 3495W        W22349  15.176  15.634   1.806  0.0525 -0.2536 -0.1468
 3496W        W22350   9.685  13.264   5.032 -0.0439 -0.1695 -0.2629
 3497W        W22351  14.068  15.246  13.859 -0.0129  0.1805  0.0221
 3498W        W22352  16.119  16.762  14.342 -0.2306  0.2436 -0.4787
 3499W        W22353  12.332  12.070  13.792  0.1902  0.1359  0.1357
 3500W        W22354   4.803  11.956  13.607 -0.1285  0.2703 -0.1206
 3501W        W22355  14.423   8.239  15.882  0.0180  0.0408 -0.2618
 3502W        W22356  13.726   6.058  15.863  0.2133 -0.1207  0.0728
 3503W        W22357   1.737   1.833   2.347 -0.2310  0.0428 -0.1741
 3504W        W22358   5.871  13.487   0.120  0.3358 -0.2898  0.1624
 3505W        W22359   4.112   0.051   5.028  0.0804  0.1920 -0.0536
 3506W        W22360   8.662  15.898  12.460 -0.1441  0.0553  0.0583
 3507W        W22361  13.429   2.986   0.606 -0.1809 -0.1179 -0.2491
 3508W        W22362   2.181  13.693  15.860  0.1252 -0.1781  0.0580
 3509W        W22363   2.697  13.438   5.288  0.2173 -0.2424  0.1592
 3510W        W22364   3.220   3.522   3.583  0.2795 -0.4349 -0.0325
 3511W        W22365   5.985   1.827   1.081  0.0252 -0.2677 -0.3356
 3512W        W22366   4.082   1.884  14.576 -0.0181  0.0541  0.2374
 3513W        W22367   6.057   8.228   3.588 -0.3064  0.0571  0.0029
 3514W        W22368   5.714  11.385   1.057 -0.0384  0.0006  0.3755
 3515W        W22369  10.447  15.681  15.613 -0.0002 -0.2157 -0.0428
 3516W        W22370   0.303   0.386  14.683  0.0787  0.1195  0.2272
 3517W        W22371   6.352   7.502   2.270 -0.2467  0.1629 -0.0762
 3518W        W22372  13.958   0.548   1.712  0.0433 -0.1506 -0.2025
 3519W        W22373   3.728   2.161  16.634  0.0737  0.0666  0.2937
 3520W        W22374   5.739  15.466  13.114 -0.0097  0.0066 -0.1022
 3521W        W22375   0.425   5.928  16.739 -0.2636 -0.0903  0.2618
 3522W        W22376  16.177  10.447   0.628  0.0776  0.2011 -0.1172
 3523W        W22377  14.966  15.010  16.656  0.0149 -0.0193 -0.2407
 3524W        W22378   8.048  17.141   2.815  0.2142  0.2134  0.2381
 3525W        W22379  15.904  11.170   3.998  0.2184 -0.1096 -0.0913
 3526W        W22380   4.904  16.538  13.941 -0.1749  0.1981  0.3520
 3527W        W22381  10.648  17.281   5.251 -0.0131  0.2864 -0.2859
 3528W        W22382  16.795  10.347   0.938 -0.2259  0.0445 -0.0379
 3529W        W22383  17.323  11.531   2.106 -0.0946  0.2448  0.0606
 3530W        W22384   6.755   5.479   1.138 -0.0339  0.0452  0.0628
 3531W        W22385  15.841   5.756  12.783  0.0513  0.0964 -0.1522
 3532W        W22386   3.065   5.702   5.260  0.1353 -0.1395 -0.2314
 3533W        W22387   9.969  12.601  11.895  0.1527  0.2531 -0.2530
 3534W        W22388  11.199   3.041  12.412 -0.1670  0.4223  0.0293
 3535W        W22389   2.252  16.392   4.197  0.1461 -0.1677  0.4029
 3536W        W22390  10.586  12.190   4.334  0.2177  0.0913 -0.1907
 3537W        W22391  17.218   3.904  13.718 -0.1132  0.0226  0.0340
 3538W        W22392   2.269  11.532   3.036  0.1751 -0.0226 -0.0797
 3539W        W22393   4.105  14.487  12.812  0.1042  0.1664  0.2156
 3540W        W22394   4.595  11.921  14.123  0.0890 -0.0578  0.3029
 3541W        W22395   4.322  10.815   3.658 -0.1741 -0.0793  0.0960
 3542W        W22396   0.688  16.197   5.192  0.0549 -0.1435 -0.1624
 3543W        W22397  13.953   5.708   0.557  0.1573 -0.0994  0.2595
 3544W        W22398   2.455   7.721  17.218  0.0730  0.3505 -0.1073
 3545W        W22399   5.859  15.553  14.394 -0.2155  0.1278 -0.1450
 3546W        W22400   6.932   7.212   0.753 -0.2685 -0.2441  0.0212
 3547W        W22401   4.858   7.791  15.114  0.2410 -0.0386  0.1007
 3548W        W22402   0.247   9.934  13.601  0.1212 -0.1151  0.1548
 3549W        W22403  11.089  15.038   3.468  0.0169  0.0299  0.2105
 3550W        W22404   2.048  10.761  15.501  0.1572 -0.0042  0.0862
 3551W        W22405  12.427   7.700   0.339 -0.1984  0.1566  0.2877
 3552W        W22406   3.168   3.648  17.119 -0.1342  0.0445 -0.0455
 3553W        W22407  17.038   7.541   5.298 -0.0014 -0.1340  0.0962
 3554W        W22408  17.134   7.685   4.787  0.2064  0.3150 -0.0376
 3555W        W22409   5.684   7.626   4.515 -0.1495 -0.0810 -0.0489
 3556W        W22410   6.848  14.640  12.414  0.1347 -0.0446 -0.2280
 3557W        W22411  15.139   6.493  16.818 -0.1276 -0.2273  0.1454
 3558W        W22412   6.164  15.406   3.510  0.0884 -0.2610 -0.0350
 3559W        W22413  16.474  13.738   0.821 -0.0287 -0.2274 -0.0891
 3560W        W22414   0.603  14.328   5.072 -0.0643 -0.3499 -0.0150
 3561W        W22415  16.583   2.607  15.549  0.1846  0.0157 -0.0733
 3562W        W22416  12.481  14.508   4.760  0.0433  0.2139 -0.0167
 3563W        W22417   6.721   2.434   2.059  0.1535  0.1998  0.0045
 3564W        W22418   3.008   1.924  14.970  0.3249 -0.0032  0.1016
 3565W        W22419   9.678   1.057  14.768  0.0156 -0.1150 -0.0364
 3566W        W22420   0.249  12.753   5.216  0.1354 -0.2122 -0.3096
 3567W        W22421   8.611  14.951  14.502 -0.2438 -0.0175 -0.1447
 3568W        W22422   5.242   8.656   3.962 -0.1668 -0.1640 -0.1457
 3569W        W22423   7.164   7.798   3.267  0.0196  0.0188  0.1090
 3570W        W22424   3.050   0.620   4.807  0.3122 -0.1408  0.3427
 3571W        W22425  13.601   5.335  15.394  0.2217  0.0001 -0.3224
 3572W        W22426  16.815   3.813   1.255  0.0422  0.1133  0.1858
 3573W        W22427   2.633  13.312  17.325 -0.0397  0.1012  0.2319
 3574W        W22428  10.813   5.912  16.268 -0.0535 -0.0237  0.0147
 3575W        W22429   1.360  13.756  14.904  0.0515 -0.3237  0.0478
 3576W        W22430  15.714   3.681  13.903 -0.0122  0.1284 -0.2872
 3577W        W22431   0.471   8.131  14.090  0.3305 -0.3461 -0.0363
 3578W        W22432  16.428   8.692   0.033  0.2473  0.2231  0.2285
 3579W        W22433   3.706   8.317  14.540 -0.0203 -0.0160  0.0185
 3580W        W22434  17.103   9.585   2.425  0.3512 -0.0064  0.2153
 3581W        W22435   8.067  13.043  13.588  0.0187 -0.2984 -0.0659
 3582W        W22436  16.148  15.794   3.369 -0.1984 -0.0430  0.1549
 3583W        W22437  13.071   9.526   2.703  0.1266 -0.4525  0.1817
 3584W        W22438   1.808   2.305  14.875  0.2262 -0.4228 -0.1554
 3585W        W22439   9.105   1.675  12.738 -0.1734  0.0326 -0.1112
 3586W        W22440  14.066   6.161  14.480  0.1705 -0.2687 -0.3115
 3587W        W22441  12.473   9.088  12.888 -0.1123  0.1079  0.1912
 3588W        W22442   5.232   5.042  16.158 -0.3966  0.1434 -0.2859
 3589W        W22443   2.624   3.243  14.095 -0.0763  0.2500 -0.0311
 3590W        W22444   9.720  12.405   1.070  0.0701  0.0592 -0.2063
 3591W        W22445   8.841   1.502  15.029  0.1757  0.1130 -0.0413
 3592W        W22446  10.846   7.586  15.727  0.2181 -0.1132  0.0051
 3593W        W22447  16.266   2.929   0.662 -0.0596 -0.3001  0.3331
 3594W        W22448   9.003   8.180   2.080 -0.0721  0.0378  0.0619
 3595W        W22449   3.323  14.939  16.675  0.0190  0.0691 -0.0753
 3596W        W22450   5.935   2.876   1.418 -0.2944  0.0987 -0.0446
 3597W        W22451  16.023  12.946   2.423 -0.0118 -0.1517  0.0917
 3598W        W22452   3.979   7.300  12.864 -0.2379 -0.0691 -0.0677
 3599W        W22453  11.324   0.679  15.440  0.0471 -0.0694  0.1744
 3600W        W22454   3.952   9.541  16.244  0.3187 -0.0273  0.2977
 3601W        W22455   5.008   3.247  12.826 -0.0148  0.0522  0.1931
 3602W        W22456   6.082   6.053  12.206  0.0133  0.3206  0.2305
 3603W        W22457  16.650   9.992   1.310 -0.1149  0.0297 -0.0578
 3604W        W22458  14.871   8.026  16.624 -0.0220  0.1196  0.0143
 3605W        W22459   4.017  16.055   2.180  0.3583  0.1428 -0.2979
 3606W        W22460  13.153   2.310  13.738  0.3436 -0.0274 -0.1346
 3607W        W22461   3.561  12.679   1.783 -0.0037  0.3025  0.1238
 3608W        W22462   2.214  13.465   5.403 -0.0663  0.0209  0.1397
 3609W        W22463   9.232   5.050   4.195 -0.0824  0.2476  0.1205
 3610W        W22464  13.814  10.540  16.271 -0.1750  0.0127  0.2192
 3611W        W22465  14.990  10.063  16.431 -0.0362 -0.1777  0.0335
 3612W        W22466  17.263  16.637  13.756  0.0372  0.2551  0.3387
 3613W        W22467  13.863   6.633   4.491 -0.2915 -0.0642 -0.1540
 3614W        W22468   0.576  11.384   5.058  0.0668 -0.0632  0.0065
 3615W        W22469   6.544  12.262  15.501  0.0009  0.1024 -0.1953
 3616W        W22470   9.372   4.016   2.348  0.0224 -0.0773 -0.3527
 3617W        W22471  14.447   8.384   5.204  0.0632 -0.0126 -0.1603
 3618W        W22472  10.473   4.236  13.561 -0.2061  0.0648 -0.4684
 3619W        W22473  10.040  14.531   4.012 -0.2116  0.4250  0.3709
 3620W        W22474   7.103   0.004  17.253  0.1992  0.2279  0.0515
 3621W        W22475   2.861  14.049   1.617  0.0772  0.3419  0.1502
 3622W        W22476  16.530   7.150   5.337  0.2202 -0.3641 -0.0150
 3623W        W22477   0.991  16.845  13.427 -0.1743 -0.2441 -0.0953
 3624W        W22478   3.082  10.212  16.111  0.1550 -0.1577 -0.2307
 3625W        W22479   4.680   1.228   1.419  0.0204  0.0158  0.0928
 3626W        W22480  16.460   0.334  13.262 -0.0231 -0.0281 -0.4044
 3627W        W22481  16.090   8.093  14.806  0.1796  0.0948  0.0769
 3628W        W22482   0.329   3.465  12.298  0.1139  0.2854  0.1429
 3629W        W22483   0.296  15.988   3.093  0.0627  0.1215 -0.1194
 3630W        W22484   8.210   1.327  16.933 -0.1084 -0.0187  0.1579
 3631W        W22485   0.273   9.690  15.101  0.5238 -0.1163  0.2396
 3632W        W22486   3.581   0.893  13.027  0.1216 -0.2143 -0.1277
 3633W        W22487   4.400   7.186  12.686 -0.0942  0.0492  0.1276
 3634W        W22488  13.202   9.621  13.018  0.3195  0.0241  0.1033
 3635W        W22489   3.187  11.211  15.032 -0.1630 -0.0209 -0.0200
 3636W        W22490  10.533  10.126  16.806  0.1264  0.0464  0.1383
 3637W        W22491   5.461  11.309  13.865 -0.0230  0.1054  0.1520
 3638W        W22492   5.578   1.296  12.428 -0.1425 -0.0317 -0.0045
 3639W        W22493   1.843   0.564   1.957 -0.1778 -0.0677  0.0974
 3640W        W22494  15.764   4.561   1.054  0.3199  0.1943 -0.1313
 3641W        W22495   5.748   7.537  16.982  0.2464  0.3246 -0.2537
 3642W        W22496  15.532   5.981  16.328  0.0868  0.0163 -0.2444
 3643W        W22497   1.374   3.579  17.203 -0.2310  0.0425 -0.2732
 3644W        W22498   0.446  15.945   0.539  0.1584  0.2098  0.3050
 3645W        W22499   8.630  16.124  16.649  0.2066 -0.2273 -0.2580
 3646W        W22500  11.771   1.929   1.724 -0.1738 -0.2784  0.0491
 3647W        W22501  11.049   5.088  14.052  0.2281  0.3605 -0.2436
 3648W        W22502   2.541  10.696   0.246 -0.0849  0.0819 -0.1971
 3649W        W22503   1.553  14.437   1.877 -0.2570  0.2947 -0.2238
 3650W        W22504   7.829  16.937   0.094  0.0355 -0.1304 -0.2152
 3651W        W22505  13.101  17.252   4.181  0.2367  0.1656 -0.0032
 3652W        W22506   5.114   9.857  15.177  0.1356  0.0778 -0.0655
 3653W        W22507   6.017   3.950   1.450  0.2123  0.0401  0.1311
 3654W        W22508   5.650   7.709   5.283 -0.1728  0.0032  0.2166
 3655W        W22509   7.899   7.823  12.467 -0.0262 -0.2114  0.0031
 3656W        W22510   9.515   4.180  13.401 -0.1830 -0.1145  0.2295
 3657W        W22511   8.114   6.660  14.348 -0.2664  0.2364 -0.1086
 3658W        W22512   9.714   8.828  15.680  0.0098 -0.0941  0.2012
 3659W        W22513   0.238  17.029   4.259  0.0450  0.1039  0.2470
 3660W        W22514   9.248  17.111   3.319  0.1457  0.2691 -0.0644
 3661W        W22515  16.532  15.883   5.064  0.0869  0.0313 -0.0150
 3662W        W22516   1.555   3.569  16.740 -0.1653 -0.0163  0.0108
 3663W        W22517   3.494  10.376  13.760 -0.1345  0.1076  0.0291
 3664W        W22518  13.686   9.294  12.389 -0.1147 -0.2375 -0.3071
 3665W        W22519   8.274   0.196  14.489 -0.1340 -0.1189  0.2560
 3666W        W22520  12.579   6.257   2.825 -0.1918 -0.3181 -0.4321
 3667W        W22521   0.657  10.837   5.000 -0.0794  0.1069 -0.0736
 3668W        W22522  11.690   9.823  16.032  0.0775  0.1441 -0.1280
 3669W        W22523  14.532   9.806  16.656 -0.0154  0.1711 -0.1043
 3670W        W22524  10.004   1.198   5.292 -0.2868  0.2013 -0.0917
 3671W        W22525   3.903  11.474  17.318  0.2157 -0.2903  0.0589
 3672W        W22526   8.141  10.210   5.400 -0.2231  0.0546  0.3968
 3673W        W22527  17.103   2.385   2.338  0.1390  0.0229  0.0452
 3674W        W22528  12.741  12.456  15.877 -0.0261 -0.3164 -0.1274
 3675W        W22529  12.534   5.395  14.479 -0.1066 -0.0502  0.1092
 3676W        W22530   0.283  17.322   3.323 -0.2628 -0.2275  0.0304
 3677W        W22531  11.763   7.844  15.985  0.2232 -0.1527 -0.0740
 3678W        W22532   1.222   8.882   5.282 -0.1961 -0.2411  0.0104
 3679W        W22533  14.723  16.645   3.244 -0.0892  0.1266  0.2187
 3680W        W22534  11.216   7.262  13.754  0.1766  0.1837 -0.1596
 3681W        W22535   1.204   9.755   3.286 -0.1021  0.1360 -0.1789
 3682W        W22536  15.396  15.343   0.337 -0.1470  0.1047 -0.0589
 3683W        W22537  14.526   5.909  17.129  0.0161  0.0109 -0.3363
 3684W        W22538   5.384   8.536  16.349  0.3733  0.2143 -0.0071
 3685W        W22539  11.725  16.306  15.065  0.0831 -0.1524  0.0979
 3686W        W22540  16.939   9.746  15.270 -0.2559 -0.3746  0.0390
 3687W        W22541   2.046   4.888   4.148  0.0893  0.2181 -0.1631
 3688W        W22542   0.832  15.372  17.321  0.0123 -0.0716 -0.1325
 3689W        W22543   9.207  11.275  16.908  0.1687  0.0156 -0.1811
 3690W        W22544   0.622  16.084   0.014 -0.0962 -0.0196  0.1056
 3691W        W22545   6.439   0.781   4.862 -0.2163 -0.3794 -0.0530
 3692W        W22546   5.194   6.860  11.318  0.1744 -0.0300 -0.0198
 3693W        W22547   4.039   1.793   6.358  0.1911 -0.2758  0.2714
 3694W        W22548   0.338  11.393   2.916 -0.0743 -0.2498 -0.0856
 3695W        W22549   7.372   8.501   0.007 -0.0767  0.0103 -0.1193
 3696W        W22550   3.569   4.810  12.238  0.2933  0.1577 -0.0328
 3697W        W22551   9.004  15.827  16.966 -0.1056  0.0664  0.0546
 3698W        W22552  13.280  17.217  13.403  0.2982 -0.3152  0.0744
 3699W        W22553   3.030   5.227  14.222 -0.0414 -0.0546 -0.1340
 3700W        W22554   2.913   5.299   4.826 -0.1842 -0.2616  0.1360
 3701W        W22555   1.232   8.745  14.155 -0.2816 -0.3717  0.1435
 3702W        W22556  11.268   1.378   4.059  0.0006 -0.0591 -0.1121
 3703W        W22557   8.952  16.555   1.171 -0.1745  0.0286 -0.1020
 3704W        W22558  13.238   6.529  16.259 -0.1927  0.1544  0.0418
 3705W        W22559   8.799   1.140   3.553 -0.0008  0.0930  0.3008
 3706W        W22560   2.760  14.722   2.857 -0.1914  0.0267  0.1018
 3707W        W22561   0.077   2.854  14.561 -0.1103  0.0970  0.1870
 3708W        W22562   9.001   6.422   3.035 -0.1539  0.1340 -0.0405
 3709W        W22563   0.097   7.135   4.124  0.0989  0.3486 -0.1052
 3710W        W22564  14.412  13.513  14.532  0.1538 -0.0130  0.2863
 3711W        W22565   3.883  15.050   0.613 -0.1214 -0.0408  0.1758
 3712W        W22566   8.774   2.499   3.573  0.1510  0.0260 -0.3107
 3713W        W22567  16.761   0.805  15.005  0.3925  0.0411  0.1228
 3714W        W22568   3.315   0.116  14.633  0.0613 -0.2434  0.1047
 3715W        W22569  12.908   8.365   2.258  0.1413  0.0760 -0.1964
 3716W        W22570   4.844   3.574   1.585  0.1144 -0.2025  0.1776
 3717W        W22571   8.881   0.092   4.688 -0.2647 -0.0904  0.3087
 3718W        W22572   9.249  13.345   0.307  0.0150 -0.2065 -0.1530
 3719W        W22573  12.071   4.730  17.328  0.2206 -0.1583  0.1404
 3720W        W22574  12.802   4.814  14.059  0.1252  0.2719  0.0199
 3721W        W22575  16.760  12.446   5.268 -0.0308  0.1166  0.0072
 3722W        W22576  15.663  13.689   6.059 -0.1599  0.2780  0.0772
 3723W        W22577   1.272  10.471   0.915  0.0671 -0.1484 -0.0957
 3724W        W22578  14.907  16.158  14.334 -0.0062 -0.0298  0.0351
 3725W        W22579   1.870   9.375   3.329 -0.0131  0.1179 -0.3087
 3726W        W22580  17.129   2.533  16.309  0.1492 -0.1292  0.4420
 3727W        W22581  12.458  12.283   1.740  0.1878 -0.2273  0.2006
 3728W        W22582  12.883  10.822   1.300 -0.1848 -0.3051 -0.1648
 3729W        W22583   0.454   0.516   3.389 -0.0783  0.4432  0.2038
 3730W        W22584   8.071   1.644  14.887  0.5177  0.3075 -0.0094
 3731W        W22585   0.836  12.773   0.217  0.2673 -0.0999 -0.0144
 3732W        W22586  12.698   7.298   0.625 -0.1845 -0.0492  0.0892
 3733W        W22587  17.064   6.968  16.776 -0.0688  0.4197 -0.0514
 3734W        W22588   2.495  13.826  14.528 -0.0168 -0.0351 -0.0178
 3735W        W22589  12.479   1.420   5.734  0.1273  0.0404 -0.0932
 3736W        W22590   8.738   7.717   4.447 -0.0667 -0.2405  0.1157
 3737W        W22591  13.485  16.015   2.442 -0.0773 -0.2666 -0.0265
 3738W        W22592   4.735   9.790  12.533  0.1712 -0.0414  0.1162
 3739W        W22593  10.825   6.541   3.865 -0.1275 -0.1793  0.3128
 3740W        W22594   1.065   4.970   0.270 -0.3103  0.0123 -0.1555
 3741W        W22595  15.471  15.545   1.398 -0.0943  0.2907 -0.1072
 3742W        W22596  13.578   3.847  13.310  0.2373 -0.0322  0.2273
 3743W        W22597  15.591   2.761  12.574 -0.0832  0.0514  0.1194
 3744W        W22598   4.410   3.614   2.445  0.3197 -0.0504  0.0759
 3745W        W22599   5.348   9.219   4.051 -0.2092 -0.3239  0.1443
 3746W        W22600  16.588   7.630   1.677 -0.3384 -0.3158 -0.1110
 3747W        W22601  17.094  11.531  15.727 -0.0065 -0.0529 -0.0762
 3748W        W22602  17.030   0.377   0.107 -0.0325 -0.0910  0.0060
 3749W        W22603   0.442   5.283   5.244 -0.2276 -0.1284 -0.1855
 3750W        W22604   2.151   7.659  13.395 -0.0796 -0.2361 -0.1501
 3751W        W22605   8.223   4.070   2.436  0.0352 -0.0491  0.0330
 3752W        W22606   0.845   9.648  12.375  0.1073 -0.1313 -0.1579
 3753W        W22607  16.806  12.887   3.027 -0.1645  0.0785  0.4986
 3754W        W22608   2.879  14.457   3.875 -0.0458  0.2507  0.2267
 3755W        W22609   4.663   2.116  13.442  0.0087  0.0912 -0.0368
 3756W        W22610   5.263  15.248  13.297  0.3809  0.0772  0.1792
 3757W        W22611  14.051   5.696  15.274  0.2667 -0.1531 -0.0736
 3758W        W22612  17.093  16.339   4.265  0.0844  0.0865 -0.0567
 3759W        W22613   7.309  15.861   2.192 -0.0133 -0.1743 -0.1924
 3760W        W22614   7.543   7.845   2.765  0.1707 -0.1552 -0.0529
 3761W        W22615  12.655  12.978   0.985 -0.0887  0.0502  0.0878
 3762W        W22616   9.984  17.203   2.034 -0.0105 -0.0645  0.1627
 3763W        W22617  15.105  13.315   1.701 -0.0905  0.1624 -0.0297
 3764W        W22618  15.969   0.032  16.216 -0.2883 -0.0292  0.3465
 3765W        W22619   2.252  12.849   1.855  0.2761 -0.0630  0.0534
 3766W        W22620   1.165  16.644  13.048  0.0702  0.0648  0.2032
 3767W        W22621   0.541  12.786  12.497 -0.4171 -0.0786  0.1874
 3768W        W22622   3.191   8.049   3.794 -0.1975 -0.0602 -0.0387
 3769W        W22623  16.166   4.675  12.772 -0.6005  0.1965  0.2205
 3770W        W22624   4.267  16.814  17.168 -0.4418  0.1678 -0.1647
 3771W        W22625   4.159   3.013  15.449  0.0537 -0.3045 -0.1104
 3772W        W22626   2.058   9.980  16.684  0.0192  0.0447 -0.1157
 3773W        W22627   7.584   2.276  17.405 -0.0068 -0.1673 -0.1328
 3774W        W22628   6.161   2.573  12.601 -0.0349 -0.3880 -0.1420
 3775W        W22629   8.010   5.242   0.681  0.2340 -0.1414 -0.2939
 3776W        W22630   1.369   3.847  15.781  0.1807  0.2305  0.3755
 3777W        W22631   1.604   7.654  16.041 -0.0491 -0.0325  0.1308
 3778W        W22632   7.654  12.574   2.194 -0.0316 -0.1532 -0.1630
 3779W        W22633  13.202   3.078  16.760  0.3298  0.3154  0.3104
 3780W        W22634   3.941   1.208  16.911 -0.2296 -0.0116  0.0970
 3781W        W22635   6.897  11.144   0.554 -0.1167  0.4328 -0.0264
 3782W        W22636  15.979  12.059   5.611  0.3128 -0.1254  0.0308
 3783W        W22637  14.966  15.213   1.913 -0.2219  0.2035  0.0444
 3784W        W22638  10.896   6.096  13.163  0.1077  0.0813 -0.1723
 3785W        W22639   0.144   1.127   1.777  0.1517  0.2554 -0.2727
 3786W        W22640  13.532  10.138  16.277  0.2547 -0.1982 -0.0667
 3787W        W22641  16.159  13.953   3.579 -0.1860 -0.1120 -0.1079
 3788W        W22642   9.703   5.197  12.413  0.1453 -0.1407 -0.0104
 3789W        W22643  13.185  17.051   5.133  0.1711 -0.2135 -0.0988
 3790W        W22644   4.695   2.936  16.639 -0.1716  0.0719  0.2329
 3791W        W22645  15.412  17.123   2.190  0.1223 -0.2675  0.0949
 3792W        W22646  12.686  11.069  14.094 -0.0031  0.0298  0.0798
 3793W        W22647   2.509  10.182   0.880 -0.1159  0.0250  0.2598
 3794W        W22648  15.883  13.359   1.591  0.1902 -0.1278  0.1077
 3795W        W22649   3.827  11.510   2.093  0.0678 -0.2184 -0.0434
 3796W        W22650  14.162   1.347   2.175  0.0438 -0.3014 -0.0403
 3797W        W22651   0.097  12.170  14.179  0.3513 -0.1116 -0.1425
 3798W        W22652   9.550   7.765  15.978 -0.0236  0.0651 -0.2776
 3799W        W22653  13.072   7.634   4.244 -0.1576 -0.2046  0.0380
 3800W        W22654   4.762  13.890   0.597 -0.2220 -0.2824  0.1020
 3801W        W22655   2.069   5.158  14.342  0.0485  0.2695  0.1939
 3802W        W22656   4.065  16.785  11.595  0.1242  0.2655  0.2054
 3803W        W22657   2.912   4.835   1.812  0.0794 -0.1422  0.0301
 3804W        W22658  12.899  11.892  12.993 -0.4042 -0.2473  0.1280
 3805W        W22659   0.567   5.289  14.138  0.1812 -0.1288  0.2523
 3806W        W22660  13.939  12.212  17.357 -0.0372  0.2339  0.0990
 3807W        W22661   9.080  12.000  13.335  0.1241 -0.1670 -0.1422
 3808W        W22662   4.326  12.477   2.359  0.3202  0.2097 -0.0870
 3809W        W22663   8.535  11.780  15.656  0.1872 -0.1667  0.1828
 3810W        W22664   4.402   8.429  16.400  0.6305 -0.3116 -0.1562
 3811W        W22665   7.768  10.140  14.484 -0.0220 -0.2316  0.2461
 3812W        W22666   0.607   0.455   2.054  0.1427  0.1935  0.1558
 3813W        W22667  17.077  15.785  13.654 -0.0202 -0.2306 -0.0321
 3814W        W22668   2.204   2.646   3.680 -0.1559 -0.1071  0.1886
 3815W        W22669   0.434   1.172  17.186 -0.0915 -0.2454 -0.0389
 3816W        W22670   4.696   2.105   4.604  0.0393  0.2546 -0.3200
 3817W        W22671  16.597  16.897   0.106 -0.1101  0.0289  0.0671
 3818W        W22672   5.766   8.446  17.193 -0.0489  0.3730  0.4266
 3819W        W22673   0.097  12.468   3.570 -0.1673  0.0290  0.3231
 3820W        W22674   1.780  10.346   2.361  0.1785  0.0620 -0.0695
 3821W        W22675   4.402   5.309  13.403 -0.0737 -0.1559  0.0563
 3822W        W22676  12.389   4.184   1.244  0.0416 -0.3414  0.0198
 3823W        W22677  11.531   0.724  14.413  0.0054 -0.2618  0.1830
 3824W        W22678  12.270  10.723   5.158  0.1710  0.0189 -0.3151
 3825W        W22679  12.850  15.309  15.008 -0.1442  0.1167 -0.0927
 3826W        W22680  12.856  13.911   3.134  0.1053  0.0668  0.0007
 3827W        W22681   3.128  10.169   0.252  0.0284  0.1385 -0.0394
 3828W        W22682   3.653   2.968  16.685  0.0519  0.1294  0.0019
 3829W        W22683  15.854   8.792   4.917  0.1531 -0.1491 -0.1093
 3830W        W22684   5.163   8.092  13.796  0.1440 -0.1165 -0.0347
 3831W        W22685   5.974   3.233  13.190 -0.0719  0.0218  0.2579
 3832W        W22686  15.620   3.630  16.086  0.1220 -0.3441  0.1074
 3833W        W22687   9.557  15.518   1.802 -0.0677 -0.0203  0.1743
 3834W        W22688   7.490   7.159  13.412  0.1992  0.0893 -0.0560
 3835W        W22689  11.004   1.626  16.450 -0.1196  0.0925 -0.1492
 3836W        W22690   4.329  14.379  15.792 -0.1582  0.0458 -0.1173
 3837W        W22691  10.402   1.424   2.547 -0.0915 -0.0033 -0.0293
 3838W        W22692  13.560   6.971   2.759  0.0637 -0.0584  0.1556
 3839W        W22693   4.797  15.981  15.027 -0.1630 -0.0957 -0.4303
 3840W        W22694   7.295   7.833   4.691 -0.3566 -0.1147  0.1603
 3841W        W22695   4.014   2.399  13.171  0.0853 -0.1114  0.2295
 3842W        W22696   5.433  10.468  13.504  0.0881  0.1382  0.0735
 3843W        W22697  10.529   7.160  12.785 -0.0558  0.0940  0.3234
 3844W        W22698   0.141  13.940   3.868 -0.1049  0.0838 -0.1228
 3845W        W22699   8.061   3.731  13.224  0.1304 -0.2850 -0.1308
 3846W        W22700  16.034  10.791  12.683 -0.2139  0.2517 -0.1311
 3847W        W22701  10.288  15.417  17.412  0.1283  0.1518 -0.0412
 3848W        W22702  13.730  15.709  13.059 -0.2523 -0.0834 -0.0093
 3849W        W22703   3.854  10.357   0.247 -0.0591  0.0224 -0.2115
 3850W        W22704   7.591   8.427  12.484  0.2173 -0.1872 -0.0813
 3851W        W22705  14.902  15.550   1.379  0.1627  0.1405 -0.0126
 3852W        W22706   5.365  11.705   3.950 -0.1361  0.3469 -0.1616
 3853W        W22707  12.428   1.811   3.052  0.4413  0.1718 -0.1057
 3854W        W22708   1.132  10.850   1.792  0.1359  0.1637  0.0469
 3855W        W22709   3.071  16.450  12.958 -0.0798  0.0540  0.0585
 3856W        W22710  16.879   9.725  15.763  0.1732  0.0270 -0.0190
 3857W        W22711  14.320   9.775   1.587  0.0269  0.2221 -0.2104
 3858W        W22712   3.004   5.030  13.546  0.3221  0.1922  0.2458
 3859W        W22713   5.256  15.861   5.507 -0.4297  0.2911  0.3132
 3860W        W22714   6.542   5.468  15.205  0.2660  0.1377 -0.1787
 3861W        W22715   7.321  10.601   1.958 -0.0540  0.2317  0.3620
 3862W        W22716   5.934   8.377   3.143 -0.0815 -0.0017  0.3962
 3863W        W22717  15.383   6.286   3.920 -0.0442  0.0307 -0.0143
 3864W        W22718  17.074  10.819   4.446 -0.0972 -0.3997 -0.3301
 3865W        W22719   9.783  12.130  12.369 -0.0784 -0.0804 -0.1094
 3866W        W22720  10.070  11.718   1.168  0.1985  0.0440  0.1037
 3867W        W22721   0.987   9.009  15.240  0.0677 -0.5792  0.3492
 3868W        W22722   2.778   9.967  17.050 -0.1250 -0.2244  0.1846
 3869W        W22723  11.716   4.892   3.514 -0.1737 -0.2128  0.0158
 3870W        W22724   8.158  13.049  16.867 -0.0093 -0.2657  0.1183
 3871W        W22725  12.669  11.686  12.529  0.2063  0.2246 -0.4085
 3872W        W22726   8.852   2.524   4.061 -0.0408 -0.2856 -0.0524
 3873W        W22727  14.070  13.552  14.097  0.0606 -0.2201  0.4698
 3874W        W22728  16.911   4.648  12.039 -0.0614 -0.0816 -0.0629
 3875W        W22729  15.348   1.984  16.221 -0.0518  0.0070  0.0053
 3876W        W22730  13.371  16.835   0.333 -0.1091  0.0697  0.2226
 3877W        W22731   6.155   7.954  13.974  0.2386  0.2231 -0.1793
 3878W        W22732   9.153   9.916   2.436  0.1289 -0.0652  0.1931
 3879W        W22733  12.163  12.424  11.442 -0.1892 -0.0714 -0.1802
 3880W        W22734  12.456   2.289  12.895  0.0628  0.2051 -0.2179
 3881W        W22735  11.020   6.568   0.780  0.2066  0.0926  0.0974
 3882W        W22736   9.730  16.407  15.861 -0.2638 -0.0263  0.0886
 3883W        W22737  17.238   0.797  16.638  0.3409  0.1736 -0.0330
 3884W        W22738  17.289   3.762   0.821  0.1188 -0.1938  0.2102
 3885W        W22739   8.404  13.704  15.606 -0.0399  0.4053 -0.0884
 3886W        W22740  14.461   7.148  12.675  0.0122 -0.4227 -0.0058
 3887W        W22741  10.677  13.432   3.952  0.2302 -0.0775  0.0855
 3888W        W22742   3.099  13.627   0.535  0.2203  0.2597 -0.2268
 3889W        W22743   4.306   2.906  17.017 -0.0417  0.0445 -0.0129
 3890W        W22744  15.400  10.451  17.098 -0.1561  0.0014  0.0598
 3891W        W22745   6.582  13.947   4.697  0.0304  0.3455  0.1552
 3892W        W22746   0.088   4.810   3.366 -0.0345 -0.0372  0.0667
 3893W        W22747  10.277   8.530   2.344  0.0350  0.2654 -0.0829
 3894W        W22748   8.368   3.974   3.740 -0.2372  0.1356 -0.0196
 3895W        W22749  12.090  13.731  16.842  0.0789  0.2632 -0.2301
 3896W        W22750   3.607  11.016   4.896  0.2810 -0.1187  0.1021
 3897W        W22751  14.605   6.971   0.062  0.0539 -0.3083 -0.0387
 3898W        W22752  11.199   0.477  17.010 -0.0295 -0.0050  0.0540
 3899W        W22753  14.755  10.769  12.880 -0.0023  0.1421  0.4895
 3900W        W22754   0.774  12.223  13.423 -0.2149 -0.1078  0.0839
 3901W        W22755   6.358   5.785  14.818 -0.2574  0.0663  0.0496
 3902W        W22756  12.775   8.913   1.588 -0.1433  0.1518  0.0583
 3903W        W22757   6.236   5.124  17.450 -0.0194 -0.3219 -0.1681
 3904W        W22758   7.507  17.282   2.801  0.2578 -0.0405 -0.1042
 3905W        W22759   0.263  12.800   2.490  0.1021 -0.0400 -0.2215
 3906W        W22760  15.003   7.492   3.606 -0.1352  0.2571  0.2513
 3907W        W22761  12.420  12.737   4.111 -0.1070  0.1358  0.0221
 3908W        W22762  13.616   9.011  12.014  0.1547 -0.1182 -0.0351
 3909W        W22763   7.350   6.741  15.429 -0.0105  0.3600 -0.1279
 3910W        W22764   0.827  12.949  16.140  0.2072 -0.0258 -0.0731
 3911W        W22765   4.018  16.225   2.864 -0.0116  0.0916 -0.2005
 3912W        W22766  16.420   6.583  16.352  0.1288  0.1482 -0.3454
 3913W        W22767   1.330   2.576   0.226 -0.0062  0.0919  0.0177
 3914W        W22768  16.848  16.431  12.140 -0.0467  0.0390  0.0597
 3915W        W22769   7.060   6.035  15.917 -0.0393  0.1891  0.2946
 3916W        W22770   3.967  15.338  13.059 -0.2757  0.1619  0.0466
 3917W        W22771   3.390   2.581  14.387  0.0297 -0.1695  0.0601
 3918W        W22772  10.486  12.064   0.366 -0.0064 -0.1861  0.0675
 3919W        W22773   5.329   9.035  13.292 -0.0443  0.4723 -0.1475
 3920W        W22774   6.150   2.272  14.224 -0.0711  0.1120 -0.0723
 3921W        W22775  14.501   7.727  12.340 -0.1923 -0.0800 -0.1383
 3922W        W22776  11.806  15.679   0.719 -0.1139 -0.2476  0.0300
 3923W        W22777   6.214   3.664  15.072 -0.0717  0.0038 -0.1502
 3924W        W22778  10.586  16.923   3.389  0.0646  0.0877 -0.1641
 3925W        W22779   2.480   6.485  12.578  0.4926  0.1481  0.0259
 3926W        W22780   2.297   5.898  13.034 -0.0171  0.1709  0.2124
 3927W        W22781  11.748   5.495  13.475  0.1452 -0.1824 -0.0496
 3928W        W22782   4.606   3.403   5.199 -0.1008  0.0220 -0.1753
 3929W        W22783   8.193  11.956  13.236 -0.0607 -0.0640 -0.1984
 3930W        W22784   6.775   3.132   5.667  0.1703 -0.0158  0.0273
 3931W        W22785   1.695   1.010  12.778 -0.1174  0.2513  0.2027
 3932W        W22786  15.028   4.352  15.331 -0.0046  0.0105 -0.1192
 3933W        W22787  15.520  15.060   2.851 -0.0914  0.1843  0.2022
 3934W        W22788   6.454   9.124   2.411 -0.3040 -0.2657 -0.0416
 3935W        W22789   6.093   5.712  14.146  0.2023 -0.2471  0.0606
 3936W        W22790  14.143   8.875   0.087  0.0306  0.2002  0.3426
 3937W        W22791  16.617  15.642   3.220 -0.1331 -0.4559 -0.2845
 3938W        W22792  14.787   7.862   1.261 -0.0886  0.0105 -0.0615
 3939W        W22793  12.489  17.063   3.569  0.2994 -0.0286 -0.1793
 3940W        W22794  15.170  16.022   2.749  0.0121 -0.0953 -0.0121
 3941W        W22795  15.562   1.370   0.122  0.0430 -0.2227 -0.1307
 3942W        W22796   2.115  15.736  16.468  0.0111  0.0112  0.3851
 3943W        W22797   2.106   6.271   1.368 -0.0211  0.1192 -0.2093
 3944W        W22798  16.898  10.642  16.152  0.1941  0.2049 -0.4548
 3945W        W22799  16.383  12.319  13.811 -0.1170  0.2180  0.4278
 3946W        W22800  13.330   5.718  16.667  0.0625  0.0421  0.2327
 3947W        W22801  10.108   4.432   2.539  0.1491  0.2469 -0.3519
 3948W        W22802  13.924   3.532  15.188  0.0514 -0.2357 -0.0387
 3949W        W22803  13.138   0.308  16.448 -0.0639 -0.1575 -0.3485
 3950W        W22804   2.428  11.563   4.806  0.0679  0.3064  0.1493
 3951W        W22805   7.847  16.306   3.406 -0.0793  0.0319 -0.0023
 3952W        W22806  16.890  10.113  16.110 -0.0504 -0.0753 -0.1054
 3953W        W22807  10.301   2.864  13.432 -0.2403  0.1561 -0.2618
 3954W        W22808   5.904   4.768   0.672  0.0372 -0.0068  0.1595
 3955W        W22809   2.156   3.233   1.503 -0.1821 -0.1077  0.0639
 3956W        W22810   4.244   6.913   1.598  0.2178 -0.0524 -0.0389
 3957W        W22811   2.547  16.125   2.611  0.2126  0.0161  0.1568
 3958W        W22812  12.519  14.886   6.069 -0.2662 -0.1804  0.5327
 3959W        W22813   0.892   3.179  15.285  0.0993  0.0250  0.2327
 3960W        W22814   0.423   3.810   0.845 -0.1305  0.0533  0.3151
 3961W        W22815   7.720   4.302   1.942 -0.1861 -0.2843  0.0211
 3962W        W22816   5.621   0.687  16.021  0.0048 -0.0032  0.0887
 3963W        W22817  16.253   7.498   3.805 -0.0404 -0.0094 -0.2620
 3964W        W22818   2.464  13.904   5.261 -0.0432  0.0980 -0.4060
 3965W        W22819  14.904   9.984   3.416 -0.1395 -0.1403  0.1427
 3966W        W22820  10.941  12.077   2.175  0.0711  0.1034 -0.2039
 3967W        W22821  14.585   9.620   2.389 -0.0442  0.1705  0.0737
 3968W        W22822   6.856  12.685  17.174 -0.1482 -0.0258  0.0721
 3969W        W22823   6.798   4.904   0.165  0.3734 -0.4304 -0.2173
 3970W        W22824  14.451  15.225   2.136 -0.0209  0.0894 -0.0759
 3971W        W22825  13.769  10.685   0.081  0.0730  0.2512 -0.0246
 3972W        W22826   9.834  10.983  15.652 -0.1098 -0.1794  0.0841
 3973W        W22827  13.088   1.300  13.618  0.0176  0.0192  0.1043
 3974W        W22828   5.090   5.313  14.603  0.0704  0.1292  0.0978
 3975W        W22829   3.048   5.016  14.737  0.2763  0.3486  0.2146
 3976W        W22830   8.866   8.227  15.085 -0.4350 -0.2622  0.0514
 3977W        W22831  14.859   7.379  12.446  0.3531 -0.1548 -0.4870
 3978W        W22832  11.634  10.381   1.786  0.2325 -0.0724  0.0117
 3979W        W22833   6.862   0.088   1.075  0.1021  0.0196  0.0505
 3980W        W22834  17.069  11.589   0.433  0.0284 -0.0802  0.0677
 3981W        W22835  17.231   5.876   1.251  0.1130  0.0660 -0.2350
 3982W        W22836  14.150  14.773  16.553 -0.2124 -0.3246  0.2241
 3983W        W22837  11.715  10.797  15.674 -0.0985 -0.0693  0.0041
 3984W        W22838   3.525   7.255   0.587  0.1859 -0.1266 -0.0644
 3985W        W22839   5.853   0.192   0.805  0.0393 -0.0463  0.0249
 3986W        W22840   5.057  11.248   2.295 -0.0164 -0.0953  0.3922
 3987W        W22841   3.434  16.606  13.617  0.0240  0.0175  0.2664
 3988W        W22842   5.198   5.167  13.652 -0.1895 -0.1923 -0.1941
 3989W        W22843   6.838   5.975  14.479  0.1391  0.2360 -0.0946
 3990W        W22844  10.302   6.289   4.726 -0.0092  0.0057 -0.3358
 3991W        W22845  16.198  10.984   0.319 -0.2732 -0.1307 -0.0635
 3992W        W22846  14.091   2.659   1.900 -0.0019 -0.0451  0.4320
 3993W        W22847   1.644  10.394   1.353  0.1963 -0.0763 -0.1629
 3994W        W22848   0.465  16.303  12.731 -0.0526 -0.2504 -0.1704
 3995W        W22849   2.903   8.452   1.369  0.1860 -0.0551  0.3033
 3996W        W22850   7.837  15.698   1.910  0.1224  0.3300  0.0175
 3997W        W22851  14.686  10.803   0.209 -0.3062 -0.1953  0.1158
 3998W        W22852   1.222  14.613   4.740 -0.0362  0.0041  0.2174
 3999W        W22853   6.738   9.271  14.843 -0.2106 -0.1272 -0.0927
 4000W        W22854   8.286  12.241   6.202  0.4050  0.1072 -0.1567
 4001W        W22855   3.837  16.004  15.772 -0.1688  0.0216  0.1938
 4002W        W22856  16.913  14.108  14.944 -0.0440  0.0529  0.0742
 4003W        W22857   9.765   1.725   0.323  0.0524  0.1824 -0.0738
 4004W        W22858   3.804   8.225  12.731  0.0171  0.1026  0.0021
 4005W        W22859  15.806   4.877  17.214  0.2619  0.0993  0.2586
 4006W        W22860  16.523   7.584   6.412  0.2842 -0.0923  0.1309
 4007W        W22861  14.422  16.426   1.502 -0.1670 -0.4269 -0.0758
 4008W        W22862  16.021   7.993  14.243 -0.0432  0.1630  0.0408
 4009W        W22863   0.810   4.451  13.851  0.2548 -0.0218  0.0020
 4010W        W22864  16.168   0.704   1.791  0.1633 -0.2272 -0.0519
 4011W        W22865   0.650   4.673  16.382  0.0032  0.0968 -0.0753
 4012W        W22866   8.171  15.606   4.723  0.4967 -0.0715 -0.0939
 4013W        W22867   2.136   4.548   3.691  0.0399  0.1018  0.0981
 4014W        W22868   0.580  13.342  16.853  0.1228 -0.0088 -0.0284
 4015W        W22869   3.011   8.251   3.080  0.3110 -0.0910  0.0016
 4016W        W22870   2.136  10.152  14.099  0.0350  0.1867 -0.0583
 4017W        W22871   2.683   1.912  15.360  0.0915  0.1553 -0.0437
 4018W        W22872  10.660  10.242  13.434 -0.1129  0.1710  0.0708
 4019W        W22873   7.727  11.374  12.604  0.2660 -0.1359 -0.1026
 4020W        W22874   0.382   7.121  13.975  0.1236 -0.4031 -0.0030
 4021W        W22875   0.306   1.813   1.605 -0.0384 -0.0667 -0.3297
 4022W        W22876   6.067   7.573  16.582 -0.1700 -0.0206 -0.0298
 4023W        W22877  13.710  17.080  13.567 -0.0592  0.1073  0.2918
 4024W        W22878   4.216  16.353   1.727  0.2866  0.1613  0.0283
 4025W        W22879  12.266  10.958  16.883 -0.2038  0.3345 -0.1082
 4026W        W22880   9.392   8.447  17.140  0.1849 -0.1876 -0.1267
 4027W        W22881   0.080  17.073   3.687 -0.0977  0.2121  0.1931
 4028W        W22882  13.551   2.156  17.154 -0.1634  0.2217  0.0814
 4029W        W22883  10.072   0.275   3.872 -0.0437 -0.2721  0.1163
 4030W        W22884  15.252  15.606  15.978  0.1341 -0.0775 -0.0930
 4031W        W22885   8.696   1.098  16.683  0.1616 -0.0581  0.0375
 4032W        W22886   5.782   4.502  13.931  0.1295  0.0830  0.2303
 4033W        W22887   2.135   2.006  15.197 -0.2182  0.1238  0.1161
 4034W        W22888   4.886  13.249   0.901 -0.0275  0.0678  0.2158
 4035W        W22889  13.863   7.779  16.065  0.0293 -0.1026  0.0132
 4036W        W22890   8.758  14.012  11.973 -0.0447 -0.0474 -0.0266
 4037W        W22891   7.029   7.771   2.725 -0.3231  0.0167 -0.1583
 4038W        W22892   6.882  14.078  16.000  0.1946 -0.1254 -0.1382
 4039W        W22893   8.985   1.200   2.359  0.0588  0.0046 -0.1115
 4040W        W22894  14.761   3.335   0.966 -0.2782 -0.2242 -0.1383
 4041W        W22895   7.590   9.631  17.035  0.1480  0.1234 -0.1846
 4042W        W22896   9.746  11.462   4.769 -0.1444 -0.1462  0.0841
 4043W        W22897   1.126  13.120   3.807  0.3002 -0.0194 -0.2581
 4044W        W22898   9.175   0.777   4.298  0.0913 -0.2597 -0.0180
 4045W        W22899  12.360  12.355   0.806  0.1029 -0.1831  0.2222
 4046W        W22900   8.445   0.846  16.011 -0.0230 -0.0624  0.0097
 4047W        W22901  15.075   2.539   4.411  0.1470  0.1032 -0.0500
 4048W        W22902   4.539   1.383   0.958 -0.0883 -0.1504 -0.0125
 4049W        W22903  13.254   8.378   3.546 -0.1209 -0.2439 -0.1191
 4050W        W22904   2.913   6.773  15.042 -0.1344  0.3700 -0.1972
 4051W        W22905  10.693  10.882   4.068  0.2109  0.0382  0.2664
 4052W        W22906   7.501   6.308  15.686  0.1873 -0.1805  0.1599
 4053W        W22907  11.702   3.268   3.101  0.0456 -0.0150  0.0478
 4054W        W22908  16.193  12.063   1.841 -0.1265  0.0763 -0.0460
 4055W        W22909   3.459   0.869  17.173 -0.2693  0.1625  0.1493
 4056W        W22910  14.067  10.396  14.924  0.0759  0.1761  0.0672
 4057W        W22911   1.496   8.880  14.797  0.1445  0.1123 -0.1782
 4058W        W22912  11.147  12.564   3.585 -0.0213 -0.0006 -0.3920
 4059W        W22913  17.264  12.678  12.368  0.0421 -0.1213 -0.0029
 4060W        W22914  10.371   1.519   5.230  0.3009  0.0939  0.1725
 4061W        W22915   3.911  15.619   0.490  0.0192  0.1003 -0.2666
 4062W        W22916   6.535  16.232  17.079 -0.3432 -0.0320  0.0596
 4063W        W22917  12.864   4.365  15.937  0.2116 -0.1301 -0.0947
 4064W        W22918  10.581   8.867   3.347 -0.0569  0.1427 -0.2982
 4065W        W22919  12.578  11.614  13.260 -0.1975 -0.1864  0.0980
 4066W        W22920   0.439   7.020  12.666  0.0888 -0.0294  0.3460
 4067W        W22921  12.849   2.958   1.822 -0.1895 -0.1087 -0.0762
 4068W        W22922   0.212  12.198   1.733 -0.3146 -0.0193 -0.2072
 4069W        W22923   5.215   4.514  16.447  0.1542 -0.3074 -0.4278
 4070W        W22924   7.355  14.240   0.911 -0.0389 -0.1968  0.2235
 4071W        W22925   6.899   6.793  15.135 -0.1478  0.0004 -0.3414
 4072W        W22926  11.803   5.414  16.599 -0.4737 -0.0624 -0.0542
 4073W        W22927   2.450   5.876   3.392  0.2510  0.1391 -0.2468
 4074W        W22928   9.013   0.386   2.108 -0.0221  0.0021 -0.0397
 4075W        W22929   6.920  12.597   4.936 -0.2212 -0.2651  0.0121
 4076W        W22930   8.515  13.370   2.756 -0.1437  0.1154  0.1519
 4077W        W22931   5.404  13.316  15.483  0.1467 -0.0454  0.3099
 4078W        W22932   7.046  12.558   3.774  0.0858  0.1848 -0.2310
 4079W        W22933  12.358   8.482   1.411 -0.0606 -0.0077 -0.2517
 4080W        W22934   8.101  15.389   2.372  0.2695 -0.0970 -0.2227
 4081W        W22935  11.217  10.187  13.543  0.1171  0.0695 -0.1277
 4082W        W22936  13.826  13.362   5.223 -0.2679  0.0858 -0.2063
 4083W        W22937   3.610   4.425  14.394  0.1086 -0.3256 -0.0669
 4084W        W22938  10.109   9.866   1.867 -0.0403  0.1122 -0.0696
 4085W        W22939   9.612  11.911   0.907 -0.0757 -0.1091 -0.1759
 4086W        W22940  17.230   8.361   3.387 -0.0837  0.1085  0.1104
 4087W        W22941   7.996   0.079  12.767 -0.1626  0.0158  0.1148
 4088W        W22942   9.917  14.152  13.293  0.0968  0.0308  0.0652
 4089W        W22943  15.268   4.692  17.225 -0.1288 -0.2316  0.0871
 4090W        W22944   0.086  16.689  16.874  0.1297  0.1750  0.1108
 4091W        W22945   0.348   9.781   0.232 -0.1522 -0.0848 -0.1040
 4092W        W22946   3.680  13.019  14.889 -0.1653 -0.0046  0.2215
 4093W        W22947   6.912  16.415  17.339  0.3609  0.1966 -0.0332
 4094W        W22948   9.051  12.405  13.653 -0.0986 -0.0839 -0.0436
 4095W        W22949   5.232   7.225   1.041  0.0941  0.1132  0.3987
 4096W        W22950   9.051  10.646   1.938  0.2345 -0.0189 -0.2568
 4097W        W22951  16.014  10.692  14.157 -0.2454  0.0186  0.1413
 4098W        W22952   9.860  10.054   0.135  0.0394 -0.2529 -0.0872
 4099W        W22953   9.273  11.298   1.499  0.0903 -0.0756  0.0478
 4100W        W22954   7.579  10.102  14.018  0.0284 -0.1246  0.0770
 4101W        W22955  12.949   0.881  17.272 -0.0383 -0.0852 -0.3445
 4102W        W22956   8.387  16.105  14.765  0.0474  0.0544 -0.1705
 4103W        W22957   3.954  17.069   2.494  0.2094  0.0591 -0.0603
 4104W        W22958   8.796   6.119  14.758  0.1418  0.1663 -0.0522
 4105W        W22959   0.726  12.642   6.241  0.1326  0.1291 -0.0439
 4106W        W22960  15.539   9.323  12.456  0.2469  0.3005 -0.0090
 4107W        W22961   6.402  10.522  13.205 -0.0958 -0.4051 -0.0170
 4108W        W22962  12.906  11.434   2.010 -0.0993 -0.3111  0.1102
 4109W        W22963  11.871  10.422   4.085 -0.1322  0.0393 -0.0881
 4110W        W22964  14.272  10.587   4.099 -0.3289 -0.1647 -0.1036
 4111W        W22965   6.160  13.810   2.424 -0.1112 -0.0006  0.0194
 4112W        W22966  17.342   2.082  16.443 -0.0770 -0.1857 -0.1672
 4113W        W22967   8.535   8.491   1.956  0.1989  0.1434 -0.0467
 4114W        W22968   6.856  14.345   2.502  0.0393  0.2011  0.0230
 4115W        W22969   9.137  13.310  15.089 -0.2123 -0.0611 -0.1538
 4116W        W22970  10.524  15.548   4.825  0.1317  0.1971  0.2513
 4117W        W22971  13.743   9.200   0.856 -0.0072 -0.0103 -0.0589
 4118W        W22972   3.200   8.560  13.499  0.0066 -0.1099 -0.0727
 4119W        W22973   1.257  15.001   5.521 -0.2282  0.0782 -0.0396
 4120W        W22974   9.408   5.439  13.767 -0.1692  0.2705  0.1794
 4121W        W22975   2.089   4.478   1.061  0.2274 -0.1128  0.2768
 4122W        W22976   0.322   0.298   0.932  0.0847 -0.2941 -0.5216
 4123W        W22977   7.761   1.361  16.310  0.2210 -0.1858 -0.1822
 4124W        W22978   0.627  14.730   4.263 -0.0544 -0.1256 -0.0989
 4125W        W22979  13.091  10.087  15.979 -0.2230  0.2544  0.0460
 4126W        W22980   9.115  17.228   5.160  0.1817 -0.0090 -0.1534
 4127W        W22981   9.511  10.231  16.037 -0.1061 -0.2111 -0.1229
 4128W        W22982  12.195   6.287  13.795 -0.1041  0.0881  0.2564
 4129W        W22983   2.488  11.641   0.649 -0.0282 -0.0629  0.0541
 4130W        W22984   1.284   8.972   1.255 -0.3221 -0.0614  0.1506
 4131W        W22985   4.796   8.136  16.182  0.0355  0.1025 -0.1148
 4132W        W22986  12.786  12.980   2.965  0.1149 -0.3308 -0.0314
 4133W        W22987  11.232   6.843   2.718  0.1305  0.0784 -0.0525
 4134W        W22988   8.623   5.599   2.248  0.0506  0.1972  0.1470
 4135W        W22989   5.700  10.090  13.788 -0.0810  0.0089 -0.3217
 4136W        W22990  15.986   6.181  17.340 -0.0113 -0.2409  0.0223
 4137W        W22991   8.788   2.299   0.186  0.0737  0.5689  0.3799
 4138W        W22992  10.136  13.796  12.641 -0.1357  0.1504  0.1624
 4139W        W22993   8.785   8.459   3.926  0.1009 -0.2851 -0.0418
 4140W        W22994  16.109  10.710  16.444 -0.0104  0.0494  0.0030
 4141W        W22995   1.137   2.838   3.882  0.0583 -0.0218 -0.0075
 4142W        W22996   9.610   1.465   2.936 -0.1519 -0.1757  0.3499
 4143W        W22997   4.124  10.672   4.214  0.0462  0.0891  0.1996
 4144W        W22998   4.053   6.426   0.263 -0.0788  0.1809 -0.1925
 4145W        W22999   7.614  12.018   1.452 -0.1570  0.0309 -0.0014
 4146W        W23000   9.948   6.856  13.664  0.0749  0.2568  0.2251
 4147W        W23001  10.756   4.754  13.692 -0.0557  0.0924 -0.0818
 4148W        W23002  12.828   1.901  12.837 -0.0066 -0.3750  0.0962
 4149W        W23003   7.536   9.973   2.418 -0.2621 -0.0670 -0.2398
 4150W        W23004  17.002   3.988  12.759 -0.1550 -0.4107 -0.1067
 4151W        W23005   5.495   1.375   3.618  0.1502  0.0704 -0.1082
 4152W        W23006   2.500  16.988   1.228 -0.2043 -0.0459 -0.1226
 4153W        W23007  17.093   5.198  15.704 -0.1535  0.0287  0.3307
 4154W        W23008   5.554   3.874  12.078 -0.1249  0.2313  0.0686
 4155W        W23009   2.263   1.875   2.394 -0.1158  0.2568  0.1968
 4156W        W23010  14.001   8.261  16.222 -0.0577  0.0608  0.2267
 4157W        W23011  16.511   8.332  14.581 -0.2406 -0.1792  0.1934
 4158W        W23012   8.447   1.896   4.724 -0.0535 -0.2448 -0.0809
 4159W        W23013   4.940  16.552  11.307 -0.0173 -0.1294 -0.1991
 4160W        W23014   7.216   3.923   2.803 -0.1099 -0.1792 -0.2022
 4161W        W23015   8.890   4.781  13.005  0.1363  0.0193  0.2959
 4162W        W23016   6.206   3.236   2.272 -0.0141 -0.4830 -0.0843
 4163W        W23017   0.708  11.056   6.059  0.0657  0.4399  0.1681
 4164W        W23018  12.484  15.011  12.437  0.2257  0.1759  0.3398
 4165W        W23019  13.489  13.751   5.040 -0.1958  0.2054 -0.0236
 4166W        W23020   9.701   5.333   5.437  0.0775 -0.1270 -0.0970
 4167W        W23021  12.381   9.423   3.830 -0.2747  0.1576  0.0948
 4168W        W23022  13.129  14.349   2.907 -0.0035 -0.0142 -0.0323
 4169W        W23023  16.029   0.011  13.337 -0.1475 -0.0709 -0.2576
 4170W        W23024   7.021   1.348  16.673  0.3068  0.0837 -0.1865
 4171W        W23025   6.146  11.712   1.432  0.0940  0.2031  0.2821
 4172W        W23026   6.346   3.728   0.622 -0.4695 -0.0901  0.0417
 4173W        W23027   8.406  10.080  13.438  0.0444 -0.0638 -0.1600
 4174W        W23028   3.257  15.775   2.919 -0.0409 -0.1767  0.3978
 4175W        W23029   4.106   6.264  15.693 -0.3013 -0.0764  0.1951
 4176W        W23030   3.035   2.856   2.522 -0.1266 -0.0804 -0.1676
 4177W        W23031   6.752   4.536   4.328  0.2434 -0.1025 -0.1762
 4178W        W23032   3.896  13.627   0.076  0.0828 -0.0496 -0.1529
 4179W        W23033  10.648  16.270  13.165  0.0760  0.0638 -0.2219
 4180W        W23034  14.043   0.369  16.810 -0.1957 -0.0365  0.0656
 4181W        W23035   9.630   0.049   1.555 -0.0824  0.2042 -0.0058
 4182W        W23036  16.208   2.212   0.730  0.2436 -0.2621  0.0255
 4183W        W23037  15.523   6.314  13.289 -0.0490  0.0927 -0.1967
 4184W        W23038   4.479   9.773   3.369  0.1654 -0.2577  0.1525
 4185W        W23039   4.524  14.688   3.949 -0.3582  0.0989  0.1342
 4186W        W23040   8.828   3.888  12.649 -0.2484 -0.1671 -0.0318
 4187W        W23041  10.783   0.131  13.137 -0.0881  0.1455  0.1188
 4188W        W23042   6.767   8.542  14.222  0.0485  0.1290 -0.1665
 4189W        W23043  10.513   3.644  14.225  0.3480 -0.0132  0.3922
 4190W        W23044  11.135  10.688  16.274 -0.2778  0.2441  0.0338
 4191W        W23045   0.940   5.204   3.348 -0.3445 -0.0340 -0.1891
 4192W        W23046   3.442   5.924  14.608 -0.0807 -0.0776  0.1908
 4193W        W23047   1.971   7.997   3.294 -0.0128  0.2561 -0.2530
 4194W        W23048  16.729  11.012   2.875  0.2208 -0.2646 -0.1978
 4195W        W23049   7.883  12.301  12.590 -0.0784 -0.0353 -0.2846
 4196W        W23050  14.343  14.492  14.254  0.0300  0.0256 -0.1055
 4197W        W23051   3.523   8.032   1.603  0.0627 -0.0601 -0.2794
 4198W        W23052   4.753  10.719   3.385 -0.2388 -0.2988  0.0207
 4199W        W23053  14.391   3.927  16.018 -0.1590  0.3544  0.0912
 4200W        W23054  11.008   7.972   1.445 -0.1651  0.0696 -0.0766
 4201W        W23055   3.271   5.611   2.331 -0.2854  0.0815 -0.3499
 4202W        W23056  13.205   9.795   0.350  0.0316  0.1153 -0.0295
 4203W        W23057  12.726   7.238  13.772 -0.0523  0.1437  0.0244
 4204W        W23058   0.156   4.184   0.597 -0.0866 -0.2278  0.2218
 4205W        W23059   3.823   2.098   1.625 -0.2456  0.0564 -0.0007
 4206W        W23060   2.274  13.298  13.164 -0.3105 -0.6349  0.1543
 4207W        W23061   6.328   7.002   3.453  0.0908  0.5140  0.0848
 4208W        W23062   1.730   9.857   2.572  0.0804  0.0757 -0.0385
 4209W        W23063   8.138   7.241   1.313 -0.1959  0.3267 -0.0447
 4210W        W23064  16.411  13.732  15.056 -0.0868 -0.0025  0.1064
 4211W        W23065  10.209   7.196   0.265  0.1037  0.2681 -0.1258
 4212W        W23066   3.143  15.777   1.869  0.1086  0.1045 -0.2347
 4213W        W23067   8.128  10.785   2.703  0.1693  0.1146 -0.3666
 4214W        W23068   8.171   0.119   1.577 -0.2326  0.1465 -0.0390
 4215W        W23069  16.027  16.977   1.455  0.1780 -0.0334 -0.1858
 4216W        W23070   7.255  15.730   5.099 -0.2666 -0.3370 -0.1985
 4217W        W23071  17.291   3.869   4.318 -0.0186  0.1642  0.1095
 4218W        W23072   0.192   4.174  13.939  0.0419 -0.3025 -0.0804
 4219W        W23073  13.969   5.603  15.811 -0.0466  0.0790  0.0827
 4220W        W23074   6.101   8.819   0.295 -0.2387  0.1369  0.2907
 4221W        W23075   7.380   0.934  12.810 -0.1231 -0.0158 -0.2363
 4222W        W23076   0.358  14.754   5.097  0.2216  0.1654  0.4118
 4223W        W23077  10.965  10.206  17.144 -0.2031  0.1436 -0.2314
 4224W        W23078  15.972   6.057  11.939  0.0158 -0.5473 -0.2058
 4225W        W23079  16.827   3.058   0.331 -0.0690 -0.1291  0.0151
 4226W        W23080   7.765   3.077   0.274  0.2596  0.0454  0.2288
 4227W        W23081  15.671  11.063   0.318  0.2188 -0.0072 -0.3273
 4228W        W23082   4.813  15.051  15.167 -0.0313 -0.1117 -0.1372
 4229W        W23083  10.718   6.146   0.670 -0.1943 -0.0067  0.0236
 4230W        W23084   4.064  17.229   1.293  0.1683  0.0153 -0.1487
 4231W        W23085   4.471  10.860   0.643  0.1269  0.0032  0.0765
 4232W        W23086   4.729   6.357  16.527 -0.1248 -0.1156 -0.2606
 4233W        W23087   0.028  11.360  13.594  0.1359  0.3131 -0.1303
 4234W        W23088  16.500  15.027  17.002  0.1204  0.1570  0.0234
 4235W        W23089  12.220  14.305  17.014 -0.3119  0.5152 -0.0639
 4236W        W23090   5.708  15.729   1.032 -0.0934  0.2445 -0.0073
 4237W        W23091  10.221  16.471   3.936 -0.2089  0.0767  0.1375
 4238W        W23092  14.856  12.184  15.358 -0.0148 -0.2990 -0.1234
 4239W        W23093  12.785   2.083  14.683  0.2770  0.1127 -0.4098
 4240W        W23094  15.995   0.460   3.483  0.0392 -0.0185  0.1130
 4241W        W23095   7.799  10.893   3.094  0.0452 -0.1393 -0.1913
 4242W        W23096  10.529  12.315  14.992  0.1933  0.1462 -0.0621
 4243W        W23097   9.239   6.438   1.266 -0.1802  0.2193 -0.1076
 4244W        W23098  14.239  12.788   0.593  0.1786  0.2368 -0.0256
 4245W        W23099   1.991  14.486  16.678 -0.1631  0.0931  0.2441
 4246W        W23100  15.994   9.312  15.231 -0.2076 -0.0656  0.0984
 4247W        W23101  15.288   9.694  13.507 -0.1582 -0.0335  0.1734
 4248W        W23102   2.034   5.727   3.601  0.0873  0.0851  0.2667
 4249W        W23103  17.185   1.285   2.286 -0.1432 -0.0842  0.2007
 4250W        W23104   2.195   4.219  11.886 -0.0374 -0.0733 -0.0260
 4251W        W23105   5.225  13.323  16.288  0.1530 -0.0507 -0.0555
 4252W        W23106  14.240   2.628  12.177 -0.0604  0.2565 -0.0945
 4253W        W23107  16.322  16.216   1.399 -0.1748 -0.0003 -0.0179
 4254W        W23108   8.151  16.180   1.892  0.1707 -0.2656 -0.0612
 4255W        W23109  17.304  12.210  12.463 -0.1206  0.1147 -0.1193
 4256W        W23110   0.711  13.775  16.608 -0.1772  0.0038  0.2751
 4257W        W23111   0.822   1.290  13.743  0.0308  0.0766  0.1458
 4258W        W23112  10.589   3.350   2.695 -0.0258 -0.1109 -0.1298
 4259W        W23113  12.293  16.187  16.760 -0.2668  0.3091 -0.0504
 4260W        W23114   9.902   4.821  15.354  0.3873 -0.1413 -0.2309
 4261W        W23115   1.886  16.130   2.875 -0.2080 -0.0814 -0.1691
 4262W        W23116   4.400   7.554  13.043 -0.1764  0.3763 -0.1758
 4263W        W23117   7.184  11.069  16.844  0.0789  0.1697 -0.0630
 4264W        W23118   8.127   0.542  16.749  0.0980  0.1037  0.2048
 4265W        W23119   6.689   0.958  15.178 -0.0480 -0.2031  0.0448
 4266W        W23120  16.494   1.574  15.328 -0.3500 -0.1646 -0.1246
 4267W        W23121  17.136  12.384  12.004 -0.0312 -0.1181 -0.3168
 4268W        W23122   6.084   7.210   4.552 -0.0680 -0.1537  0.0270
 4269W        W23123   7.341  16.141  16.393 -0.0925 -0.0218 -0.0961
 4270W        W23124   7.656  16.382  15.436 -0.0760 -0.3363  0.0530
 4271W        W23125   8.277   6.135  16.606  0.2397  0.2634 -0.1806
 4272W        W23126   0.634  13.060  14.508 -0.1733 -0.0174  0.0675
 4273W        W23127   3.024  12.638   1.984 -0.3787  0.3004  0.1410
 4274W        W23128  12.491  17.221  15.851  0.0307  0.1715  0.0313
 4275W        W23129   8.844   2.166   4.415  0.2427  0.1327 -0.1232
 4276W        W23130  12.823   8.134   3.737  0.3027 -0.1052  0.2157
 4277W        W23131  16.640   8.820  16.596 -0.1687 -0.0580 -0.2657
 4278W        W23132   3.759   8.493  14.038 -0.2173  0.0375  0.2508
 4279W        W23133   8.367  13.506   3.829  0.3419 -0.1788  0.0880
 4280W        W23134   2.442  13.209  15.376  0.0362 -0.1953 -0.0895
 4281W        W23135   0.612   0.946   2.127  0.0764  0.1182  0.0182
 4282W        W23136   4.876   5.754  15.810  0.2266 -0.1256 -0.1032
 4283W        W23137   4.796  10.725   5.487  0.1075  0.5286  0.1431
 4284W        W23138  11.865   1.383  13.751 -0.0805 -0.0598 -0.2534
 4285W        W23139   9.907   6.591   4.607 -0.3347 -0.1799 -0.2196
 4286W        W23140   7.150   3.558   3.683  0.0394 -0.2137 -0.0596
 4287W        W23141  16.752  11.713   4.953  0.0328  0.0111 -0.1523
 4288W        W23142   5.120  10.880   3.781 -0.0608  0.0909 -0.1283
 4289W        W23143   5.371   2.283   1.740  0.1702  0.2548 -0.2214
 4290W        W23144   5.256   2.056   4.701  0.2301 -0.1723  0.5074
 4291W        W23145   7.190   3.318   4.220  0.5984 -0.1456 -0.1369
 4292W        W23146   5.227   0.889  15.025  0.0120 -0.6534  0.2016
 4293W        W23147   2.044  15.239   1.766  0.2124  0.3753  0.0246
 4294W        W23148   2.416   0.767  14.379 -0.0995 -0.2448 -0.2574
 4295W        W23149   1.641   9.462  14.764  0.0794 -0.3511 -0.0817
 4296W        W23150   9.013   2.890   0.247  0.1009  0.1533  0.3262
 4297W        W23151  10.687  16.449   4.317 -0.3894 -0.1472  0.3924
 4298W        W23152   3.702  10.618  16.777 -0.1149 -0.2673  0.0390
 4299W        W23153  16.538   2.924   2.850 -0.0357  0.2782  0.1666
 4300W        W23154   6.659   5.429   4.507 -0.1798 -0.1593  0.4353
 4301W        W23155   0.306  12.091  13.676 -0.0079 -0.1157 -0.1712
 4302W        W23156  11.538   2.717  17.201 -0.0461  0.0993 -0.1450
 4303W        W23157   5.522   8.555  13.877  0.0396  0.1504 -0.1401
 4304W        W23158   9.865   5.185  15.822 -0.0587  0.4805  0.2549
 4305W        W23159   7.704   3.127   1.538  0.0782  0.0111  0.1747
 4306W        W23160  12.200  16.375   0.280  0.0954  0.1254 -0.2064
 4307W        W23161  11.654   7.720  13.961 -0.2397 -0.0350 -0.1421
 4308W        W23162   8.685  12.998  14.257  0.1535 -0.0249  0.0988
 4309W        W23163   9.405  11.407  17.405 -0.1274  0.0200  0.2412
 4310W        W23164  17.332  13.569   0.908  0.1570 -0.0925 -0.0584
 4311W        W23165   7.990  11.648   1.665  0.2543  0.1280 -0.2189
 4312W        W23166   1.707   2.976   1.668 -0.0516 -0.1423 -0.2195
 4313W        W23167   4.824  12.207  15.032 -0.2063 -0.1364  0.0660
 4314W        W23168  16.383  16.507  13.552  0.0434 -0.0055  0.0849
 4315W        W23169  16.369   4.794  16.222  0.1336  0.1751 -0.1379
 4316W        W23170  10.438   7.291  13.707 -0.1754 -0.0805 -0.3239
 4317W        W23171   8.711  14.690   4.513 -0.1664 -0.2363  0.1528
 4318W        W23172   4.055  14.910  13.745 -0.1399 -0.0875  0.0538
 4319W        W23173   4.720   5.936  15.245  0.0203  0.0370 -0.4662
 4320W        W23174   0.987   0.811   0.261  0.2883 -0.0849  0.0266
 4321W        W23175   9.447   7.822  11.651  0.2415 -0.1522 -0.1358
 4322W        W23176   0.770   5.403  13.277 -0.3446  0.0123 -0.2608
 4323W        W23177  12.873  13.845  15.438 -0.1796  0.1527 -0.1425
 4324W        W23178   4.921   2.764  13.238 -0.1920  0.1445  0.1204
 4325W        W23179   7.749  17.028  16.274 -0.2753  0.0569  0.0602
 4326W        W23180  11.843   5.278   3.155  0.0143  0.1541 -0.0390
 4327W        W23181   1.718   8.997   6.108 -0.0364  0.0215  0.1236
 4328W        W23182   3.896   2.252  12.643  0.1132  0.1866 -0.2476
 4329W        W23183  14.116   5.393   4.059 -0.1360  0.0541 -0.2251
 4330W        W23184  13.264   8.554   2.578  0.0894 -0.2507  0.0836
 4331W        W23185  17.193   5.032  15.176  0.0372 -0.3161  0.1865
 4332W        W23186  12.439  13.657   1.779  0.0031 -0.1241 -0.2911
 4333W        W23187   0.718   2.938  16.461  0.0918  0.0243 -0.1342
 4334W        W23188  11.902   4.255  14.130  0.0371 -0.0463 -0.2119
 4335W        W23189  11.040  14.815   2.068  0.0345  0.0476  0.0618
 4336W        W23190  11.786   4.383   2.377 -0.2326 -0.2970  0.0490
 4337W        W23191   2.106   9.927  13.672  0.0680  0.1012 -0.0718
 4338W        W23192  14.689   7.945   5.430 -0.3412  0.2140 -0.0658
 4339W        W23193  11.258  15.736  16.389  0.0094  0.0679 -0.0180
 4340W        W23194   0.325   9.416  17.273 -0.1295 -0.1988  0.0878
 4341W        W23195  12.929   4.561   1.579 -0.1111  0.0008 -0.3265
 4342W        W23196   8.265   4.226  13.205  0.0874  0.1625 -0.0222
 4343W        W23197  14.657   1.547   3.362  0.1415  0.2001 -0.1374
 4344W        W23198  16.649  10.526   4.990 -0.2635  0.1552  0.0821
 4345W        W23199   6.092  17.190   4.763  0.0184  0.0664  0.0419
 4346W        W23200  15.396   2.321  11.951 -0.3820 -0.0351  0.4017
 4347W        W23201  15.793   7.327  16.138  0.1217  0.0040  0.0350
 4348W        W23202  11.361  13.198   0.637 -0.0647 -0.2024  0.2201
 4349W        W23203   0.368   7.194   1.097  0.0178 -0.0350  0.1837
 4350W        W23204  15.239  12.909   2.703  0.1594  0.3019  0.1894
 4351W        W23205  11.088  12.704   2.667 -0.4609  0.0840 -0.0899
 4352W        W23206   3.687   3.666  17.153  0.3216  0.0547 -0.2641
 4353W        W23207  11.188   5.948  16.586  0.0613 -0.3061 -0.2029
 4354W        W23208   5.710   9.745  16.828  0.0891 -0.3802 -0.2235
 4355W        W23209   7.551   2.887   4.201 -0.0808  0.1415  0.2355
 4356W        W23210   7.615  10.992   0.364 -0.2086 -0.1975  0.2988
 4357W        W23211   8.891   5.245   5.051 -0.1687  0.3339  0.1058
 4358W        W23212  10.642  13.208   4.392  0.0258 -0.0365 -0.3113
 4359W        W23213  15.184  16.310  12.830 -0.0772  0.1608  0.0058
 4360W        W23214  16.382   9.666   0.329  0.1023  0.1555 -0.3052
 4361W        W23215  10.836   3.122  16.139 -0.0705  0.1709  0.1363
 4362W        W23216  13.297   0.343  12.281  0.0685  0.1256 -0.1120
 4363W        W23217   2.315   8.877   4.149  0.3637  0.4571  0.0225
 4364W        W23218   0.302   7.884   3.775 -0.1490 -0.1848  0.0572
 4365W        W23219  16.485   6.988   1.044  0.2536 -0.1005 -0.0570
 4366W        W23220   8.433  16.817   4.689  0.0427 -0.2790 -0.1545
 4367W        W23221  12.769   6.715   1.775  0.4232  0.0593  0.0500
 4368W        W23222   9.548  10.447  17.385  0.0026 -0.3816 -0.0055
 4369W        W23223  15.915   8.857   0.104 -0.0045 -0.1835 -0.0263
 4370W        W23224  12.199   9.703   2.607  0.1943  0.0226 -0.0743
 4371W        W23225   8.137   9.875   1.633  0.0792 -0.0890 -0.0351
 4372W        W23226   6.407   9.863   0.981 -0.2725  0.1571 -0.2081
 4373W        W23227   5.180  12.882  17.097 -0.0551 -0.1812 -0.0332
 4374W        W23228   1.133  15.103   4.847  0.0903 -0.3868  0.2969
 4375W        W23229   1.711   6.610   5.328 -0.0538  0.0370  0.0943
 4376W        W23230  13.451   1.301  15.515 -0.2046  0.3222 -0.2344
 4377W        W23231   1.245   6.826   3.371  0.2633 -0.0520 -0.0592
 4378W        W23232   8.929   3.415   3.971  0.0509 -0.1128  0.0753
 4379W        W23233  16.917  12.625   4.636 -0.0874 -0.2020  0.0195
 4380W        W23234   5.374  13.139  14.155  0.1189 -0.1364  0.1468
 4381W        W23235   9.253  16.460   4.080  0.0844 -0.2733  0.1680
 4382W        W23236   6.283   6.743   2.720  0.3290  0.0040 -0.2009
 4383W        W23237   5.514   6.180   4.362 -0.0449 -0.0123 -0.1566
 4384W        W23238  16.526  11.387  14.907 -0.1503  0.0335  0.2153
 4385W        W23239  12.943  15.990  13.354  0.0570 -0.1579  0.1213
 4386W        W23240   3.141   6.330  14.675 -0.0046  0.4585 -0.0544
 4387W        W23241   2.248   8.318  12.691 -0.1033 -0.1080 -0.1533
 4388W        W23242   7.674  16.428  14.337 -0.0982  0.0886 -0.2751
 4389W        W23243   3.113  11.116   5.010 -0.2552 -0.0742 -0.0863
 4390W        W23244   9.976   2.013   4.641 -0.0288 -0.4107 -0.0687
 4391W        W23245   6.456   4.174  12.394  0.1297  0.0318 -0.0026
 4392W        W23246   4.898   1.087  16.038 -0.0455 -0.1482  0.1470
 4393W        W23247  15.191   1.044   4.425 -0.1727  0.1603  0.0755
 4394W        W23248  12.232   4.873   3.429  0.0164 -0.0193  0.3362
 4395W        W23249   4.372  11.719   1.112  0.2604 -0.0212  0.1499
 4396W        W23250   7.587  13.993  13.930 -0.1227  0.0250  0.2703
 4397W        W23251   1.762   8.936   1.090  0.0733  0.2461 -0.0106
 4398W        W23252   1.913   4.211   4.033  0.2468 -0.1550 -0.1558
 4399W        W23253  13.805   4.600  17.327 -0.1933  0.3199 -0.3119
 4400W        W23254  12.087   6.967  14.586  0.1741 -0.1212  0.1799
 4401W        W23255   9.359  13.311  13.232 -0.1211  0.0964  0.1205
 4402W        W23256   4.895  13.739   0.174  0.2735 -0.2596  0.1773
 4403W        W23257  14.070  13.258  14.759 -0.2751 -0.0215 -0.0807
 4404W        W23258  14.862   9.742  14.744  0.0769 -0.2148  0.2018
 4405W        W23259  10.672  11.077  16.836  0.0539 -0.1879  0.1288
 4406W        W23260   6.699  12.388  16.397  0.0737 -0.2392  0.0641
 4407W        W23261   6.054   0.487  16.212 -0.2072  0.1458 -0.1491
 4408W        W23262   4.678  15.873   4.150  0.4315 -0.1983 -0.1656
 4409W        W23263   4.854   7.205   4.987  0.2590 -0.1934  0.2730
 4410W        W23264  15.611  13.402  17.189  0.0494 -0.1099  0.4801
 4411W        W23265   4.920   4.665  16.882  0.0449  0.2433 -0.0389
 4412W        W23266  13.469  11.647  13.701 -0.3755 -0.0747  0.0167
 4413W        W23267   2.377  13.463  14.901  0.0107 -0.1083 -0.1244
 4414W        W23268  13.207  15.804  13.824  0.0324 -0.3053  0.1492
 4415W        W23269   9.839   2.462   0.802  0.1241 -0.1495 -0.0467
 4416W        W23270  12.341   2.962   3.637  0.3542 -0.1841 -0.2412
 4417W        W23271  15.952  13.941  16.321  0.1322 -0.0183 -0.0467
 4418W        W23272   3.616   6.125  15.106  0.0644 -0.1372  0.3134
 4419W        W23273  14.423   5.735  12.744 -0.0251  0.2247  0.0805
 4420W        W23274   8.624   4.849   5.283 -0.0453  0.2520 -0.2702
 4421W        W23275  12.503  10.242  15.808 -0.2907  0.2692  0.1140
 4422W        W23276  10.234  10.329  12.080 -0.0353 -0.0732 -0.0039
 4423W        W23277  11.409  13.301  15.437 -0.1553 -0.0651 -0.1954
 4424W        W23278   6.051   9.125   3.703 -0.1521 -0.2345  0.2978
 4425W        W23279   4.912   0.368   1.149  0.2775  0.1561 -0.2023
 4426W        W23280  17.271   3.941   3.423  0.1561  0.4317 -0.0331
 4427W        W23281   9.001  11.096  15.997 -0.2015 -0.0306 -0.0076
 4428W        W23282  11.530   5.071  16.382 -0.1262  0.2754  0.1626
 4429W        W23283   3.968   4.957   1.750  0.1384 -0.3138  0.0648
 4430W        W23284  10.359  11.508  16.970  0.1144  0.1583  0.1876
 4431W        W23285   9.945   9.230  15.419 -0.2069  0.2205 -0.0582
 4432W        W23286  11.588  10.432   2.289  0.1228 -0.1261  0.1678
 4433W        W23287   0.932   8.863  11.464 -0.2226 -0.1687  0.2770
 4434W        W23288  15.243   5.102   3.010 -0.2445  0.2178  0.1066
 4435W        W23289   0.315   4.333  15.604 -0.0402 -0.1434 -0.1677
 4436W        W23290  11.087  11.571   2.588  0.0166  0.2017 -0.1455
 4437W        W23291  13.183   6.646   3.200  0.0872 -0.0095  0.1633
 4438W        W23292  16.475   0.016  16.521  0.2393 -0.3508  0.2637
 4439W        W23293  12.344   6.096   3.299  0.1747  0.0364 -0.5691
 4440W        W23294  12.811   6.704   1.253 -0.0942 -0.1254  0.1230
 4441W        W23295   2.101   6.352  15.931 -0.0639  0.3180 -0.3234
 4442W        W23296   6.230   4.992  15.485  0.0232 -0.1863  0.2199
 4443W        W23297   4.720  16.491   4.459 -0.2354 -0.4242  0.0502
 4444W        W23298   4.850  12.992  13.654  0.0353 -0.1337 -0.0306
 4445W        W23299   3.352   8.203  16.223 -0.1382 -0.0030 -0.0894
 4446W        W23300  10.302  11.079   3.640 -0.0387  0.1992 -0.1833
 4447W        W23301  11.199   1.618   3.001 -0.3163 -0.2114 -0.0170
 4448W        W23302   5.296   6.732  15.710 -0.0145  0.0158  0.0518
 4449W        W23303   5.919   7.728   1.064  0.0185 -0.0906 -0.1764
 4450W        W23304   7.892  13.626  13.628 -0.3609 -0.1486 -0.1691
 4451W        W23305   8.695   2.927  16.167 -0.0991 -0.1493  0.0107
 4452W        W23306  15.020   9.089  17.161 -0.2210 -0.0723 -0.1690
 4453W        W23307   1.780   6.548  17.452  0.1785 -0.0677  0.3157
 4454W        W23308   5.140   5.173  15.571 -0.0964 -0.1709 -0.1467
 4455W        W23309  11.271  16.744   2.437 -0.4854 -0.0707 -0.1053
 4456W        W23310   7.019   5.928   1.939  0.1816  0.0986 -0.1516
 4457W        W23311   7.971  16.415   0.610 -0.0312 -0.1042  0.0276
 4458W        W23312   6.736   3.736  14.786 -0.4951 -0.0915  0.0585
 4459W        W23313  10.271   2.118  16.358  0.1199 -0.1340  0.0716
 4460W        W23314  13.860   6.846  17.209  0.0073  0.1936  0.0832
 4461W        W23315  15.963  10.347  12.392 -0.0163 -0.0780  0.2482
 4462W        W23316  11.435   7.269   0.152  0.0110 -0.0449 -0.0948
 4463W        W23317  16.887   9.556  12.981 -0.0735  0.0257  0.2609
 4464W        W23318  16.568   3.566  11.977  0.1519  0.1469 -0.1054
 4465W        W23319   7.159   9.645  17.372 -0.2001  0.0957 -0.3102
 4466W        W23320   0.470   2.381   1.209 -0.2453  0.3330  0.3731
 4467W        W23321  10.672   5.852   3.263 -0.1613 -0.0206 -0.2748
 4468W        W23322   6.986  10.918   2.152  0.0258 -0.0317 -0.2531
 4469W        W23323   2.730   1.266  17.073 -0.1173  0.2213  0.0798
 4470W        W23324   0.161  10.948   1.020  0.0946  0.1066 -0.0086
 4471W        W23325   8.458  14.558   2.264  0.0131  0.5321  0.1357
 4472W        W23326  10.295  10.984   2.270 -0.3444 -0.1361 -0.1091
 4473W        W23327  10.866   8.287  13.531  0.1026 -0.1967 -0.4466
 4474W        W23328   8.620   5.476   1.299  0.0443 -0.1492  0.0033
 4475W        W23329  11.220  11.687   1.624 -0.0956 -0.1656  0.2575
 4476W        W23330   8.092   6.016   2.707  0.1371  0.0564 -0.1607
 4477W        W23331   5.034   0.865   2.000  0.2372 -0.0531 -0.0451
 4478W        W23332  13.143   7.913   1.802 -0.0491 -0.1222  0.0856
 4479W        W23333   8.177  15.315   1.797  0.1910 -0.1787  0.0103
 4480W        W23334   3.566  15.336   0.846 -0.4809 -0.0482 -0.3242
 4481W        W23335   1.364  10.390  16.127  0.1455 -0.0081  0.0572
 4482W        W23336   8.938   6.580  15.900 -0.0079  0.0835 -0.0117
 4483W        W23337   7.548   3.494   3.316  0.2689  0.1266 -0.0877
 4484W        W23338   2.329   1.269  14.432  0.0812 -0.1131  0.0065
 4485W        W23339   1.457   6.214  17.320 -0.1127 -0.0536  0.2216
 4486W        W23340  14.892  15.552  16.302 -0.0448  0.1082  0.2060
 4487W        W23341   6.214  12.263   1.865  0.0835  0.1728  0.0921
 4488W        W23342  11.657   8.938   4.530 -0.2775 -0.0688 -0.1458
 4489W        W23343   0.549   1.409   3.052  0.3115 -0.2795  0.0321
 4490W        W23344  16.519   2.014  16.888  0.2380 -0.1433  0.1858
 4491W        W23345   4.940  11.443  13.651 -0.1624 -0.4187 -0.1802
 4492W        W23346   9.636   2.349  13.136 -0.1106  0.0188 -0.4041
 4493W        W23347  12.886   5.933   2.473 -0.0249 -0.3013 -0.2052
 4494W        W23348   3.041   3.985   0.597 -0.0886 -0.0485  0.0934
 4495W        W23349   7.193   0.504  13.059  0.1556  0.1739 -0.0383
 4496W        W23350   6.832   3.705  13.352  0.2516  0.2097 -0.0567
 4497W        W23351   9.172  10.812   1.474  0.2175  0.0295 -0.1090
 4498W        W23352   5.087  10.684  13.193 -0.1680 -0.0772  0.1070
 4499W        W23353   7.624  14.695   1.000 -0.1763  0.5660 -0.0843
 4500W        W23354  10.021   5.706   5.548  0.1829 -0.0497  0.0192
 4501W        W23355  13.986   2.793   0.317 -0.2152 -0.2742 -0.0867
 4502W        W23356   3.609   0.777  12.126  0.2139 -0.0606 -0.1825
 4503W        W23357   8.977  10.793  14.059  0.4917 -0.3378  0.0083
 4504W        W23358  10.729   8.768  13.285 -0.0829 -0.1175  0.1761
 4505W        W23359   0.307  10.784   0.570 -0.0689 -0.0800  0.0659
 4506W        W23360   7.975  12.180   1.985 -0.1787  0.2191  0.0265
 4507W        W23361   9.924   5.667  15.830 -0.3161 -0.0602  0.2494
 4508W        W23362   1.398   6.211   0.377  0.1504 -0.3412  0.4712
 4509W        W23363   3.425  14.749   3.911 -0.1461  0.0912  0.0847
 4510W        W23364  10.071   4.464  17.339  0.0205 -0.0092  0.2512
 4511W        W23365   2.902  17.035   4.224  0.1021  0.1938 -0.0344
 4512W        W23366  11.835   4.665  14.972  0.1739  0.2430 -0.0199
 4513W        W23367   0.843   2.039  15.326  0.0497  0.2461  0.1190
 4514W        W23368   7.380   7.035   2.532  0.1806 -0.1506  0.0830
 4515W        W23369  10.809   8.682  14.883 -0.1711  0.2394 -0.1546
 4516W        W23370  11.576  15.002  16.943  0.0461 -0.4167  0.3089
 4517W        W23371   8.662  14.145   2.432 -0.0190  0.1209 -0.2343
 4518W        W23372  14.338  14.178   1.904  0.1238  0.2973 -0.0670
 4519W        W23373  11.907  10.658  16.565  0.3090 -0.0845 -0.1227
 4520W        W23374  14.066   2.728   1.399 -0.0918 -0.2286 -0.2504
 4521W        W23375   4.612   2.238  17.352 -0.2005 -0.2753  0.3247
 4522W        W23376  16.495  14.293  17.116 -0.0277 -0.0873  0.1503
 4523W        W23377   1.016   1.684  13.895  0.2451 -0.2070  0.1809
 4524W        W23378   5.834   0.960   1.386  0.5700  0.2177 -0.2177
 4525W        W23379   9.123   6.828  14.128 -0.0717 -0.2241  0.3323
 4526W        W23380  12.541  16.283   4.274  0.2245 -0.2105 -0.2495
 4527W        W23381   7.003  11.903  12.141 -0.0310  0.0661 -0.1398
 4528W        W23382  13.005   0.124  14.933 -0.1626 -0.0185 -0.0575
 4529W        W23383   9.545  17.240  16.306 -0.1102  0.1135 -0.2365
 4530W        W23384   9.894  11.222  14.360  0.0407 -0.2406 -0.1549
 4531W        W23385   2.492   3.493  14.471 -0.2292  0.3795  0.1257
 4532W        W23386  16.126  11.652   1.532  0.0368  0.0349 -0.3097
 4533W        W23387   7.533   9.607  13.776 -0.1804  0.1705 -0.2279
 4534W        W23388   3.477  12.433   4.819 -0.0699 -0.3177 -0.2192
 4535W        W23389   8.968   5.641   4.793 -0.3606 -0.1361 -0.0261
 4536W        W23390  17.214   7.242   2.274  0.0313  0.0742 -0.2287
 4537W        W23391   9.197   5.942   0.533 -0.1706  0.0152 -0.0695
 4538W        W23392  12.975   1.000   0.853 -0.2309 -0.0511 -0.0106
 4539W        W23393   2.824  13.706   0.126 -0.1273 -0.0779  0.2993
 4540W        W23394   2.223  11.794   3.476  0.2712  0.2620  0.2472
 4541W        W23395   2.368   9.437  16.082 -0.1643  0.0420  0.1033
 4542W        W23396   0.819   3.184   1.453 -0.1064 -0.1036  0.0455
 4543W        W23397   4.867  12.865   4.792 -0.1254  0.0196 -0.0110
 4544W        W23398   5.299   6.237  14.734  0.2664 -0.0841 -0.0644
 4545W        W23399   9.322  12.084   3.565 -0.2468 -0.2063 -0.0664
 4546W        W23400  12.847   6.427  15.981 -0.4474  0.1584 -0.0865
 4547W        W23401   5.649   8.834  17.431 -0.1245 -0.0574 -0.1153
 4548W        W23402   0.498  11.024  12.747  0.0107 -0.1126  0.1491
 4549W        W23403   7.643  10.121   1.897 -0.1291  0.0188  0.2651
 4550W        W23404   6.495  12.735  12.054  0.4616 -0.0642 -0.0082
 4551W        W23405   0.864   1.095   4.506  0.3683 -0.2399 -0.2038
 4552W        W23406  10.957   7.130   3.835  0.0079 -0.0071  0.1231
 4553W        W23407  15.355   8.681   5.105  0.2180  0.0309  0.0312
 4554W        W23408   0.579   3.459  15.653 -0.0910 -0.1268 -0.0600
 4555W        W23409   4.141  13.290   0.405  0.1789  0.2776  0.2669
 4556W        W23410   0.262   7.973  13.595  0.0041 -0.0425 -0.0886
 4557W        W23411  15.941   1.429   3.546 -0.0795  0.1270  0.0503
 4558W        W23412   0.529   3.325  16.166  0.4478  0.0313  0.0388
 4559W        W23413   4.196   3.961  12.925 -0.0972 -0.1399  0.0070
 4560W        W23414   1.504   7.497   0.190  0.0165  0.0226  0.0760
 4561W        W23415   8.423   2.679   1.214  0.1582 -0.3491 -0.2676
 4562W        W23416   4.723   6.317  12.532 -0.3582  0.3851 -0.1704
 4563W        W23417   7.601   6.526   5.145 -0.0928  0.1685 -0.0525
 4564W        W23418   1.913  10.605   5.421 -0.1478 -0.1579  0.0043
 4565W        W23419  13.475  16.439   3.852 -0.3185  0.1780  0.0452
 4566W        W23420   0.973   5.195   1.757  0.1688  0.4268 -0.1117
 4567W        W23421  10.982   5.264  13.053  0.3521 -0.1408 -0.1268
 4568W        W23422   2.020   3.144   3.623 -0.0819  0.2150  0.2853
 4569W        W23423   1.081  16.738   4.562 -0.2230 -0.2070 -0.0118
 4570W        W23424   6.917  10.350   4.373 -0.1449 -0.3543 -0.3119
 4571W        W23425  16.642   8.658   1.924 -0.3024 -0.2941 -0.1618
 4572W        W23426  10.179   7.471  16.655  0.0959  0.3587  0.0057
 4573W        W23427   5.405  13.289  12.681  0.0791 -0.2311 -0.1072
 4574W        W23428  16.736   9.087   2.276  0.1121 -0.1756  0.0627
 4575W        W23429   3.586   6.609   5.178  0.0956  0.2799  0.3028
 4576W        W23430   4.537   9.346   4.254 -0.3097  0.1503  0.2514
 4577W        W23431   1.288   6.289  15.160 -0.0359 -0.1181 -0.3357
 4578W        W23432   5.548  15.600  14.040 -0.0928  0.0240  0.0671
 4579W        W23433  13.229   8.037   5.048  0.0157 -0.0293 -0.1359
 4580W        W23434   0.925  10.226  13.190 -0.3295  0.1768 -0.0555
 4581W        W23435   6.304   8.409  15.934 -0.0549 -0.1648  0.1957
 4582W        W23436   7.874   5.119  15.523 -0.0450  0.1879  0.0555
 4583W        W23437   4.563   0.981   1.969  0.0305  0.0842 -0.0146
 4584W        W23438   6.360  12.780   0.421  0.1335 -0.0202  0.1376
 4585W        W23439   2.523  14.955  17.456 -0.0988 -0.2354 -0.1697
 4586W        W23440  16.380  10.639   2.814  0.0152  0.1300  0.0889
 4587W        W23441   5.727   4.870  16.424 -0.0021  0.0756  0.4314
 4588W        W23442   1.489  14.235  15.823  0.0276  0.1154  0.2701
 4589W        W23443   9.318   2.268  12.664 -0.0732 -0.0666  0.0136
 4590W        W23444   8.713   6.706  17.466 -0.0610 -0.2030 -0.0247
 4591W        W23445  13.256   2.696  12.836 -0.0934 -0.2730 -0.2186
 4592W        W23446   8.436  11.703   4.730 -0.1897  0.2573  0.2192
 4593W        W23447  13.598   5.904   5.236  0.2473  0.0575  0.0413
 4594W        W23448  15.010  17.142   4.187  0.0502  0.0066  0.2779
 4595W        W23449   8.207  12.537  16.070  0.2387  0.1472  0.0031
 4596W        W23450   2.152  11.726  12.554  0.3576 -0.0115 -0.1548
 4597W        W23451  13.298  14.159   1.417  0.1322 -0.0410  0.0257
 4598W        W23452   9.563   6.749  14.318 -0.0582 -0.0985  0.0977
 4599W        W23453  14.541  10.408  17.381  0.0639 -0.2096  0.2495
 4600W        W23454   4.189   7.586  13.746  0.1738  0.0520 -0.0536
 4601W        W23455   7.840   5.363   4.458  0.0824 -0.0465 -0.0998
 4602W        W23456  14.485   7.001   5.171 -0.0308 -0.1663 -0.0236
 4603W        W23457   1.927   6.123   0.232 -0.2463 -0.1087 -0.1695
 4604W        W23458  15.910   5.228   2.283  0.2507  0.1769 -0.1446
 4605W        W23459  10.095   9.832  12.193 -0.3460 -0.0663  0.1558
 4606W        W23460   1.804   1.885   4.290  0.1516 -0.0743 -0.1959
 4607W        W23461   7.094   1.605   2.541 -0.0726  0.0557  0.0553
 4608W        W23462  13.789  13.350  12.970  0.2748  0.1725 -0.2404
 4609W        W23463   2.978   9.008  12.553  0.0123  0.2739  0.0288
 4610W        W23464  16.097   7.446  12.142 -0.2438  0.0939  0.0373
 4611W        W23465  17.033   7.344   4.397 -0.1114 -0.0803  0.0570
 4612W        W23466  16.253  14.668  12.341 -0.2584 -0.1313 -0.3498
 4613W        W23467   9.673   6.229  14.338  0.1709  0.0654 -0.0260
 4614W        W23468   3.837   8.210   3.727  0.3388  0.1605 -0.0965
 4615W        W23469   6.720   8.181   3.118 -0.3654 -0.3761  0.0537
 4616W        W23470   8.248   0.046  13.944 -0.2523  0.0076  0.1243
 4617W        W23471   5.253   8.256  13.125 -0.0954 -0.0057 -0.2606
 4618W        W23472  13.779  15.222  14.837  0.1028  0.2679 -0.1263
 4619W        W23473   3.331   2.627  16.968 -0.0628  0.0641  0.0606
 4620W        W23474   0.467   0.596   4.781 -0.3073  0.2479 -0.0375
 4621W        W23475   8.722  16.921   2.004 -0.0976  0.0875  0.0398
 4622W        W23476  10.766  15.213  15.235  0.2191  0.1622 -0.1500
 4623W        W23477   9.905  11.478  15.645 -0.0183 -0.0513 -0.3264
 4624W        W23478   4.573  11.089   2.517 -0.0126 -0.1666 -0.0067
 4625W        W23479   2.435   8.132   1.863  0.0423  0.1385  0.0397
 4626W        W23480   3.228   6.572   4.813 -0.1525  0.0236 -0.2639
 4627W        W23481   1.365   6.351  14.654 -0.0136 -0.3634 -0.0189
 4628W        W23482  14.238   0.294  14.401  0.2022 -0.1627 -0.1662
 4629W        W23483   3.129  16.572   3.376 -0.1865  0.1082 -0.3282
 4630W        W23484   7.504   7.392   4.739 -0.2842  0.2525 -0.0738
 4631W        W23485   8.513   0.376   3.878  0.1114 -0.0756 -0.1799
 4632W        W23486  14.105   3.040   2.232 -0.0077  0.0222 -0.2489
 4633W        W23487   4.234  16.874  14.964 -0.0567 -0.3940  0.1044
 4634W        W23488   0.133   5.788   0.792  0.2016  0.0433 -0.0982
 4635W        W23489  14.647   2.751  14.427  0.0551  0.0608  0.1083
 4636W        W23490  13.625   1.794   1.007 -0.2646  0.1449  0.0408
 4637W        W23491  14.423  10.392   3.634  0.0003  0.1395 -0.1553
 4638W        W23492   9.400  13.385  13.767  0.2673  0.3429 -0.2332
 4639W        W23493   8.940   0.983  16.174 -0.0743  0.1092  0.2885
 4640W        W23494  14.714   4.259  16.205  0.2027 -0.0109 -0.0444
 4641W        W23495  16.038   6.555   5.069  0.0654  0.0223 -0.1116
 4642W        W23496   7.932  15.446   3.354  0.1927 -0.0203  0.0548
 4643W        W23497   4.567  10.574  13.044 -0.0561  0.2333 -0.2667
 4644W        W23498  16.302   7.840   2.053  0.2543  0.2118  0.0689
 4645W        W23499   9.946  17.148   4.594  0.1290 -0.0858 -0.2072
 4646W        W23500   9.066   1.242   1.498  0.1898  0.0302  0.0084
 4647W        W23501   4.557  13.994  16.102  0.1732  0.1419  0.0067
 4648W        W23502  14.646   2.829  15.409  0.0066  0.1988 -0.2970
 4649W        W23503   4.937  12.941  16.205  0.1474  0.1861  0.2683
 4650W        W23504  12.787   7.647   3.451 -0.0824  0.2986 -0.0048
 4651W        W23505   3.278   8.385  14.294  0.5049  0.2005  0.0738
 4652W        W23506  12.323  10.107  12.764  0.0510  0.1939 -0.1463
 4653W        W23507  11.107   1.484  14.475 -0.0511  0.0103 -0.0242
 4654W        W23508   5.567  14.680  16.249 -0.2777  0.1707 -0.1054
 4655W        W23509  16.520   0.802   3.418  0.2209 -0.0411 -0.3195
 4656W        W23510   9.946   7.408   2.732 -0.2107 -0.0673  0.2747
 4657W        W23511   7.627   4.444   0.325 -0.0445 -0.1691  0.0824
 4658W        W23512  10.907   5.579   5.306  0.1098  0.0841 -0.0937
 4659W        W23513   0.591   3.411   3.781  0.0383  0.2541 -0.1178
 4660W        W23514   0.771   9.432   0.074  0.0292 -0.0362 -0.1854
 4661W        W23515   2.570  17.318   4.534  0.0904 -0.0313 -0.1609
 4662W        W23516   7.721  14.683  14.921 -0.4168  0.1285 -0.1675
 4663W        W23517  10.860  16.137  16.574 -0.0072 -0.1901  0.0289
 4664W        W23518   2.129   8.598  13.459 -0.1840 -0.1634  0.0247
 4665W        W23519  15.888   5.411   4.090 -0.0379  0.0090  0.0814
 4666W        W23520  15.906   2.803  15.340  0.0487  0.0345 -0.4181
 4667W        W23521   8.338  16.962   1.588 -0.0711 -0.0855  0.1951
 4668W        W23522   5.077  15.985  17.346  0.0314 -0.1622 -0.1339
 4669W        W23523   2.513  10.694  16.618  0.0266 -0.4419  0.1770
 4670W        W23524   7.560   1.259  13.564 -0.0815  0.2381 -0.4097
 4671W        W23525   2.818  17.224   3.780  0.3022  0.2106 -0.0557
 4672W        W23526  11.608  11.061  13.074  0.2363  0.0552 -0.0498
 4673W        W23527  12.792   1.840   2.206 -0.1241 -0.1805 -0.0150
 4674W        W23528   4.671   0.298   2.417 -0.1636  0.1821  0.2158
 4675W        W23529   4.306  10.531  16.435  0.1323 -0.0888  0.1496
 4676W        W23530   8.225   9.751  13.823 -0.1101  0.0998 -0.0024
 4677W        W23531   8.149  13.989   1.272 -0.3352 -0.1957  0.0256
 4678W        W23532  14.974  13.904   1.457  0.1297  0.0079 -0.0402
 4679W        W23533   4.748   1.448   5.913 -0.0061  0.0160 -0.0002
 4680W        W23534   7.402  15.912   2.695 -0.1057  0.2826 -0.2183
 4681W        W23535  10.781   3.124  12.783  0.2126  0.3652  0.2715
 4682W        W23536  14.622   2.664   2.155  0.1436  0.0703 -0.1571
 4683W        W23537  16.141   9.667   2.607 -0.0446 -0.2219 -0.3100
 4684W        W23538  16.068  13.236  16.694 -0.1109 -0.0046  0.0676
 4685W        W23539  10.501   2.708   2.445 -0.0579 -0.1520  0.4008
 4686W        W23540  13.562   6.445  15.471  0.2430  0.0627  0.0355
 4687W        W23541  14.768   6.312  15.208 -0.0360  0.0809  0.0235
 4688W        W23542  11.079   3.866   4.471  0.2690 -0.2646 -0.1632
 4689W        W23543   8.991   2.356   3.126 -0.0346  0.2541  0.0158
 4690W        W23544   7.030   6.456  12.747  0.0999 -0.1707 -0.1194
 4691W        W23545   2.947  14.389  13.761 -0.1834  0.0183 -0.1988
 4692W        W23546   7.916   8.454  13.376  0.2405  0.1464  0.0962
 4693W        W23547  16.912  16.889  17.188  0.0206 -0.0212  0.4213
 4694W        W23548  14.861  13.549   0.148  0.1178  0.1529 -0.2170
 4695W        W23549   2.572  17.067  11.943  0.0569  0.4005 -0.1351
 4696W        W23550  17.148   5.949  14.204  0.2151  0.1763  0.2176
 4697W        W23551   3.968   3.649   5.183  0.0403  0.0158  0.1227
 4698W        W23552  16.210  17.249   0.572 -0.0160 -0.1041  0.0121
 4699W        W23553  13.561   0.445  16.191 -0.2293 -0.1838 -0.0711
 4700W        W23554   0.427   0.847  11.968 -0.2933  0.2164 -0.1343
 4701W        W23555   3.308   7.860   3.079 -0.1354 -0.2767  0.0248
 4702W        W23556   2.319   7.087   3.299 -0.2353 -0.0033  0.0341
 4703W        W23557   8.988  11.370  13.301 -0.1011  0.1312  0.1554
 4704W        W23558  10.957   6.799  14.918  0.0581 -0.1775 -0.2729
 4705W        W23559   4.372  15.788   3.556  0.3016 -0.1291  0.0166
 4706W        W23560   9.828   0.052   1.092 -0.1508  0.0651 -0.2650
 4707W        W23561  14.821   9.223   2.186 -0.0878 -0.1719 -0.0509
 4708W        W23562   6.367   3.870   3.787  0.1954  0.6103 -0.0629
 4709W        W23563   2.335   0.833  15.861 -0.1048 -0.1698  0.2650
 4710W        W23564  17.093   1.557  17.216 -0.3326  0.1535 -0.1857
 4711W        W23565   0.492  17.315  15.907 -0.2490  0.0424 -0.2834
 4712W        W23566  15.363  14.402   4.043  0.2394  0.0037 -0.2134
 4713W        W23567   4.707   3.511  13.105 -0.1606 -0.2283  0.2791
 4714W        W23568  12.727   0.981  13.561  0.1409  0.1667  0.1343
 4715W        W23569  12.596  16.107  14.602 -0.0281 -0.1478 -0.1464
 4716W        W23570  14.796  10.503   0.588  0.0127  0.1736  0.0011
 4717W        W23571   2.907  15.712  12.487 -0.3787 -0.1032  0.2362
 4718W        W23572   3.194   0.571   3.222  0.0412  0.2667 -0.1388
 4719W        W23573  17.164  17.031  14.341  0.1886 -0.1049 -0.1681
 4720W        W23574   4.531   9.016  15.202 -0.1666 -0.2400  0.1148
 4721W        W23575  16.636  16.702   3.905  0.3549  0.0083 -0.0853
 4722W        W23576   1.353   7.027   4.365 -0.1153 -0.2360  0.0646
 4723W        W23577  11.773  13.106   1.158 -0.1978  0.0404  0.1907
 4724W        W23578  13.526   9.332  12.858 -0.0317 -0.2569 -0.0742
 4725W        W23579   9.872   1.828  16.311  0.0627 -0.3529 -0.0368
 4726W        W23580  15.843  13.261  12.811  0.2809  0.0494  0.3479
 4727W        W23581  13.835  15.567  17.152 -0.2336 -0.1992 -0.0971
 4728W        W23582   4.034  12.338  16.674 -0.0273  0.0741 -0.0872
 4729W        W23583   5.645   7.912  12.887  0.1151  0.1406  0.0651
 4730W        W23584  15.501   3.455   0.489  0.1668 -0.1272 -0.1062
 4731W        W23585  17.027   1.311   0.207 -0.1022 -0.0720 -0.2734
 4732W        W23586  17.323   2.430   4.337  0.2874 -0.0184  0.1005
 4733W        W23587  12.041   6.721   1.005 -0.2589  0.0305 -0.3211
 4734W        W23588   7.596  13.959  12.534  0.0856 -0.2083 -0.0031
 4735W        W23589  12.722   3.763   1.255  0.1280 -0.0877  0.1652
 4736W        W23590  14.198   3.703   4.685  0.1653  0.0361  0.2113
 4737W        W23591   5.041  11.745   4.349  0.0396 -0.0566 -0.2013
 4738W        W23592  16.708  11.806  14.649  0.0431 -0.0222  0.1787
 4739W        W23593   2.724  16.502   4.351 -0.1160 -0.0417  0.1879
 4740W        W23594   6.938  13.448   0.829  0.2898 -0.0711 -0.0767
 4741W        W23595   5.786  15.895   5.164  0.0691  0.0784 -0.1295
 4742W        W23596   4.412   2.866   3.094  0.4291 -0.4442  0.0416
 4743W        W23597  14.474   9.245   2.734  0.0410  0.1917 -0.0207
 4744W        W23598  14.310  13.047   2.187 -0.0437  0.0691  0.3569
 4745W        W23599  10.187  16.043   4.944 -0.3242  0.0097 -0.2051
 4746W        W23600  10.351   6.747  16.033  0.1295 -0.3620 -0.0354
 4747W        W23601   5.784  17.324  16.221  0.1007  0.1780 -0.0677
 4748W        W23602   9.805   0.130  12.225 -0.2336  0.1767 -0.1738
 4749W        W23603  16.222  16.911   4.792 -0.1891  0.0947 -0.2269
 4750W        W23604  16.281   5.359   1.959  0.2128  0.2178  0.0960
 4751W        W23605  12.416   1.042   4.537 -0.3384  0.2203 -0.0893
 4752W        W23606   8.732   7.251   5.836  0.3550  0.0318 -0.0720
 4753W        W23607  17.304  14.245  15.838 -0.3635 -0.0200  0.0021
 4754W        W23608   9.319   5.235  15.834 -0.0905  0.0172 -0.0237
 4755W        W23609  16.132   9.367  17.148  0.0933 -0.0867 -0.0089
 4756W        W23610   7.001  14.920   3.991  0.2235 -0.1021  0.0912
 4757W        W23611   1.196  12.662   5.168 -0.0355 -0.1471 -0.2751
 4758W        W23612  17.079   9.931   3.826 -0.3489 -0.1609  0.1433
 4759W        W23613  12.728   0.217  14.379  0.1907 -0.0985 -0.3397
 4760W        W23614  11.741   8.775  14.804  0.0736 -0.0107  0.1674
 4761W        W23615   8.358  12.991   3.114 -0.2237 -0.0410  0.1412
 4762W        W23616   1.913   5.832  12.710  0.1754  0.1120 -0.0936
 4763W        W23617   9.944  12.462  15.756  0.4347  0.3543  0.1673
 4764W        W23618   8.802  17.320  15.833  0.2263 -0.0125  0.1177
 4765W        W23619   5.907  13.664  12.323  0.2567  0.2017  0.0260
 4766W        W23620   4.869   0.859  16.735  0.0185  0.1768 -0.3403
 4767W        W23621   2.001  17.096   3.616 -0.2037 -0.0391  0.2157
 4768W        W23622  10.346   7.688  12.812  0.0797  0.2542  0.2647
 4769W        W23623   2.467   8.062   3.406  0.1843  0.1937 -0.1520
 4770W        W23624   5.539  12.672   5.129  0.1411 -0.1659 -0.0950
 4771W        W23625   1.413   3.478   4.346  0.1227 -0.0442  0.1342
 4772W        W23626  13.667  11.610   5.671  0.2387 -0.2267  0.0949
 4773W        W23627   7.919   4.301  12.455  0.1602  0.0616  0.1084
 4774W        W23628   3.849  15.594   4.223 -0.1557 -0.0605 -0.0844
 4775W        W23629   2.147  15.946  13.704  0.2335 -0.1038 -0.2590
 4776W        W23630  11.397   3.695   4.784 -0.0527 -0.1615  0.0889
 4777W        W23631  10.098   9.715  13.869  0.1961  0.2853 -0.1190
 4778W        W23632   2.741   7.055  14.142 -0.1065  0.2587 -0.1896
 4779W        W23633   1.592  10.102  16.588  0.1954 -0.2070 -0.3423
 4780W        W23634   6.226   2.689   3.500 -0.0965 -0.2920  0.1353
 4781W        W23635  11.888   3.049  17.376  0.0815 -0.2376 -0.1203
 4782W        W23636  10.313  12.933  12.610  0.3674 -0.3515  0.1031
 4783W        W23637   7.012   8.762  15.767  0.0899  0.1463 -0.1591
 4784W        W23638   6.387  11.417   3.576 -0.3065 -0.0079  0.0968
 4785W        W23639  17.108   6.277   5.271  0.0693 -0.0227 -0.0125
 4786W        W23640   7.870   5.227   5.069 -0.1220 -0.0793 -0.1998
 4787W        W23641   9.503   1.305   0.231  0.3299  0.2398  0.0302
 4788W        W23642   4.795   2.477  16.034  0.1731 -0.0282  0.0787
 4789W        W23643   8.255   2.729   2.817  0.0532 -0.0628 -0.1289
 4790W        W23644   3.411  10.073  14.602  0.1847  0.0515  0.0423
 4791W        W23645   6.124  15.567  15.311  0.0262 -0.2117  0.0378
 4792W        W23646   5.373  15.146   4.933  0.1216  0.3769 -0.2396
 4793W        W23647  11.046   4.560  14.593 -0.0826  0.0700 -0.0805
 4794W        W23648   3.584   3.238   4.535 -0.0443 -0.1950  0.1664
 4795W        W23649   7.797   9.153  16.654  0.0374 -0.1923 -0.0439
 4796W        W23650   4.722   8.397   1.631 -0.2527 -0.1471  0.0092
 4797W        W23651  13.776  13.157  15.299 -0.1434 -0.1659  0.0899
 4798W        W23652  14.838  16.603   0.242  0.0951  0.2707 -0.0000
 4799W        W23653   8.478  15.362  17.356  0.1276  0.6059 -0.1713
 4800W        W23654   0.480  11.203   0.242  0.1039  0.4275 -0.2941
 4801W        W23655  13.950   2.290  13.380  0.1864  0.0400 -0.0724
 4802W        W23656   2.989   6.251   1.960 -0.0024 -0.1845  0.2087
 4803W        W23657  15.046  12.099   2.592  0.0018 -0.0549  0.4316
 4804W        W23658   8.270  13.454   0.255 -0.2693  0.0143  0.2064
 4805W        W23659   5.439  15.056   3.722  0.0421  0.1565  0.3025
 4806W        W23660   0.920  11.264   1.808  0.1522  0.1604 -0.0684
 4807W        W23661   1.898   3.344   4.518  0.0942 -0.3434 -0.2351
 4808W        W23662   4.327  10.385  13.487 -0.1522 -0.0575 -0.0426
 4809W        W23663   8.962   5.953   2.455 -0.0522  0.1968 -0.0566
 4810W        W23664   9.223   4.290   4.887 -0.0721 -0.0691 -0.1354
 4811W        W23665   9.306   9.967  16.414  0.1498  0.0007  0.2486
 4812W        W23666  10.506   1.765  15.434  0.1680  0.2763 -0.1617
 4813W        W23667  15.578  10.626  13.617 -0.2557 -0.0606  0.1004
 4814W        W23668   2.298  10.329   2.989 -0.4080 -0.2681  0.2650
 4815W        W23669   4.490  14.636  15.149 -0.2039  0.0368 -0.3449
 4816W        W23670   9.318  16.901  12.876  0.0697 -0.0952  0.0430
 4817W        W23671  10.675  16.173  13.625  0.1208 -0.0057 -0.5708
 4818W        W23672   2.819   9.490   1.871  0.1157  0.0076  0.2328
 4819W        W23673  11.990   3.932   1.582 -0.0505 -0.1634 -0.0041
 4820W        W23674   3.913  16.468  17.071  0.3403 -0.0521  0.0245
 4821W        W23675   5.245   2.315  16.192  0.1861 -0.0871  0.0858
 4822W        W23676  13.153   9.325  12.425  0.0631  0.0170 -0.1080
 4823W        W23677   0.533   3.915   0.260 -0.0090  0.0361 -0.2698
 4824W        W23678   4.712   6.775  13.472 -0.0584 -0.0939 -0.0884
 4825W        W23679   3.659  14.571  13.821  0.0557 -0.0056  0.0155
 4826W        W23680   3.155   0.694  14.657 -0.1522 -0.0252 -0.1366
 4827W        W23681   0.878   4.699   1.640  0.1315  0.2980  0.1532
 4828W        W23682  13.756   1.252  12.077 -0.0979  0.1649  0.3644
 4829W        W23683  14.072   9.585   2.556 -0.1297 -0.0451  0.0407
 4830W        W23684  16.197   4.296   0.345 -0.0085  0.3801  0.0558
 4831W        W23685  14.828   5.921  16.634  0.4196 -0.0878 -0.0924
 4832W        W23686  10.249  12.379  14.602  0.1667 -0.3045  0.1057
 4833W        W23687   9.786   7.408  14.662 -0.1616  0.2254 -0.1110
 4834W        W23688  15.145  14.462  14.809 -0.1047 -0.0021 -0.0998
 4835W        W23689   9.336   7.051  15.642 -0.2526 -0.1134  0.2746
 4836W        W23690   4.779   2.780  13.714 -0.1992 -0.0637  0.0549
 4837W        W23691   3.548  15.696  13.220  0.0487 -0.1901  0.4399
 4838W        W23692  14.061  12.939  13.254  0.2787  0.0277  0.1778
 4839W        W23693   3.982   3.939  15.452  0.1417  0.0606 -0.0691
 4840W        W23694   6.590   0.634   3.981  0.6007 -0.0003  0.0086
 4841W        W23695   6.463   1.885  14.239  0.2476  0.0283 -0.1207
 4842W        W23696  12.463   6.517  15.247 -0.1649  0.0512 -0.2256
 4843W        W23697   7.418  11.088  15.282  0.0144  0.0956 -0.2442
 4844W        W23698   4.628   0.708   1.555  0.0379 -0.1170  0.0301
 4845W        W23699  12.201   2.211  15.011  0.0640 -0.1106  0.0399
 4846W        W23700  14.819  16.348   2.474  0.3614 -0.0278  0.0184
 4847W        W23701  10.294   7.262   2.307 -0.0020 -0.1996  0.2413
 4848W        W23702  16.776  13.419   0.994 -0.0813  0.0471  0.1265
 4849W        W23703   2.811   1.693   4.133  0.0172  0.1822  0.0294
 4850W        W23704   6.672  11.087  14.835 -0.0109 -0.2290  0.0565
 4851W        W23705  10.291   7.066   1.303  0.3815  0.0452 -0.2131
 4852W        W23706   3.639   7.120  12.077 -0.3775 -0.4069  0.1410
 4853W        W23707  11.100  10.332  12.350 -0.1909 -0.0870 -0.1167
 4854W        W23708  10.009  15.087   5.258 -0.2098 -0.0556  0.1070
 4855W        W23709   5.321   2.867  12.731 -0.1628 -0.0656 -0.1538
 4856W        W23710  11.070   2.926  17.259 -0.2138 -0.0874  0.0397
 4857W        W23711   5.910   7.366   4.110 -0.1238  0.1287  0.1645
 4858W        W23712  13.854   9.755  17.126 -0.1663 -0.3521 -0.0467
 4859W        W23713   1.258   3.184   1.723 -0.2141  0.0548  0.0430
 4860W        W23714   7.421  10.724   1.344  0.1950 -0.1704 -0.1451
 4861W        W23715  12.570   7.194   2.804 -0.2091  0.3003  0.0221
 4862W        W23716   8.256   9.270  14.527  0.0850  0.0181  0.1148
 4863W        W23717  15.859   3.752  14.907 -0.1238 -0.0813 -0.1556
 4864W        W23718  10.626   3.439   0.625  0.0090  0.1931 -0.0726
 4865W        W23719   3.237  11.622  12.490  0.2895 -0.0757  0.2020
 4866W        W23720   4.357  10.030   1.831 -0.1867 -0.0689 -0.0735
 4867W        W23721   6.102   9.569   1.914 -0.0409 -0.2561  0.0600
 4868W        W23722   7.822   0.571  16.303 -0.2401 -0.1255 -0.0627
 4869W        W23723  15.612   6.378  15.535  0.0467  0.2158  0.0244
 4870W        W23724   4.505   2.688   5.994 -0.0648  0.2157 -0.1879
 4871W        W23725   7.242  11.870   5.402 -0.1025 -0.0358 -0.2204
 4872W        W23726  16.304  15.698   0.292  0.0718  0.2280  0.2359
 4873W        W23727  11.661   2.806  12.618 -0.0445  0.0634  0.1608
 4874W        W23728  10.333  11.614  15.326  0.0516 -0.0823 -0.2774
 4875W        W23729  17.319   5.695   4.565  0.1412 -0.1364 -0.2492
 4876W        W23730  13.017   8.583  15.489 -0.0651  0.0051  0.0209
 4877W        W23731  13.656   2.909   1.795 -0.1470 -0.0881  0.1501
 4878W        W23732   0.040  10.536  14.914 -0.0984  0.2787 -0.1606
 4879W        W23733   1.038  11.260   0.577 -0.2132 -0.0505 -0.1156
 4880W        W23734  13.255   3.231   1.826  0.0884  0.0627 -0.4445
 4881W        W23735   8.628  12.536   3.052  0.0351  0.0079  0.1020
 4882W        W23736  11.188  15.922   1.511  0.3856  0.1228 -0.0636
 4883W        W23737  14.718  14.954   2.439 -0.1985 -0.1834  0.0465
 4884W        W23738  12.186   1.316   2.334  0.3340 -0.0703 -0.0826
 4885W        W23739  10.744   2.106   1.035  0.1041  0.0176  0.2619
 4886W        W23740   4.340   6.609   4.671 -0.1201  0.0165  0.1456
 4887W        W23741   7.174  11.114  13.367  0.1606  0.0140  0.1226
 4888W        W23742   0.736  13.462   5.038 -0.1506 -0.0710 -0.0301
 4889W        W23743   7.421  12.293   1.002 -0.0124 -0.0880  0.1958
 4890W        W23744   6.692   3.316  12.680  0.0079  0.1756 -0.1426
 4891W        W23745   8.740  12.372   2.605  0.1274  0.0769  0.1604
 4892W        W23746  10.092  14.712   2.802 -0.0669 -0.4276 -0.1667
 4893W        W23747  14.894   2.845   1.704  0.0202 -0.0699  0.3830
 4894W        W23748  10.582  14.975  14.595  0.3635  0.2689 -0.1838
 4895W        W23749  12.326   5.900  15.193  0.4394 -0.1734 -0.1825
 4896W        W23750  14.111   7.827   0.828  0.1136 -0.0796 -0.0549
 4897W        W23751   2.302   3.881  14.686 -0.0327 -0.2504 -0.0679
 4898W        W23752  15.072  13.083  14.130  0.3113 -0.1638 -0.3247
 4899W        W23753  14.396   1.686  13.786  0.2395 -0.2764  0.0395
 4900W        W23754  17.058  16.777   3.554  0.2217 -0.0743 -0.3007
 4901W        W23755  12.842  14.052  10.991  0.1446 -0.0521 -0.2201
 4902W        W23756  12.673   1.790   1.386  0.1163 -0.0994  0.0292
 4903W        W23757  15.694   7.677   2.641 -0.0402  0.2129 -0.0542
 4904W        W23758  12.410   9.400   0.662  0.1148  0.0326 -0.3858
 4905W        W23759   9.439   7.845   4.012  0.1101 -0.3130  0.0835
 4906W        W23760   1.220   7.985   5.047 -0.0013 -0.0961  0.0381
 4907W        W23761  15.068   2.610   0.491  0.0688  0.1226  0.1156
 4908W        W23762   0.933   3.525   1.060  0.1583  0.1510 -0.0620
 4909W        W23763   6.439   7.794   1.758  0.0550  0.0028 -0.1270
 4910W        W23764   4.426   1.661   4.513  0.0769 -0.0959  0.3034
 4911W        W23765  11.118   7.593   1.039 -0.1627  0.1304 -0.0469
 4912W        W23766  15.884   2.470  14.983  0.3386  0.0046 -0.2945
 4913W        W23767  16.602   1.285   4.367  0.1550  0.3593 -0.0254
 4914W        W23768  15.507  12.690   0.244 -0.1839  0.1404  0.2907
 4915W        W23769  16.715   8.808   0.505 -0.1527  0.0826 -0.1107
 4916W        W23770  14.684   9.588   1.860  0.1607 -0.0926 -0.0056
 4917W        W23771   9.147  15.099   4.648  0.4553  0.2367  0.1860
 4918W        W23772  10.384   8.304   0.422  0.2356 -0.1089 -0.3310
 4919W        W23773  16.605  10.120  17.183 -0.0487 -0.0827 -0.1036
 4920W        W23774  13.621  16.330   1.444 -0.1319 -0.1101  0.2641
 4921W        W23775   4.704   9.791   0.466 -0.0130  0.0511 -0.0811
 4922W        W23776  16.839   0.271   4.243 -0.0401  0.5761 -0.1197
 4923W        W23777   2.509   9.686   0.502  0.1568  0.2468 -0.1800
 4924W        W23778   9.181   1.545   4.985 -0.1048 -0.0562 -0.1294
 4925W        W23779  10.665   4.581  15.275 -0.0078  0.0156  0.0519
 4926W        W23780   5.956  16.241   2.992 -0.2514 -0.2538 -0.0356
 4927W        W23781  13.446   7.375  15.189 -0.1838  0.1609  0.0243
 4928W        W23782  17.207  11.921   3.747  0.1364 -0.0175  0.0622
 4929W        W23783  13.094  16.404   2.670 -0.2233 -0.2086 -0.1453
 4930W        W23784   9.572   1.631   3.647 -0.3047 -0.0861 -0.2383
 4931W        W23785   9.940   3.370  15.157  0.2464  0.0761 -0.0148
 4932W        W23786   6.948   1.022  12.427  0.5526  0.0864  0.0306
 4933W        W23787   3.755   6.602  13.981  0.0811  0.0846 -0.4220
 4934W        W23788  15.139   4.313  15.985  0.2383  0.0010 -0.0377
 4935W        W23789  10.575   1.904   1.475  0.3062  0.1018 -0.0357
 4936W        W23790   4.111  12.080  12.268 -0.3647  0.0433  0.1627
 4937W        W23791   7.509   4.846  13.084  0.3814  0.2159 -0.1722
 4938W        W23792   5.876   5.523   3.967 -0.0523  0.2586 -0.1831
 4939W        W23793   4.852  16.382   6.190  0.1980 -0.2852  0.0985
 4940W        W23794   4.395   0.002  13.316  0.0140 -0.0067 -0.0293
 4941W        W23795   9.605   7.229   4.530 -0.1759 -0.1691 -0.2577
 4942W        W23796   6.412   1.855   4.729  0.2143 -0.3873  0.2259
 4943W        W23797   2.098   2.497  15.325  0.1148 -0.0911  0.1085
 4944W        W23798  11.815   8.270   4.858 -0.1037  0.0332 -0.1905
 4945W        W23799   3.857   1.305   5.223 -0.0951  0.1466  0.0547
 4946W        W23800  12.464   3.185   1.507 -0.0292  0.2985  0.0488
 4947W        W23801  15.951  12.608  13.705  0.3197  0.3841  0.1125
 4948W        W23802   7.083  14.931   3.437  0.2751 -0.0655 -0.1787
 4949W        W23803  14.862  13.427   1.249 -0.1294  0.0294 -0.1250
 4950W        W23804  13.900   3.447   3.070  0.0392 -0.0160  0.1617
 4951W        W23805  15.553   2.298  12.451 -0.2682  0.0700 -0.2849
 4952W        W23806   2.944   5.897  16.843 -0.3479  0.0696 -0.1877
 4953W        W23807  14.377  11.928  15.404 -0.1552  0.1536 -0.3385
 4954W        W23808   9.836   3.594   0.954  0.0808 -0.1863 -0.1766
 4955W        W23809   5.668   9.396  15.923  0.0094  0.3628 -0.2120
 4956W        W23810   9.504   0.410  15.618  0.1031 -0.1351  0.2339
 4957W        W23811   2.052  10.289   3.392  0.2266 -0.1411  0.0974
 4958W        W23812   6.263   0.422  17.401 -0.0643 -0.2955  0.0671
 4959W        W23813  16.300   3.522  16.601  0.1030  0.0357 -0.1347
 4960W        W23814   1.600  16.591  14.414  0.0450  0.1656 -0.2021
 4961W        W23815  15.037   6.575  13.836  0.2783  0.0605 -0.0434
 4962W        W23816   3.677   2.343   4.702 -0.1656  0.2418 -0.0728
 4963W        W23817  11.331   7.392  16.089  0.2407  0.1743 -0.1583
 4964W        W23818   2.836   8.890   0.088  0.2734  0.2684  0.1009
 4965W        W23819   9.280   4.867   2.239 -0.0857 -0.0930 -0.1191
 4966W        W23820  14.485   1.621  16.486  0.1125  0.2872  0.1031
 4967W        W23821   4.451   5.296   0.654  0.0407 -0.1867 -0.0039
 4968W        W23822   7.358   8.084   1.651 -0.0731  0.3169  0.1778
 4969W        W23823  13.815  15.744   4.084 -0.0950 -0.2058 -0.0159
 4970W        W23824   7.727   8.262  16.667  0.1989  0.1960  0.0313
 4971W        W23825   0.844  12.489  16.725 -0.1521 -0.0489  0.0569
 4972W        W23826   8.128   3.511   5.762 -0.0048  0.0105  0.2307
 4973W        W23827   0.590   7.178   2.776 -0.3622  0.2279 -0.0095
 4974W        W23828   9.858  15.104   1.635  0.0103 -0.1827  0.3856
 4975W        W23829   6.837   1.103   0.588  0.1602 -0.0572  0.0719
 4976W        W23830   4.083   9.892  14.114  0.0033  0.0169  0.1041
 4977W        W23831  16.642   7.874   2.982  0.0341 -0.0148  0.0040
 4978W        W23832  10.687  13.731   4.547  0.0420 -0.0795 -0.0291
 4979W        W23833   2.689   4.651  17.400  0.1226  0.1222  0.1463
 4980W        W23834   0.545   7.744   1.932 -0.1294  0.3882 -0.0056
 4981W        W23835  12.325  13.665  16.178  0.2097 -0.1227  0.0460
 4982W        W23836   4.270  11.349   3.798  0.2345 -0.0798  0.0143
 4983W        W23837   2.108  13.873   3.539  0.1622 -0.1000 -0.2457
 4984W        W23838  10.980   6.344  12.663 -0.0521  0.0939  0.1757
 4985W        W23839  15.935   9.226   1.709  0.0639 -0.0797 -0.0391
 4986W        W23840  12.256  12.599   0.224 -0.0292 -0.1582 -0.2296
 4987W        W23841  16.945   2.048  13.372  0.2561  0.1971 -0.0346
 4988W        W23842   5.104   7.058  15.375  0.3576 -0.0755  0.0759
 4989W        W23843   6.182  13.708   5.903 -0.0511  0.3540  0.0352
 4990W        W23844   8.579   6.308  13.337 -0.0894  0.1045  0.1861
 4991W        W23845   9.998   2.881  15.752  0.1243 -0.1209  0.1801
 4992W        W23846  15.764  12.034   2.555 -0.1563  0.1024  0.0639
 4993W        W23847   7.236  14.583  12.086  0.1149 -0.2351 -0.1115
 4994W        W23848   5.812   3.159   4.136 -0.0449 -0.1338  0.0721
 4995W        W23849   7.852   7.529  14.220 -0.2460  0.0381 -0.0588
 4996W        W23850   4.846  12.312  12.693 -0.0941  0.0222  0.1844
 4997W        W23851   8.032  10.811   3.587  0.1929 -0.3007 -0.1540
 4998W        W23852   6.536   8.834   5.287  0.3717 -0.0772 -0.0750
 4999W        W23853  10.711   9.549  12.463 -0.1472 -0.1069 -0.2350
 5000W        W23854  10.026   8.369   3.749  0.0211  0.0033  0.1740
 5001W        W23855   3.486  14.324   5.369  0.1839  0.1818  0.0812
 5002W        W23856   8.197  15.416   3.776 -0.0302 -0.1664 -0.1456
 5003W        W23857  13.233  16.621   3.093 -0.0922 -0.0495  0.1031
 5004W        W23858  10.972  13.024   3.880  0.1131 -0.1402  0.0953
 5005W        W23859  14.481   0.224  13.448  0.1177 -0.0991 -0.1509
 5006W        W23860   7.895   6.852   2.577  0.0918  0.0375  0.0225
 5007W        W23861   8.190   3.871  15.808  0.3684 -0.0391  0.2361
 5008W        W23862  15.308   4.905  13.161  0.3778  0.2661 -0.2824
 5009W        W23863  15.419  14.289  14.315 -0.2081  0.0313  0.1865
 5010W        W23864   6.907   2.972  13.700 -0.0689  0.0826  0.1772
 5011W        W23865   8.223   2.692   3.487  0.3693  0.2011  0.1523
 5012W        W23866  14.534  10.097   2.530  0.2183 -0.1292  0.1406
 5013W        W23867   2.734   2.982   5.364 -0.1031 -0.2475 -0.0869
 5014W        W23868   1.205   5.575   5.140  0.0633  0.0817 -0.0018
 5015W        W23869   8.755  12.258  12.055  0.2199 -0.4945 -0.0657
 5016W        W23870  15.242  17.221   4.858 -0.0193 -0.2953 -0.4178
 5017W        W23871   0.964  11.938   0.635 -0.1398  0.1301  0.0750
 5018W        W23872  12.878  16.695   4.321 -0.2048 -0.1115  0.2157
 5019W        W23873   3.445   2.616   2.218  0.3727  0.2349 -0.0462
 5020W        W23874  13.694  14.013  15.033  0.2082 -0.0253  0.0328
 5021W        W23875   6.028   4.667   0.101  0.0310  0.1306 -0.2155
 5022W        W23876  16.216   8.764  14.607  0.0687 -0.0972 -0.0155
 5023W        W23877   3.913   4.694  15.850 -0.1039 -0.2470  0.0735
 5024W        W23878  16.148   4.739   2.886  0.0842 -0.0832  0.0117
 5025W        W23879  17.258   6.587   1.576 -0.0333 -0.1545 -0.0646
 5026W        W23880   6.934  12.802  16.620  0.0681 -0.1707 -0.0573
 5027W        W23881  15.758  15.728  15.832 -0.5330  0.2168  0.0801
 5028W        W23882   0.342  14.598  15.926  0.3998 -0.0558 -0.1334
 5029W        W23883   8.282   8.146   2.595  0.0366  0.2195  0.1826
 5030W        W23884   0.800   6.070  14.533  0.1524  0.0186 -0.0651
 5031W        W23885  13.423   7.008   4.389  0.0340 -0.1688  0.0385
 5032W        W23886   9.850   7.285   1.145 -0.0777  0.0111  0.1693
 5033W        W23887   2.254  15.197   2.260 -0.0518  0.1044  0.0166
 5034W        W23888   7.115  10.146  14.333  0.1796 -0.0347 -0.0398
 5035W        W23889   4.310   2.263   2.089  0.1807 -0.1719  0.2678
 5036W        W23890   1.093   4.749  16.198 -0.2610  0.2640  0.0065
 5037W        W23891   7.451  16.940  17.229 -0.3518  0.0075 -0.1399
 5038W        W23892  14.847   1.426  15.518  0.0366 -0.0002  0.2686
 5039W        W23893  10.769  17.334   3.019 -0.0536  0.0252  0.0414
 5040W        W23894  10.924  11.504  17.159  0.1372 -0.1600 -0.0389
 5041W        W23895  13.109  10.951   4.971 -0.0277  0.1130  0.1867
 5042W        W23896  14.989  10.102   5.165 -0.0634 -0.0731  0.1319
 5043W        W23897   4.420  13.753  14.717 -0.0724  0.2058  0.1360
 5044W        W23898   7.270   3.638   4.602 -0.0338  0.0784  0.0532
 5045W        W23899  11.345  10.017   2.163  0.5297  0.2523  0.0921
 5046W        W23900   7.501  11.503  14.265  0.0105 -0.1129 -0.1093
 5047W        W23901   2.747  15.341   4.318 -0.1805  0.0629 -0.2515
 5048W        W23902   1.155   8.952  17.394  0.0352  0.3199 -0.0173
 5049W        W23903  15.281   9.675  14.459  0.3260  0.0495 -0.1523
 5050W        W23904   7.899  11.586  14.507 -0.0452 -0.0192  0.2582
 5051W        W23905   1.537  10.667  16.640 -0.0921 -0.4543 -0.1890
 5052W        W23906  14.303  11.181  16.824  0.2709  0.0815 -0.1360
 5053W        W23907  14.648  15.225   1.119  0.1195  0.1119  0.0061
 5054W        W23908   0.619  14.289  12.587 -0.0618 -0.0566 -0.1769
 5055W        W23909   7.881   1.483  15.363  0.1920  0.2659 -0.2389
 5056W        W23910   9.343   5.127   1.387 -0.0522  0.0142  0.1338
 5057W        W23911  14.487  15.332  15.810 -0.0596 -0.3831  0.1899
 5058W        W23912  11.421  17.242   6.290  0.1172  0.2046  0.1720
 5059W        W23913   2.286  15.777   2.938 -0.0218 -0.1906 -0.2762
 5060W        W23914   2.302  14.501   2.948 -0.1092  0.0253 -0.0482
 5061W        W23915  16.141   5.657  14.511  0.0749  0.1542  0.1007
 5062W        W23916  11.945  11.015   2.869  0.1164 -0.0792  0.0565
 5063W        W23917   6.518   2.040   1.828  0.4309  0.2323  0.0839
 5064W        W23918   5.665  16.964   2.501 -0.0903 -0.1167  0.0594
 5065W        W23919  15.847  15.444   0.149  0.0303 -0.2601 -0.3653
 5066W        W23920   0.920   2.683  17.346  0.1488  0.0368 -0.1955
 5067W        W23921   2.258   7.004  12.737 -0.0197 -0.0138  0.1795
 5068W        W23922  13.000   7.268   3.805 -0.0005 -0.2403 -0.1093
 5069W        W23923   7.091  10.649  17.243  0.1539 -0.2157  0.0413
 5070W        W23924  12.172   4.905   1.755  0.1095 -0.1275 -0.1251
 5071W        W23925   6.349   1.200   1.348  0.0277 -0.0736  0.2092
 5072W        W23926   6.482   0.986   5.322 -0.4215 -0.0451  0.1423
 5073W        W23927   8.223  14.931  16.133  0.1168 -0.1397  0.0277
 5074W        W23928  10.229   8.885  13.316 -0.0312 -0.0107  0.0424
 5075W        W23929   5.469  17.197   0.192  0.0568 -0.1194 -0.1725
 5076W        W23930   3.966   8.193  15.412  0.0176 -0.0521  0.2269
 5077W        W23931   2.667   2.428  15.588 -0.0235  0.0188 -0.1573
 5078W        W23932  16.364   6.132   0.260  0.0067 -0.0125 -0.0849
 5079W        W23933  16.778  10.663  17.024  0.1387 -0.1090 -0.0932
 5080W        W23934   7.795  14.715  12.813  0.0610  0.0685  0.4269
 5081W        W23935   0.422  14.187   2.547  0.1110  0.0287  0.0568
 5082W        W23936  13.793  14.134  15.504  0.0273 -0.0444  0.0506
 5083W        W23937   7.049   0.033   2.661 -0.0170  0.1251  0.2075
 5084W        W23938   5.464   8.941  16.097  0.0744  0.3818 -0.0172
 5085W        W23939   1.365  10.159  13.459 -0.3761 -0.0252  0.2128
 5086W        W23940   0.425   5.989  13.726  0.0240 -0.2342  0.3245
 5087W        W23941  12.575   7.004  17.216 -0.0785  0.1238  0.1515
 5088W        W23942   4.554   1.601   2.928 -0.1447 -0.2273 -0.1061
 5089W        W23943   0.726   8.316   3.881 -0.0098  0.0430  0.0776
 5090W        W23944   7.109   3.019   0.125  0.1070 -0.2088 -0.0141
 5091W        W23945   8.357   6.811  16.857 -0.1451 -0.0167  0.0096
 5092W        W23946   7.631   1.429  15.829 -0.1104 -0.0537  0.2899
 5093W        W23947  11.174   5.918   2.978  0.1795  0.2987  0.2302
 5094W        W23948  16.807  16.913  16.186  0.1852 -0.0188 -0.1001
 5095W        W23949  13.300  13.767  14.526 -0.0288  0.2470  0.2544
 5096W        W23950   2.745   0.335  16.912 -0.1165 -0.0156  0.1416
 5097W        W23951  15.075  16.831  13.081  0.1022 -0.1892  0.2139
 5098W        W23952  14.818  16.695   4.030  0.0123  0.3402  0.0579
 5099W        W23953  11.879  16.377  16.007 -0.1848 -0.3352 -0.0315
 5100W        W23954   1.596   6.982  12.375  0.0204  0.0992  0.3093
 5101W        W23955  10.426   9.373  13.225 -0.0181 -0.0600  0.1193
 5102W        W23956   4.287  13.332  12.612 -0.1864 -0.1750 -0.0925
 5103W        W23957  16.366  17.011   2.488 -0.0352  0.1589  0.2988
 5104W        W23958   0.471  10.381   1.627 -0.1604 -0.2125  0.0763
 5105W        W23959   9.164  11.565  15.050  0.2509 -0.2670  0.1416
 5106W        W23960   2.878  16.189   4.788  0.1005 -0.1592  0.1276
 5107W        W23961   3.921   7.415   4.912  0.2137  0.0576  0.1580
 5108W        W23962   1.283   1.283   0.064  0.0894 -0.1276  0.2284
 5109W        W23963   3.712  11.896   1.337 -0.3023  0.2341  0.1338
 5110W        W23964   6.323   1.966  13.789 -0.2905  0.1179  0.2070
 5111W        W23965  16.872   8.955   1.522  0.2395 -0.2420  0.0009
 5112W        W23966  15.679  16.544   3.584 -0.2162 -0.0364  0.1137
 5113W        W23967  15.816   6.653  17.214  0.1245 -0.0140 -0.0655
 5114W        W23968  14.379  11.471   2.852 -0.0964  0.2400 -0.2411
 5115W        W23969  10.695   5.403  16.397  0.1915  0.0147 -0.1909
 5116W        W23970   1.186  12.241  14.343 -0.1025  0.2418  0.2545
 5117W        W23971  10.641  14.986  16.864  0.2727 -0.3180  0.0132
 5118W        W23972   0.412   1.114  12.915  0.3942  0.0023 -0.0541
 5119W        W23973   7.458   9.915   4.002 -0.0373  0.3077 -0.0530
 5120W        W23974   0.347   8.231   5.181  0.1276  0.0968 -0.0420
 5121W        W23975   8.944   8.123   3.223  0.0862  0.1814  0.0360
 5122W        W23976  13.487  11.676   4.756 -0.3506  0.2338  0.0549
 5123W        W23977   4.298   7.204   3.072 -0.1821 -0.1855 -0.0325
 5124W        W23978   3.752  11.379  15.661 -0.0469 -0.0305 -0.2243
 5125W        W23979   8.151  16.295  16.914  0.1201  0.2436 -0.1675
 5126W        W23980  10.840   6.012   2.453  0.1407  0.2532 -0.0797
 5127W        W23981  16.987   9.395   1.897 -0.0844 -0.3401  0.1103
 5128W        W23982   4.510   9.574   1.594  0.0453 -0.0723  0.0163
 5129W        W23983   6.716   0.784   2.383  0.0545  0.1742 -0.1005
 5130W        W23984   6.415  15.047  13.925 -0.2902  0.0300 -0.0635
 5131W        W23985   4.385  13.640   3.369 -0.2773 -0.0304 -0.0052
 5132W        W23986  11.654   5.654  14.183 -0.0484 -0.0551  0.0365
 5133W        W23987   4.140  11.312   1.427 -0.0953  0.1247  0.1347
 5134W        W23988   0.750   0.593   4.372  0.0838  0.2292 -0.0238
 5135W        W23989   6.207  15.204   2.083 -0.1288  0.2153  0.0603
 5136W        W23990  11.826  11.854   2.231 -0.3242  0.0558 -0.2197
 5137W        W23991  15.996  11.088   4.510 -0.1436  0.0846  0.2345
 5138W        W23992  14.177   4.090  12.969  0.0251  0.1795 -0.1663
 5139W        W23993   4.995   6.649  16.134 -0.0727  0.0563  0.0073
 5140W        W23994  10.297   5.532   0.999  0.1505  0.1289 -0.1660
 5141W        W23995   2.073   7.535   5.099 -0.0690  0.3056  0.0762
 5142W        W23996  13.594  11.152  16.697 -0.0187 -0.1117 -0.0837
 5143W        W23997   6.907   3.955  16.020  0.0915 -0.3991  0.2843
 5144W        W23998   6.715   4.994   2.564  0.0927  0.2509 -0.0344
 5145W        W23999   5.840  15.241   2.957 -0.3374  0.1042 -0.1300
 5146W        W24000   3.792   5.670  14.417 -0.0263  0.2576 -0.0190
 5147W        W24001   6.701  14.238   1.955  0.1989 -0.0521  0.0202
 5148W        W24002   5.185  14.133   0.489 -0.0919 -0.1995  0.0550
 5149W        W24003   6.225   0.828   2.636  0.2102 -0.3242 -0.2620
 5150W        W24004  14.629   7.564  17.405 -0.2295 -0.1103  0.1381
 5151W        W24005   2.922  12.485  15.648  0.0915  0.2125 -0.2073
 5152W        W24006  13.329   9.408   2.042  0.2113  0.2600 -0.1970
 5153W        W24007  13.662   1.909   4.163  0.5040  0.2833  0.1542
 5154W        W24008   3.766   4.871   4.904  0.1679 -0.0994  0.1045
 5155W        W24009   9.353  17.322   0.993 -0.2130  0.2155 -0.1526
 5156W        W24010  11.677  15.019   4.352  0.1461  0.1080 -0.0045
 5157W        W24011  10.198   9.257  11.529  0.0314 -0.0948  0.0267
 5158W        W24012  15.519  13.097   1.951 -0.0289 -0.1998 -0.2900
 5159W        W24013  11.756   8.291   2.040  0.5236 -0.3430 -0.0094
 5160W        W24014   2.978   2.579  16.516  0.1074  0.1549  0.1021
 5161W        W24015   1.518   0.351  14.143 -0.1097  0.1502 -0.1271
 5162W        W24016   4.391   5.867  15.621  0.0577  0.2172 -0.1290
 5163W        W24017  12.370  16.599   1.599  0.0432  0.2375 -0.0695
 5164W        W24018   4.402  14.858  16.017 -0.1032 -0.1734 -0.1067
 5165W        W24019   2.124  10.308  15.755 -0.1436 -0.3042 -0.1053
 5166W        W24020   7.547  17.056  15.670 -0.2207  0.2537 -0.0803
 5167W        W24021  12.664  12.403   2.188  0.0474 -0.0095 -0.0818
 5168W        W24022   0.360  15.301   1.648 -0.1313 -0.3015  0.1592
 5169W        W24023  14.103   6.601   1.784 -0.0161 -0.1989 -0.0006
 5170W        W24024   3.084   1.104   4.649  0.1875 -0.5356  0.1144
 5171W        W24025   5.819   3.471  15.888  0.0380 -0.0221  0.0305
 5172W        W24026   6.561   8.816  16.946 -0.2173  0.1457 -0.2036
 5173W        W24027  10.063  11.736   6.037  0.0975  0.0536  0.1849
 5174W        W24028  13.570  10.090  14.352 -0.1143 -0.0095 -0.0042
 5175W        W24029  13.823  15.878   3.235 -0.3855  0.1276 -0.1968
 5176W        W24030  15.746   5.887   0.177 -0.3681  0.0506 -0.0910
 5177W        W24031   4.160   9.629  13.235  0.1572 -0.4398 -0.0481
 5178W        W24032  17.300  12.508   1.339 -0.0679  0.2248 -0.1290
 5179W        W24033  14.851   3.474  16.717  0.0477 -0.2295 -0.0425
 5180W        W24034  15.535  16.483   1.470 -0.1868  0.1412  0.0776
 5181W        W24035   1.553  10.057  14.361 -0.0507  0.2302  0.0905
 5182W        W24036  12.388   7.954   5.394  0.2064 -0.0046  0.0217
 5183W        W24037   6.120  16.834   2.196  0.1486  0.1792 -0.1437
 5184W        W24038   8.803  10.957  15.330  0.3559 -0.2081  0.0200
 5185W        W24039  15.486   1.350  13.286  0.2153 -0.0676  0.0472
 5186W        W24040  14.476   7.615  13.259 -0.1200 -0.1500 -0.0099
 5187W        W24041   2.936  11.900  15.562  0.0844 -0.0667 -0.1653
 5188W        W24042  10.669  15.422   2.032  0.2859  0.1507  0.3822
 5189W        W24043   1.003  16.992   6.500  0.1647 -0.0835 -0.1517
 5190W        W24044   9.297  16.791   5.148 -0.0820  0.4500 -0.0775
 5191W        W24045   9.370  12.941  15.453  0.2676 -0.0191 -0.1397
 5192W        W24046  14.426   1.728  15.573  0.2556  0.1683 -0.1177
 5193W        W24047   0.467  10.732  15.135 -0.1013  0.0389 -0.0831
 5194W        W24048  11.722   6.344  14.069 -0.1485  0.0744  0.0426
 5195W        W24049   2.588   2.874  17.347 -0.0553  0.2856 -0.1735
 5196W        W24050   9.391   8.211   4.755 -0.0073  0.1457  0.3950
 5197W        W24051  12.152   8.113  16.644  0.0248 -0.0310  0.0777
 5198W        W24052   9.558  10.701   1.221 -0.2935 -0.0846 -0.1260
 5199W        W24053   5.407   7.765  15.767  0.0091 -0.1345  0.5358
 5200W        W24054  13.702   9.922   0.223  0.0379  0.0938  0.0266
 5201W        W24055   2.373   4.081  12.313  0.2809  0.2797 -0.0430
 5202W        W24056   9.274   2.343  15.860 -0.3823 -0.1707  0.0154
 5203W        W24057  11.410  10.674  12.564  0.0015  0.0788  0.1835
 5204W        W24058   6.574   9.327   5.437  0.3453 -0.1200  0.1667
 5205W        W24059   2.804   2.551   0.268  0.1106  0.2141  0.0486
 5206W        W24060   7.439  13.055  12.401 -0.0357 -0.0319  0.0584
 5207W        W24061   0.715  12.626  15.794 -0.1349 -0.1786  0.4975
 5208W        W24062  15.188  14.070  12.494 -0.0238 -0.2360  0.1773
 5209W        W24063  12.651  11.249  15.503 -0.1781 -0.2111 -0.0645
 5210W        W24064   9.258   9.907  17.236  0.1982 -0.0730  0.1845
 5211W        W24065   4.137   5.928  13.470  0.1630 -0.2917  0.4093
 5212W        W24066  10.358  13.083  13.265  0.1931 -0.1465  0.3201
 5213W        W24067   4.164   0.212   4.145  0.0558  0.0991 -0.0769
 5214W        W24068   7.630   0.891  13.254  0.1447 -0.0953 -0.3332
 5215W        W24069  14.042   8.687  13.761  0.0713 -0.1446  0.1759
 5216W        W24070  14.242   0.381  17.313  0.0508 -0.0893 -0.0094
 5217W        W24071   2.731   9.049   1.645  0.0348  0.0210 -0.1862
 5218W        W24072  12.436   9.193   4.429  0.0230  0.0824 -0.0012
 5219W        W24073   5.924   7.993  14.400  0.1832  0.2525 -0.0791
 5220W        W24074  13.931   8.426  12.202 -0.0462  0.1205 -0.0361
 5221W        W24075   1.114  11.377  13.877 -0.0663 -0.0450  0.4114
 5222W        W24076   5.199   8.419  14.225  0.0344  0.2489 -0.1228
 5223W        W24077   5.885  11.870   1.873  0.1113 -0.1831 -0.0055
 5224W        W24078  11.173  17.151   3.231  0.0601  0.1397  0.0048
 5225W        W24079   2.823   2.104   4.950  0.3644  0.0831  0.1418
 5226W        W24080  12.432   4.426   1.678 -0.1189  0.1320 -0.1397
 5227W        W24081   0.740   4.013  16.334  0.0048  0.0255 -0.1243
 5228W        W24082  14.877  12.175   4.993 -0.0977  0.0831 -0.1647
 5229W        W24083  16.221   7.101   0.153  0.2604  0.1055 -0.2470
 5230W        W24084   2.009   8.506   1.035  0.3263  0.2245 -0.2165
 5231W        W24085   0.219   8.290   4.638  0.0264 -0.2232 -0.1229
 5232W        W24086   5.309   3.698   3.951 -0.3677  0.0985  0.0929
 5233W        W24087   4.853  15.427  12.505 -0.0755 -0.2928 -0.0196
 5234W        W24088   5.560   4.799   0.182 -0.0808 -0.0607 -0.4195
 5235W        W24089   4.700   6.692   5.187  0.0029 -0.0221 -0.3048
 5236W        W24090   3.932   9.288   1.608  0.2032  0.2958  0.1692
 5237W        W24091   0.712  10.641   4.446 -0.2085 -0.2419 -0.2153
 5238W        W24092   6.950   9.267  11.710  0.1860  0.2186 -0.3145
 5239W        W24093  13.176  12.418  16.193  0.0094 -0.2054  0.1209
 5240W        W24094  12.348   1.367  16.162 -0.1187 -0.2698 -0.0960
 5241W        W24095   9.173   2.039  13.169  0.0205 -0.1301 -0.1174
 5242W        W24096   2.016   8.687  16.047  0.0508  0.0077  0.0567
 5243W        W24097   8.480  11.264   3.623  0.0684 -0.0281 -0.0489
 5244W        W24098  15.459  10.181   0.121  0.7186  0.0326  0.2109
 5245W        W24099   0.141  14.399  17.340 -0.1658 -0.2590  0.3211
 5246W        W24100   5.639   2.642  15.449  0.0203 -0.1349 -0.0904
 5247W        W24101   7.051  14.399   3.347  0.0305 -0.1575 -0.1043
 5248W        W24102  16.279   5.176  11.626 -0.2421  0.2197  0.0045
 5249W        W24103  15.911   1.901  12.613 -0.0215 -0.2226 -0.0710
 5250W        W24104   2.450  13.364   4.334  0.2879 -0.0729  0.0340
 5251W        W24105  15.975   4.282   3.855  0.0039  0.3453  0.1578
 5252W        W24106   7.167   7.748   4.171 -0.1989  0.1856 -0.0794
 5253W        W24107   0.620  13.249  13.396  0.0620  0.1047  0.2283
 5254W        W24108   7.880   2.139  14.122  0.1975  0.1165  0.3831
 5255W        W24109   0.846   7.309  13.587  0.4271  0.0672  0.0617
 5256W        W24110  13.011   7.606  15.359  0.1872 -0.0250  0.0271
 5257W        W24111  10.233  14.629  14.671  0.3520 -0.0382 -0.0186
 5258W        W24112   9.002  13.380  14.343 -0.2026  0.2846 -0.2592
 5259W        W24113  12.565   7.556   1.233 -0.0313  0.0268 -0.1161
 5260W        W24114   8.106   0.857   5.182 -0.0253  0.0752  0.1245
 5261W        W24115   2.780   2.930   3.384 -0.0731 -0.1321  0.0637
 5262W        W24116   3.642   7.520   1.728 -0.3599 -0.1050  0.1000
 5263W        W24117  16.727   8.179   3.387  0.1061 -0.1290  0.1973
 5264W        W24118   6.099  13.155  12.282 -0.4625  0.2156  0.1296
 5265W        W24119   2.053   0.782  17.349 -0.1869 -0.1167  0.1834
 5266W        W24120  11.722   7.815   1.380 -0.2523 -0.2721  0.0106
 5267W        W24121  17.009  13.705   3.804  0.1992  0.2237  0.1641
 5268W        W24122  10.398  16.350  16.508  0.1681 -0.0637  0.0337
 5269W        W24123  13.698  13.027   1.775 -0.1264  0.4146  0.3002
 5270W        W24124   7.719   4.495  15.999  0.0806 -0.0003 -0.3633
 5271W        W24125   4.446   5.651   3.714 -0.2037 -0.0415 -0.0066
 5272W        W24126  14.755  11.586  16.384  0.0696 -0.0610  0.2571
 5273W        W24127  11.693   1.720   0.679  0.0131 -0.2588 -0.0507
 5274W        W24128  14.684  16.225  14.997  0.0363  0.2155  0.4877
 5275W        W24129  10.079   6.773  16.769  0.0117  0.1884 -0.2097
 5276W        W24130   1.697   2.211  15.408 -0.2473 -0.0098  0.0345
 5277W        W24131  16.221  10.553   4.730 -0.0791 -0.2203  0.3131
 5278W        W24132   2.587   5.063  14.483  0.0193 -0.0966 -0.4672
 5279W        W24133  11.723  14.403  11.977 -0.0720  0.0778 -0.1248
 5280W        W24134   8.924  12.886   0.145  0.3218  0.1303  0.1815
 5281W        W24135   1.976  16.330  14.657 -0.1184 -0.1051 -0.0584
 5282W        W24136  12.337   0.362  15.764  0.0737  0.0133  0.2067
 5283W        W24137   8.098  10.695   1.188  0.1624  0.0704  0.0377
 5284W        W24138  10.319   1.744  13.272  0.1848  0.0938 -0.4553
 5285W        W24139  15.778   9.421  14.362  0.2102  0.1814  0.1250
 5286W        W24140  16.193  14.861  14.274  0.1242 -0.0047 -0.1313
 5287W        W24141  10.638   4.893   4.298  0.0700 -0.0974  0.1658
 5288W        W24142   1.287   9.491   1.320  0.3436 -0.1015  0.1792
 5289W        W24143  11.330   0.938  13.719 -0.1237 -0.1197 -0.0650
 5290W        W24144   5.178  15.713  13.271 -0.1169 -0.0580 -0.0095
 5291W        W24145   1.689   5.469   3.945 -0.0152  0.0518  0.0539
 5292W        W24146  15.164  13.786  12.979  0.1880  0.4335  0.1418
 5293W        W24147   0.234   9.723   2.338 -0.0453  0.2132  0.1522
 5294W        W24148  10.653   4.226  14.465 -0.5466  0.0702  0.4604
 5295W        W24149   0.129  14.221   5.019  0.1856 -0.0741  0.0650
 5296W        W24150   4.079  10.311  16.855 -0.1149  0.1486 -0.1264
 5297W        W24151   5.290   8.208  12.677 -0.1645  0.2939  0.0343
 5298W        W24152   6.693  10.202   0.656 -0.0755  0.1236  0.0366
 5299W        W24153   4.724  16.568   0.435  0.0850 -0.2768 -0.0152
 5300W        W24154  10.870  16.334  17.033  0.1244 -0.5319 -0.1377
 5301W        W24155  14.500  15.269   4.989  0.1256  0.1323 -0.2369
 5302W        W24156   7.046  10.616   0.672 -0.0834 -0.2090  0.1156
 5303W        W24157  12.315  11.319  12.798  0.0260  0.3617  0.0749
 5304W        W24158   3.762   5.842  15.496 -0.0456  0.0815 -0.1808
 5305W        W24159   5.616  11.316   5.107  0.0150 -0.0262 -0.3728
 5306W        W24160   0.167   5.594   0.123  0.1120  0.1420 -0.0302
 5307W        W24161   5.551   1.747   3.314  0.1108 -0.1382  0.1634
 5308W        W24162  16.034  15.791  16.749  0.0627  0.3230 -0.0492
 5309W        W24163   1.505   6.558   4.681  0.1294 -0.0315 -0.1268
 5310W        W24164  16.673  16.520   0.482 -0.0005 -0.0747  0.2024
 5311W        W24165  17.102   7.520  11.968  0.0173  0.1925  0.0537
 5312W        W24166  12.682  10.975  13.131  0.1183 -0.0717  0.0603
 5313W        W24167   6.201   5.675   2.874  0.1129  0.0667 -0.1951
 5314W        W24168  13.186   0.665  13.756 -0.2351  0.4044 -0.0476
 5315W        W24169  13.593   7.963   3.307  0.1883 -0.1187  0.1221
 5316W        W24170   1.881   5.924  17.261 -0.2029  0.1070 -0.0288
 5317W        W24171   8.868   6.706   2.614 -0.0205 -0.0166 -0.1678
 5318W        W24172   9.596   8.686   2.015  0.0956 -0.0642  0.0223
 5319W        W24173  10.467   9.254  15.430 -0.1689 -0.0992 -0.0705
 5320W        W24174  15.571   0.803  15.812  0.0239 -0.1758  0.0633
 5321W        W24175   0.583   3.553  15.051  0.1191  0.0531 -0.1997
 5322W        W24176   6.338   2.727   0.587  0.0206 -0.2338 -0.1048
 5323W        W24177   4.207  10.137   2.348 -0.1354  0.1754 -0.0634
 5324W        W24178   2.104   3.863  13.609  0.0589  0.0682 -0.1768
 5325W        W24179  15.732   7.877   4.683  0.1001 -0.3475  0.1265
 5326W        W24180   4.371   6.175   2.934 -0.3239 -0.0508  0.5419
 5327W        W24181   3.281   3.171  15.177  0.1299 -0.0365 -0.0441
 5328W        W24182   7.638   0.735   4.929  0.0971  0.0185 -0.1700
 5329W        W24183  16.893  16.873  12.780  0.1101  0.3466  0.0156
 5330W        W24184   5.579   8.575  13.396  0.1341 -0.2145 -0.0714
 5331W        W24185   4.533   8.558  13.186 -0.1412  0.1530 -0.2995
 5332W        W24186  14.991   3.849  15.260  0.0437  0.2939 -0.0994
 5333W        W24187  14.958  10.268   0.117  0.0515 -0.0669  0.1435
 5334W        W24188   9.314   1.020   2.710 -0.1601 -0.4346  0.1084
 5335W        W24189   3.580  13.033  16.181  0.0454  0.0792  0.1989
 5336W        W24190  15.977  11.021  15.966 -0.1250 -0.1370 -0.1371
 5337W        W24191   6.019   1.958  13.267  0.0275 -0.1077  0.2140
 5338W        W24192  10.736  10.979   1.951 -0.0593  0.1387 -0.0309
 5339W        W24193   3.540   8.386  15.237 -0.2567 -0.3104 -0.3329
 5340W        W24194  15.638  15.806   4.093 -0.0654 -0.2897  0.2060
 5341W        W24195   2.351   1.718  13.403  0.3196  0.1021 -0.2723
 5342W        W24196  14.499   3.413   3.739  0.3907 -0.0136  0.0197
 5343W        W24197   5.348  15.160   2.727  0.1841  0.1785  0.1444
 5344W        W24198   1.460   0.356   5.784 -0.2359  0.0843  0.0082
 5345W        W24199   4.006   5.325   3.411 -0.0463 -0.2405  0.4108
 5346W        W24200  11.577  14.716  13.459 -0.2495  0.0290  0.2150
 5347W        W24201  14.006  14.526   3.974  0.1702 -0.0103 -0.0148
 5348W        W24202   0.662   9.761  13.218 -0.2066 -0.2516  0.4937
 5349W        W24203   1.396  14.333   2.821 -0.0143  0.5696 -0.0252
 5350W        W24204   1.547   1.432  15.437 -0.0893 -0.3436 -0.0508
 5351W        W24205   2.946   8.029  13.633 -0.0113 -0.0178 -0.1376
 5352W        W24206  15.469  13.639   4.721  0.4441  0.2261  0.0646
 5353W        W24207  17.135  10.545  16.583 -0.1567 -0.1262 -0.0681
 5354W        W24208   8.736   6.939  12.779 -0.1669 -0.1090  0.1607
 5355W        W24209   8.220   2.956   0.356  0.3057  0.0330 -0.0436
 5356W        W24210   9.850  11.607  13.394 -0.0694  0.2539 -0.0549
 5357W        W24211  10.840   1.888  14.626 -0.4338 -0.1280 -0.1576
 5358W        W24212   8.137   3.687  15.330  0.0642 -0.1333 -0.3284
 5359W        W24213   4.998   1.655  15.246 -0.0504 -0.0741 -0.2128
 5360W        W24214  13.467  16.613  14.696  0.0039  0.0710 -0.3605
 5361W        W24215   9.548  12.495  12.150 -0.2414 -0.0601 -0.2679
 5362W        W24216   7.769  15.623  14.626  0.0103 -0.0694  0.2553
 5363W        W24217   8.152  12.719   3.469 -0.0899 -0.0372 -0.3227
 5364W        W24218  14.385  15.069  13.078  0.1885 -0.1535 -0.3223
 5365W        W24219  13.463  10.997  14.537  0.0512  0.3788  0.3355
 5366W        W24220   6.336  14.751   0.559  0.0607  0.1662 -0.0095
 5367W        W24221  13.992  11.361  11.951  0.0048  0.2775 -0.0236
 5368W        W24222  10.616   5.045  17.333 -0.1507  0.0112  0.0359
 5369W        W24223   7.596   0.504   2.848 -0.4089 -0.2251  0.2214
 5370W        W24224   5.537   0.635  17.387 -0.0930  0.2721  0.0393
 5371W        W24225  15.499   8.746  13.078  0.0042  0.2763 -0.0032
 5372W        W24226   4.940  14.159  17.443 -0.0738  0.1843 -0.2460
 5373W        W24227   3.023  13.637  17.111 -0.0850  0.1858 -0.0769
 5374W        W24228   5.196  15.759  16.280  0.0925 -0.0534  0.3141
 5375W        W24229   1.907   0.033   0.322 -0.1736  0.0927  0.1114
 5376W        W24230  14.236   6.390  16.521  0.1218  0.1354 -0.0659
 5377W        W24231   0.809  16.861   0.610  0.1312 -0.1100  0.0512
 5378W        W24232   2.508   0.492  16.193 -0.3327  0.0861 -0.0310
 5379W        W24233   1.644  12.907   2.876  0.1039  0.2001 -0.0991
 5380W        W24234   7.209   0.334   1.370 -0.1753 -0.1250 -0.1140
 5381W        W24235   0.556  14.974  13.153  0.0472  0.0504  0.0658
 5382W        W24236   0.375   1.943   0.902 -0.0123 -0.2941 -0.4106
 5383W        W24237  11.922   4.891  16.151  0.2771  0.2233 -0.0610
 5384W        W24238   0.639  12.757   4.324 -0.0096 -0.0041  0.0976
 5385W        W24239  14.503   1.477  14.207  0.1451 -0.1933  0.0236
 5386W        W24240   3.609   1.365   3.033 -0.0343 -0.1174  0.0145
 5387W        W24241  12.821  15.550   1.130  0.4976 -0.0561 -0.2884
 5388W        W24242   2.653   3.883   5.083  0.0844  0.0444 -0.0486
 5389W        W24243  12.074  14.678  14.295 -0.0189  0.1167  0.0813
 5390W        W24244   5.277   8.741  14.570  0.0806 -0.1021  0.1061
 5391W        W24245  15.094   6.644  15.626 -0.2838 -0.0066 -0.2024
 5392W        W24246  16.929   3.668  13.292 -0.1485  0.1210 -0.0656
 5393W        W24247  15.002  15.346  15.008 -0.2613 -0.2871 -0.1412
 5394W        W24248   4.863   9.228  13.402 -0.0384 -0.0972  0.0029
 5395W        W24249  16.302   2.317  15.950 -0.1260  0.0408  0.0102
 5396W        W24250   7.113  11.675  16.796  0.0658 -0.1074  0.1032
 5397W        W24251   0.302   4.659  17.205 -0.0813  0.0031 -0.0553
 5398W        W24252  10.614   4.664  14.778 -0.1308  0.1123 -0.0433
 5399W        W24253   9.248   4.169   5.448 -0.1280  0.2460  0.5171
 5400W        W24254   2.126   9.221   1.882 -0.0694 -0.0906  0.2630
 5401W        W24255   5.797   7.699   0.025  0.0949 -0.3465  0.0478
 5402W        W24256   4.414  16.762  14.005 -0.1685  0.0929  0.0426
 5403W        W24257   5.042  15.436  15.914 -0.0903  0.0067  0.1733
 5404W        W24258   7.989   8.667   1.741  0.0203  0.0539  0.2699
 5405W        W24259  11.755   0.917   1.776  0.1581 -0.2619 -0.0730
 5406W        W24260   5.703   6.489   3.126 -0.0846  0.0693  0.1586
 5407W        W24261   3.804  13.420   3.873 -0.0794  0.0378 -0.0687
 5408W        W24262   7.080   3.485  17.319 -0.0989  0.0744 -0.1039
 5409W        W24263  10.519  14.032  16.750 -0.0227 -0.1036 -0.2571
 5410W        W24264   8.860   7.674   3.443  0.4106  0.3452  0.1761
 5411W        W24265   7.624   4.991   6.592  0.0988  0.1934 -0.0542
 5412W        W24266  15.930  17.296   4.397 -0.2254  0.0452  0.2702
 5413W        W24267   0.005  16.357   3.359  0.4372  0.1480 -0.0805
 5414W        W24268  12.672  13.020   4.558 -0.1027  0.1688 -0.1951
 5415W        W24269  15.390  12.423  13.100  0.0664  0.0500  0.1958
 5416W        W24270   1.105  10.028   0.680  0.1477 -0.1287  0.0539
 5417W        W24271  15.526   7.454   5.494 -0.2766  0.1529  0.0881
 5418W        W24272   3.781  16.913   1.079  0.0008 -0.1682  0.1675
 5419W        W24273   6.008   5.625   3.454  0.0219  0.2997  0.0314
 5420W        W24274  12.985   7.302   2.542 -0.3236 -0.0950 -0.0091
 5421W        W24275   8.171   9.486   1.966 -0.2028 -0.1830 -0.1587
 5422W        W24276  12.478  15.057   3.689  0.0133  0.0387 -0.1599
 5423W        W24277  13.289   9.066  16.841  0.0955 -0.1637  0.1135
 5424W        W24278  16.791   5.364   1.271  0.0953 -0.0343  0.2137
 5425W        W24279   9.624  14.762   5.286 -0.3394 -0.1472  0.1151
 5426W        W24280  15.262  10.679   2.137  0.1373  0.2227 -0.1518
 5427W        W24281   4.229   6.741   4.200 -0.0567 -0.1919  0.0063
 5428W        W24282  11.288  15.430  15.109  0.1286  0.2473 -0.0955
 5429W        W24283   0.863  10.425  15.969  0.0225  0.2660 -0.0532
 5430W        W24284   0.109   8.547  15.037  0.1647 -0.2500  0.1286
 5431W        W24285   3.063   7.375  14.389 -0.0823 -0.0282  0.1691
 5432W        W24286   8.241  10.043  15.404  0.1206 -0.2864 -0.2053
 5433W        W24287  16.128   1.775  15.683  0.0624 -0.0819  0.0706
 5434W        W24288   9.250  16.320   5.021 -0.2367  0.2752  0.0042
 5435W        W24289  15.588   3.328  16.961  0.3639 -0.0859  0.1544
 5436W        W24290   7.865   3.116   2.554  0.3639  0.2073 -0.0413
 5437W        W24291  15.320  13.976  16.472  0.1246  0.3083  0.1019
 5438W        W24292  12.252   1.820  15.972 -0.0990  0.1885  0.0088
 5439W        W24293   8.448   6.402   5.679 -0.0762 -0.3274  0.2635
 5440W        W24294  11.942  10.400   0.458 -0.2001 -0.2836 -0.2798
 5441W        W24295   8.579  13.641   1.453 -0.1786 -0.0710 -0.1944
 5442W        W24296  13.533  11.440   1.354 -0.1027  0.1153 -0.0103
 5443W        W24297   5.252   7.795   5.574 -0.0529  0.0759 -0.1701
 5444W        W24298  10.232  14.558   2.281  0.1220  0.0591 -0.2718
 5445W        W24299  11.112  14.671   2.539  0.0086 -0.1363 -0.0517
 5446W        W24300   2.342  11.644  13.454  0.2149  0.0838  0.0563
 5447W        W24301   9.502   3.755   1.948  0.2816  0.2208  0.0089
 5448W        W24302   5.137  16.945  14.124 -0.0668  0.0414  0.1040
 5449W        W24303  16.646  16.416  16.526 -0.2877 -0.2848  0.0152
 5450W        W24304   4.157  11.955   1.526 -0.0721  0.0221  0.0665
 5451W        W24305  10.222  15.590  12.639  0.2499 -0.0028  0.0938
 5452W        W24306  11.530   5.287   0.949  0.0612 -0.1685  0.3803
 5453W        W24307  11.565  10.586   3.697 -0.0538 -0.1291 -0.1857
 5454W        W24308   8.116  14.394  13.122  0.1600  0.0594 -0.1026
 5455W        W24309   9.371  14.706   3.395 -0.2431  0.1362 -0.1356
 5456W        W24310  13.159  16.231   0.357  0.0058 -0.3710  0.1519
 5457W        W24311   7.444   9.773  14.454 -0.2162  0.0107 -0.0340
 5458W        W24312   9.143   2.862   3.315 -0.0242  0.2309  0.3740
 5459W        W24313   0.016   1.636  14.968  0.0029 -0.1033 -0.0466
 5460W        W24314   8.669   6.881   2.203  0.1728 -0.1116  0.1620
 5461W        W24315   1.617   0.919   0.230 -0.0157 -0.1296  0.1367
 5462W        W24316   5.573  13.631   1.278  0.1498 -0.0340  0.0082
 5463W        W24317   4.949  11.465   3.877 -0.1533  0.3134  0.1670
 5464W        W24318   1.709  12.066   2.542  0.2569 -0.1100 -0.0279
 5465W        W24319   6.504   3.452  16.391 -0.2467 -0.0774  0.0903
 5466W        W24320   6.325  14.703   5.111 -0.0115  0.0008 -0.1285
 5467W        W24321   2.427   9.880  17.387  0.5062 -0.2182  0.0355
 5468W        W24322  10.173  10.157   3.415 -0.3108  0.1526  0.1481
 5469W        W24323   5.128  11.426   0.932  0.0271 -0.1053  0.1391
 5470W        W24324   9.906  12.162   0.190 -0.2796  0.0514 -0.0467
 5471W        W24325   3.746   4.671   0.366  0.0952  0.1081 -0.3234
 5472W        W24326  10.702   4.942   1.559 -0.0358  0.1559 -0.0295
 5473W        W24327  16.766   5.881  13.862  0.1465  0.0019  0.3177
 5474W        W24328   7.140   0.484  16.841 -0.0925 -0.0204  0.2453
 5475W        W24329   8.676  15.806   1.133  0.0913 -0.0813  0.2294
 5476W        W24330  11.867   1.561   0.247 -0.1965 -0.1100  0.1428
 5477W        W24331   9.587   1.548   4.643  0.0970  0.1088 -0.0793
 5478W        W24332   6.515  15.777  14.588  0.0853  0.0458 -0.0022
 5479W        W24333  12.972   6.706  17.395  0.2027  0.0998  0.1299
 5480W        W24334   3.133   4.601   2.193 -0.1312  0.2243 -0.1539
 5481W        W24335  14.651   4.996   0.345  0.3410 -0.0428 -0.1848
 5482W        W24336  16.028   8.259  13.768  0.0939  0.1491 -0.0993
 5483W        W24337  11.374   8.060   1.122 -0.2368  0.0076  0.0913
 5484W        W24338   6.206   3.789   2.357  0.0984 -0.0184  0.6227
 5485W        W24339  13.623   9.553  13.718  0.0841 -0.0964 -0.3292
 5486W        W24340   7.598   8.675   4.570 -0.2415  0.2435  0.0880
 5487W        W24341  14.245  11.752  16.526 -0.2718  0.1502 -0.3439
 5488W        W24342  15.826  10.217  14.981  0.1529 -0.1126 -0.1460
 5489W        W24343  11.439  15.736  17.155 -0.1239 -0.1736  0.1993
 5490W        W24344   4.176   7.845   0.958 -0.3344 -0.0085 -0.0869
 5491W        W24345   4.511   2.589  15.421  0.0068 -0.0728  0.0293
 5492W        W24346  11.194   2.572   4.896  0.2359 -0.0932 -0.0364
 5493W        W24347  13.102   9.893  16.447  0.1324 -0.0037  0.3176
 5494W        W24348   6.398  14.992  16.192 -0.0547 -0.3458  0.0213
 5495W        W24349  10.086   8.979  16.076 -0.2326 -0.3787 -0.1780
 5496W        W24350  11.635  12.258  14.981 -0.0656 -0.1119 -0.1296
 5497W        W24351  13.543  12.509  13.646  0.3309  0.0066 -0.1110
 5498W        W24352   2.610   3.553   2.868 -0.0668  0.0255 -0.1079
 5499W        W24353  15.601   8.432   0.179 -0.1052 -0.0344  0.1280
 5500W        W24354   8.046   3.581  17.224  0.2305 -0.0977  0.2366
 5501W        W24355   9.251  15.111   5.441  0.1117 -0.0038 -0.1126
 5502W        W24356  12.077   9.816   3.849  0.0739 -0.0046 -0.1602
 5503W        W24357   5.066   0.880  17.239  0.0769  0.0099 -0.0384
 5504W        W24358   7.823   8.487  14.595  0.1374  0.1155 -0.0068
 5505W        W24359  10.298  14.277   0.626 -0.0915  0.1017  0.1894
 5506W        W24360  15.526   1.662  13.698 -0.0409  0.3682 -0.1521
 5507W        W24361   4.031  14.955  17.066  0.0768 -0.0197 -0.0859
 5508W        W24362   1.263   0.801  12.937  0.2473  0.1852 -0.0825
 5509W        W24363   3.802   2.799  14.649  0.1134  0.2411 -0.1657
 5510W        W24364   6.855   5.409  12.605 -0.0022  0.0476  0.0640
 5511W        W24365   4.748   4.352  17.208  0.1178 -0.2294 -0.2465
 5512W        W24366  15.322   1.196   1.891  0.3685  0.1232  0.1824
 5513W        W24367  10.798   6.938   1.529 -0.1646  0.0755  0.1884
 5514W        W24368   4.357   8.883   0.991  0.1307 -0.0258  0.0215
 5515W        W24369   8.454   8.705  15.689  0.5178 -0.1430  0.1333
 5516W        W24370  14.973   0.865   1.250 -0.3488  0.0665  0.1135
 5517W        W24371   8.087  11.922   2.830 -0.0630 -0.0910 -0.0775
 5518W        W24372   5.807   3.916   3.226  0.1745  0.3872 -0.0509
 5519W        W24373   9.601   6.386  14.898 -0.1105 -0.0177  0.0591
 5520W        W24374  15.621   9.196   2.084 -0.1545  0.1466 -0.0025
 5521W        W24375  16.757   6.136  16.476  0.2856 -0.1079 -0.1959
 5522W        W24376  14.048  16.048   1.315 -0.1951 -0.1911 -0.1101
 5523W        W24377  11.777   7.145  16.817  0.1205  0.0103  0.2794
 5524W        W24378   2.243  16.645  16.985  0.0219  0.1111 -0.1337
 5525W        W24379  15.530   8.679  15.013  0.2976  0.1768  0.1185
 5526W        W24380  14.599  13.030  13.116  0.3550  0.1026 -0.2204
 5527W        W24381  14.946   2.819  17.393 -0.3048  0.2471  0.0461
 5528W        W24382   3.426  10.823   2.822 -0.0463 -0.1761  0.0269
 5529W        W24383   8.660  14.557  13.161  0.0613 -0.1622  0.0337
 5530W        W24384   1.987  12.416  15.305  0.1175 -0.1993  0.1750
 5531W        W24385  14.453   5.118   1.026 -0.2326 -0.7088  0.0019
 5532W        W24386  14.307   3.645   2.004 -0.1078 -0.1036  0.0329
 5533W        W24387   6.201   6.258   2.701 -0.0207 -0.2290  0.0208
 5534W        W24388   7.831  10.597   4.517 -0.0606 -0.0223 -0.1991
 5535W        W24389   3.673   2.474   5.536 -0.5101  0.1623 -0.4326
 5536W        W24390   7.369  15.756  15.531  0.0226 -0.1163  0.0295
 5537W        W24391   4.202   9.531   0.395 -0.1559  0.0460 -0.0131
 5538W        W24392  15.875  14.362  15.931  0.2907 -0.0248 -0.0035
 5539W        W24393   4.387   8.958   3.905  0.0279  0.0068 -0.1788
 5540W        W24394   5.992   6.206   1.208  0.3634 -0.0463  0.1757
 5541W        W24395  14.146   2.773   3.383  0.0203  0.1208 -0.0048
 5542W        W24396   7.806   4.403   3.689 -0.0258 -0.1006  0.1238
 5543W        W24397  13.415   4.410  13.222  0.1175 -0.1756  0.1488
 5544W        W24398  15.199   8.594   3.074  0.1485  0.1777 -0.1674
 5545W        W24399   5.285   0.853  16.381 -0.2872  0.3428  0.2393
 5546W        W24400   4.608   3.321  14.408 -0.0362 -0.1814  0.0317
 5547W        W24401  10.255   7.522  14.350 -0.0875 -0.0276  0.0233
 5548W        W24402   2.673   5.415   0.379 -0.0686  0.4197 -0.0849
 5549W        W24403   3.658   3.300   3.661 -0.0288  0.0505  0.0749
 5550W        W24404   7.905  16.255  12.279  0.0064  0.1450 -0.0276
 5551W        W24405  13.017  12.092  12.530  0.1403  0.1675  0.2331
 5552W        W24406  14.093  12.662   5.262 -0.0139 -0.1555  0.1907
 5553W        W24407   4.295   1.602  16.970 -0.0778 -0.0781 -0.0065
 5554W        W24408   4.719   5.162   3.005 -0.2340  0.0680  0.2711
 5555W        W24409  12.434   4.828  16.106  0.0794 -0.1209 -0.0233
 5556W        W24410   6.066   0.811  16.638  0.1232 -0.1515 -0.1142
 5557W        W24411  13.874   4.126  16.749  0.0382 -0.0253  0.3179
 5558W        W24412  11.785  16.560  15.491 -0.0332 -0.2351  0.4131
 5559W        W24413  10.662  15.656  13.629 -0.0866 -0.1751 -0.1684
 5560W        W24414   8.166   6.786   1.585  0.2675  0.0309  0.2816
 5561W        W24415   4.066   5.411  12.488 -0.0258 -0.2553  0.0100
 5562W        W24416   4.536  11.158  12.802 -0.2261 -0.0348  0.1263
 5563W        W24417   0.676  11.108   3.222  0.0633  0.0630  0.0061
 5564W        W24418   1.270  12.571  15.058  0.2427  0.2360  0.3207
 5565W        W24419   7.324  14.186  13.522  0.2159  0.1102  0.2346
 5566W        W24420   9.607   2.880  16.532  0.0045  0.0790  0.0630
 5567W        W24421   9.853  15.305   4.084  0.3749  0.0364  0.2508
 5568W        W24422   4.455   3.362   4.405 -0.0863 -0.1414 -0.1336
 5569W        W24423  16.758   0.066   2.482 -0.0715  0.1224  0.0968
 5570W        W24424   8.361   2.792  14.461 -0.1252  0.0030  0.0010
 5571W        W24425  12.938  11.848  13.707 -0.2416 -0.1467  0.1391
 5572W        W24426   6.032   9.623  12.015 -0.0568 -0.1495 -0.2160
 5573W        W24427   1.271   0.658   3.934 -0.2816  0.0565 -0.1529
 5574W        W24428   4.055   0.250   2.377 -0.0315 -0.2949  0.0330
 5575W        W24429  11.767   1.994  15.052  0.2061 -0.0119 -0.0431
 5576W        W24430   6.956  13.646   4.703 -0.0068  0.0219 -0.2193
 5577W        W24431   9.505  14.060   5.786  0.0585  0.3208 -0.2150
 5578W        W24432  12.673   6.916   3.816 -0.0823 -0.0843  0.0089
 5579W        W24433   9.852   9.286   2.516  0.1075 -0.2906  0.0005
 5580W        W24434  11.469   3.768  12.410  0.4388 -0.2166  0.3283
 5581W        W24435   6.745   3.608   4.543  0.2680  0.1330  0.1816
 5582W        W24436  11.785   8.472   4.315  0.4285  0.2452  0.0013
 5583W        W24437   0.710  15.406   1.154 -0.0864  0.0810  0.0005
 5584W        W24438  10.743   6.137   4.969 -0.0560 -0.0843  0.2918
 5585W        W24439   5.643   8.327  16.727 -0.2055 -0.3843 -0.4217
 5586W        W24440   5.223   4.440   1.115  0.0150  0.0681  0.2330
 5587W        W24441  15.234  13.901   0.400  0.0345  0.2059  0.2235
 5588W        W24442  10.426  10.578   0.447  0.1019 -0.0215 -0.0886
 5589W        W24443   0.907   8.978   0.402 -0.0961 -0.0207  0.0325
 5590W        W24444   9.550  15.818   0.502 -0.3349 -0.1043 -0.1146
 5591W        W24445  11.513  15.650   1.174  0.3042  0.0294 -0.0462
 5592W        W24446   2.473  10.945   2.244 -0.2960  0.2697  0.0104
 5593W        W24447  16.875   9.903   2.823  0.0320 -0.1663  0.0709
 5594W        W24448   9.368   2.624   1.511 -0.0725  0.1306 -0.0691
 5595W        W24449  16.716   7.708  13.265 -0.0807  0.0863 -0.2289
 5596W        W24450  15.430  14.847   4.450  0.0067  0.1529  0.1474
 5597W        W24451  15.760   2.536   3.368  0.0373 -0.0073 -0.0297
 5598W        W24452   9.221  11.240  12.268 -0.0874 -0.2425  0.0306
 5599W        W24453  10.902  10.189  16.360 -0.4050  0.0751 -0.2412
 5600W        W24454   8.365   9.226   4.170  0.0652 -0.0681 -0.2342
 5601W        W24455  10.324   8.047  14.238 -0.4077  0.0052  0.2013
 5602W        W24456   9.504  14.328   2.490 -0.3350 -0.2369  0.0983
 5603W        W24457   8.700   6.032   0.456 -0.0893  0.0216  0.0884
 5604W        W24458   2.450  17.293   0.570 -0.1384 -0.4549 -0.3184
 5605W        W24459  14.798   0.501  15.619  0.2484  0.1325  0.1224
 5606W        W24460   6.075  16.040  15.520  0.1703  0.0433  0.0836
 5607W        W24461   6.344   2.286  15.389  0.0704 -0.0573 -0.1425
 5608W        W24462   6.183  12.739  12.578  0.1250  0.0304  0.1892
 5609W        W24463  13.785   9.102   3.830  0.0289  0.2926  0.0830
 5610W        W24464   5.741   7.330  12.906 -0.1824  0.0033 -0.0020
 5611W        W24465   4.378  10.859   5.137 -0.0054 -0.1226  0.0781
 5612W        W24466  16.803  16.311  12.643  0.0805 -0.1462  0.0850
 5613W        W24467  12.077  15.912   0.346  0.0809 -0.1525  0.0645
 5614W        W24468   2.097  13.098   2.792  0.0818  0.1966 -0.3887
 5615W        W24469  10.382  12.741   5.135 -0.0571  0.0483 -0.2474
 5616W        W24470   5.552   6.342  15.211  0.1291  0.2024 -0.0392
 5617W        W24471   6.422   5.754  13.758  0.1278  0.1549  0.0568
 5618W        W24472   6.620   1.441   4.426  0.1389  0.2285  0.2282
 5619W        W24473   0.388   0.211   3.771 -0.0108  0.1243  0.2079
 5620W        W24474   0.707  16.656  16.187  0.2495 -0.1117  0.1965
 5621W        W24475  15.126   3.540  14.436 -0.4608  0.1658 -0.2114
 5622W        W24476  11.931   3.978  16.146 -0.1773 -0.0825  0.2017
 5623W        W24477   9.257   5.181   1.893  0.3641 -0.0685 -0.1034
 5624W        W24478   5.412   9.995   0.068 -0.0721  0.0840  0.1968
 5625W        W24479  16.382   1.146  16.571  0.0283  0.1063  0.2596
 5626W        W24480   4.318  15.260   5.039  0.0065  0.1256  0.0449
 5627W        W24481   9.077   2.856  16.564 -0.1189 -0.2056  0.0961
 5628W        W24482  13.924  17.288  17.133 -0.0029  0.0872  0.3812
 5629W        W24483  13.280   1.229   1.911 -0.1720  0.0293  0.2879
 5630W        W24484  16.326  14.901  13.040 -0.0857 -0.2542 -0.0770
 5631W        W24485   8.671  16.078   1.890 -0.0757 -0.2504  0.3442
 5632W        W24486   0.805  11.277  13.417  0.2024  0.0596 -0.0548
 5633W        W24487   7.523  11.957  14.558  0.1171 -0.3200 -0.0473
 5634W        W24488   6.562   4.563   1.424  0.1174  0.1384  0.1208
 5635W        W24489   8.799  10.457   3.204  0.0395  0.0055 -0.1145
 5636W        W24490  15.343   1.262  17.074  0.2681 -0.1575 -0.0301
 5637W        W24491  14.532   5.252   5.369 -0.1234  0.1304  0.2193
 5638W        W24492   8.351  12.239   1.026 -0.1732  0.3575 -0.1885
 5639W        W24493   8.224  10.490  16.207  0.2870 -0.3536 -0.1188
 5640W        W24494   7.991  11.513   4.798  0.0495  0.3012 -0.1412
 5641W        W24495   5.262  14.126  16.872  0.0019  0.2213  0.1536
 5642W        W24496   8.544  10.094  13.970  0.1307  0.0294  0.0059
 5643W        W24497   5.221  15.933   1.662  0.2200 -0.0162  0.0266
 5644W        W24498  13.855   1.078   1.118  0.2138 -0.0070  0.1695
 5645W        W24499   6.711  14.828  13.027 -0.3744 -0.0188 -0.3932
 5646W        W24500  14.408  14.084   1.363  0.0660 -0.0621 -0.0389
 5647W        W24501   0.658  12.247   4.405 -0.0373 -0.2507 -0.0665
 5648W        W24502   3.871  10.624   2.839  0.4724 -0.0019  0.2119
 5649W        W24503   3.648   5.597   2.648  0.2828 -0.1727  0.1128
 5650W        W24504   2.168  11.971  15.146  0.0134 -0.0777 -0.1681
 5651W        W24505  12.241  11.601   4.796  0.0142  0.0331  0.0390
 5652W        W24506   2.379  12.313   1.319 -0.1448  0.0275 -0.0783
 5653W        W24507  12.393  12.558  12.414 -0.0229 -0.3153  0.2763
 5654W        W24508   2.990  11.503  14.162 -0.2877 -0.1359  0.0802
 5655W        W24509  12.505  11.222  15.975  0.3115  0.0795 -0.0039
 5656W        W24510   7.005  16.408   2.865  0.0268  0.1675  0.0325
 5657W        W24511   1.875   7.102   4.065  0.0648  0.2640  0.0242
 5658W        W24512   0.247   5.761  12.690 -0.0210 -0.3941 -0.2615
 5659W        W24513   2.178  11.686   3.941  0.3392  0.0928 -0.0138
 5660W        W24514  12.856   2.896  12.478 -0.2609 -0.3025 -0.0406
 5661W        W24515   2.579  10.593  15.606  0.1727 -0.1291 -0.2797
 5662W        W24516   8.950   6.051  13.673  0.2776 -0.0201 -0.0294
 5663W        W24517   4.492   2.348   5.034 -0.0111  0.2261 -0.2821
 5664W        W24518  14.738   1.448  11.857  0.0157  0.1641 -0.1015
 5665W        W24519  11.812   4.242  17.268  0.0543 -0.2773  0.0219
 5666W        W24520   4.352  11.064   0.184  0.1902 -0.3779 -0.0289
 5667W        W24521   1.919  12.668  13.262  0.0461 -0.1527 -0.0480
 5668W        W24522  10.926   5.529  14.874 -0.0616  0.0475 -0.1348
 5669W        W24523   3.066   4.879   0.907  0.0405 -0.0396 -0.0280
 5670W        W24524   4.169   3.755   2.869  0.2182  0.1134  0.0560
 5671W        W24525   5.542   9.736   0.446  0.2792 -0.2259 -0.1052
 5672W        W24526  12.709  11.206  16.859  0.0259 -0.1743 -0.1558
 5673W        W24527  15.537   7.743   3.713  0.1445  0.1637 -0.0049
 5674W        W24528  10.006  12.875  16.384 -0.1498  0.0909  0.1775
 5675W        W24529  12.373   4.418   5.031 -0.0605  0.1599 -0.0079
 5676W        W24530   6.378   5.424   2.450 -0.0349  0.0432  0.1162
 5677W        W24531  15.228  16.678   3.416  0.2614 -0.2314  0.2561
 5678W        W24532  13.543   6.010   2.767  0.4318  0.2728 -0.0950
 5679W        W24533   9.187   4.857  14.514  0.1109 -0.0623  0.1267
 5680W        W24534  14.625   0.033  15.730 -0.0678  0.1531 -0.0115
 5681W        W24535   2.528   7.295  16.002  0.0586  0.1135  0.1562
 5682W        W24536  17.203  15.408   4.299 -0.2973  0.1848 -0.0791
 5683W        W24537  15.420   9.442  13.977 -0.0833  0.0533 -0.2871
 5684W        W24538  12.551  14.017  14.414  0.1941  0.0901  0.1998
 5685W        W24539   1.187   8.363  17.389 -0.1101 -0.0116  0.0133
 5686W        W24540  15.063  12.651  13.872  0.0214  0.0998 -0.0436
 5687W        W24541  10.772  15.064   1.721 -0.2649 -0.0852  0.0009
 5688W        W24542   4.734   8.154  16.727 -0.0953  0.0999 -0.1515
 5689W        W24543  16.838   4.165  16.863  0.0549  0.0283 -0.2352
 5690W        W24544  16.686   6.477  15.434 -0.1734  0.0292 -0.3195
 5691W        W24545  16.872  14.548  16.134 -0.2228 -0.1469  0.4105
 5692W        W24546   1.247  11.627   0.356 -0.2772  0.0015  0.4864
 5693W        W24547   5.237   5.259   3.109 -0.2400  0.1685 -0.1361
 5694W        W24548  17.273   9.808  17.454  0.1402  0.1905  0.0339
 5695W        W24549   2.294   0.568   2.824 -0.1274 -0.1554 -0.4477
 5696W        W24550  13.736   4.422   0.960 -0.0097 -0.1416  0.0412
 5697W        W24551   9.701   0.218  13.655  0.1848 -0.0186 -0.1747
 5698W        W24552   9.415   7.695   0.423  0.0301 -0.0712  0.0211
 5699W        W24553   0.808   9.195  17.097  0.1331  0.2852  0.0834
 5700W        W24554  12.438   6.604   0.067 -0.0461  0.0390 -0.1754
 5701W        W24555   0.305  16.336  14.054  0.1803  0.0329 -0.2899
 5702W        W24556   9.399   8.409   2.379 -0.0254  0.0111 -0.0387
 5703W        W24557   0.178   9.482  14.596 -0.1026 -0.0909 -0.0562
 5704W        W24558   2.063  11.473  13.822  0.1849  0.0881  0.1920
 5705W        W24559   3.360  10.753   2.363 -0.0080  0.0724  0.0253
 5706W        W24560  13.535   3.521  16.055  0.0278 -0.1521 -0.1849
 5707W        W24561   7.405   2.486   5.188  0.1589 -0.0023  0.1295
 5708W        W24562   6.982   9.882   3.696  0.0933 -0.3472 -0.1145
 5709W        W24563   2.932   2.968  16.949 -0.1895 -0.0586 -0.1369
 5710W        W24564   0.919   7.496  14.145  0.1235  0.2701 -0.0126
 5711W        W24565   6.752   1.340  17.090  0.0969 -0.0549 -0.0694
 5712W        W24566   8.932  11.402  15.490  0.2962  0.0265  0.2451
 5713W        W24567  12.971   4.835   1.179  0.0845 -0.5754  0.1769
 5714W        W24568   4.249  10.546   1.208 -0.1483  0.2759 -0.0021
 5715W        W24569   3.123   3.070   4.458  0.0305 -0.4333 -0.3223
 5716W        W24570   0.522  13.284  12.733 -0.0161  0.0981 -0.2303
 5717W        W24571  10.786   9.998  15.021  0.2254  0.0328 -0.0966
 5718W        W24572   4.763   1.404   3.607  0.0316 -0.0015  0.2099
 5719W        W24573   4.081   3.359   2.087  0.0853 -0.1301  0.3340
 5720W        W24574  16.689   5.247   3.006  0.1174  0.2863 -0.2132
 5721W        W24575   0.817   4.644   0.575 -0.0229  0.2839 -0.1772
 5722W        W24576   3.881   1.567   1.753  0.0223 -0.1820 -0.0868
 5723W        W24577   2.238  10.227  14.975  0.2836  0.2635  0.1031
 5724W        W24578  15.850   4.865  13.063  0.0233 -0.1568  0.0596
 5725W        W24579  14.027   9.891   0.603 -0.1326  0.0292  0.0643
 5726W        W24580   0.555  12.155  15.564  0.1764  0.0275  0.1823
 5727W        W24581   7.407  12.398  12.931  0.2882 -0.3947 -0.0836
 5728W        W24582   6.104  16.332  16.635  0.2434  0.2158  0.2150
 5729W        W24583   1.538   7.064  16.938  0.0073 -0.1137 -0.0750
 5730W        W24584   4.866   3.677   0.154 -0.3442 -0.0515  0.1126
 5731W        W24585  11.690   2.783   1.440  0.1540  0.1638  0.0376
 5732W        W24586   0.609  14.608   2.937  0.1190 -0.2074 -0.0801
 5733W        W24587   1.873   3.343   4.045  0.0256 -0.0442  0.0290
 5734W        W24588   5.402   0.369  16.888 -0.0857  0.3889  0.1052
 5735W        W24589  14.131  15.378   0.650  0.0727  0.2348 -0.0162
 5736W        W24590   4.208   0.267   1.618  0.0852  0.2089 -0.0761
 5737W        W24591   3.457  12.935   4.564  0.2917 -0.2550  0.0115
 5738W        W24592  14.164  14.906   4.862 -0.1828 -0.2013  0.4168
 5739W        W24593   0.197   5.862   4.015 -0.1185 -0.0606 -0.2386
 5740W        W24594  14.370   0.143  15.328 -0.0681 -0.1994 -0.0923
 5741W        W24595  16.633  11.703   1.337  0.4379 -0.0266  0.3387
 5742W        W24596   1.885   5.017  11.626  0.0711  0.0106  0.0324
 5743W        W24597   1.392   6.331   1.810  0.2434  0.2060  0.2657
 5744W        W24598  16.833   4.886  12.805  0.2311  0.1486  0.0701
 5745W        W24599   3.039  15.928  16.344  0.0689  0.1566  0.1562
 5746W        W24600  15.122   0.361  13.069 -0.0624 -0.0297  0.0003
 5747W        W24601  13.348   9.391   3.834 -0.2598  0.1255  0.1902
 5748W        W24602   6.724  13.292  12.185 -0.2679 -0.0779 -0.0332
 5749W        W24603   7.157   2.516   2.378 -0.1099  0.2577  0.0150
 5750W        W24604   7.996   4.636  16.386  0.0361 -0.0545  0.1550
 5751W        W24605   8.424  10.465   4.076 -0.0850  0.0709 -0.0687
 5752W        W24606  16.859  10.165  12.592  0.0100  0.0733  0.0705
 5753W        W24607   2.253  13.236   0.206 -0.3397  0.0040  0.2084
 5754W        W24608  12.685  13.599   0.783 -0.1799  0.2357  0.0932
 5755W        W24609   8.080   0.610   3.824  0.0085 -0.1816  0.0351
 5756W        W24610   7.977  12.736  16.561 -0.0609  0.1715  0.0495
 5757W        W24611   7.501   8.577  13.634  0.0626 -0.0484  0.0623
 5758W        W24612   1.835   8.666   2.797 -0.1116  0.2025 -0.0897
 5759W        W24613  16.841  15.492  16.701  0.1051  0.2217 -0.0080
 5760W        W24614   8.583  11.998   2.873 -0.0850 -0.1024  0.0479
 5761W        W24615   4.996  13.314  15.854  0.0248 -0.0035 -0.1577
 5762W        W24616  13.991  11.094  14.383  0.2100  0.4066 -0.0287
 5763W        W24617   8.376  11.448  13.666  0.2321  0.0002 -0.2205
 5764W        W24618  13.290  14.068   2.481 -0.1100  0.2381  0.0376
 5765W        W24619   3.737   3.859   3.795 -0.4700  0.1305 -0.2352
 5766W        W24620  16.153  16.865   3.709  0.0054 -0.1544 -0.5221
 5767W        W24621  15.771  12.483   4.266  0.0857  0.3060 -0.1507
 5768W        W24622   8.557   3.303  16.572 -0.2178 -0.1459 -0.1890
 5769W        W24623   0.682  15.493  13.210  0.0687  0.0013  0.1825
 5770W        W24624   8.723  13.600  14.760 -0.3923  0.1975  0.3097
 5771W        W24625   8.393   0.876   3.543 -0.1251 -0.0449  0.1472
 5772W        W24626  13.770   8.943  16.704 -0.0910  0.2839 -0.1280
 5773W        W24627  12.597  10.145   1.440 -0.0057 -0.0662 -0.0636
 5774W        W24628  12.327   2.913  14.311  0.2432  0.0790 -0.1552
 5775W        W24629  12.467  12.068   4.691 -0.5571  0.1031  0.1469
 5776W        W24630  12.667   9.792   2.485  0.1695  0.0639  0.0125
 5777W        W24631   7.334   4.523  13.427 -0.0571  0.0754  0.3775
 5778W        W24632   5.292   7.201  13.223 -0.0258  0.2313 -0.0036
 5779W        W24633  11.287   4.379  13.293  0.1025  0.0662  0.0602
 5780W        W24634   6.808   2.298  15.159 -0.2298  0.1098  0.0529
 5781W        W24635   2.906   2.958  13.691 -0.1433  0.2526  0.0059
 5782W        W24636   4.137  14.440   4.902 -0.1462  0.0372  0.0128
 5783W        W24637  15.259   0.692  17.092 -0.1157  0.0421  0.1445
 5784W        W24638   4.370   3.903   3.939 -0.0155 -0.3325 -0.0236
 5785W        W24639   8.690   5.233   0.794  0.0231 -0.1916  0.0630
 5786W        W24640   5.296  10.383  16.073  0.1054  0.0571 -0.0678
 5787W        W24641  12.840  12.509   4.420  0.1726  0.3507 -0.1772
 5788W        W24642  12.534  11.005   0.961 -0.1505 -0.1371 -0.2270
 5789W        W24643   0.012   2.059   1.257 -0.1001 -0.0913 -0.2886
 5790W        W24644   2.663  12.006  16.512  0.0676 -0.1651  0.1244
 5791W        W24645   4.651  13.262   3.612  0.0914  0.0673  0.3432
 5792W        W24646  13.601   6.929  15.569  0.2407 -0.2145 -0.1289
 5793W        W24647  13.279  14.899  15.981  0.1213 -0.1351  0.0303
 5794W        W24648  13.401  16.576   5.217 -0.1119 -0.1773  0.0306
 5795W        W24649   7.124   6.838  14.356 -0.1389 -0.2360  0.0113
 5796W        W24650   2.785   2.227   4.250 -0.2917  0.1306 -0.1774
 5797W        W24651   3.791   4.841   3.267  0.0095 -0.1591 -0.0019
 5798W        W24652  12.048  10.037  15.694 -0.1326 -0.5032 -0.0525
 5799W        W24653   4.062  15.207   0.074  0.0629  0.2854 -0.1964
 5800W        W24654   1.617   3.931   5.973  0.0304 -0.1757 -0.1176
 5801W        W24655   2.656  11.879   2.704  0.2590  0.0295 -0.0954
 5802W        W24656   0.060  16.154  16.744  0.2709 -0.2325  0.1262
 5803W        W24657  12.559   3.787   3.330  0.0237 -0.2093  0.0792
 5804W        W24658  15.234   3.505   2.328 -0.0476 -0.2374 -0.2029
 5805W        W24659   1.082  13.814   4.330 -0.0287 -0.1245 -0.0516
 5806W        W24660   6.485   9.370  14.402 -0.2502 -0.1810  0.0508
 5807W        W24661  16.613  16.068   4.063 -0.1163  0.1177  0.0095
 5808W        W24662  12.099  13.351  16.459  0.1335 -0.2352  0.0812
 5809W        W24663  16.573  13.529  12.259 -0.2374  0.1423  0.0754
 5810W        W24664   2.658  12.545   3.268  0.0371 -0.1386  0.2366
 5811W        W24665   4.338   9.111  13.087  0.0958  0.0520  0.5523
 5812W        W24666   0.010   4.886   4.504 -0.3896  0.0970 -0.0473
 5813W        W24667   8.165  12.549  13.521  0.2206  0.0842 -0.2028
 5814W        W24668  13.605  13.509  14.986  0.1280  0.3522 -0.0408
 5815W        W24669  16.762  16.310   5.291 -0.3264  0.1144 -0.0425
 5816W        W24670  13.288   3.266  17.286 -0.1444 -0.0819  0.1284
 5817W        W24671   9.301   9.666   3.555  0.2876 -0.0746  0.1479
 5818W        W24672   9.685  16.214   4.799 -0.1706  0.0767  0.1259
 5819W        W24673   5.642   9.656   4.927  0.4001 -0.0969  0.0907
 5820W        W24674  12.486  14.701   1.864 -0.0573 -0.1457  0.0826
 5821W        W24675  13.450   0.842  15.716  0.1359 -0.3228  0.1870
 5822W        W24676   7.394   6.163   2.209  0.0209  0.2026 -0.1081
 5823W        W24677  13.008  11.831   3.540 -0.2088  0.1270  0.0601
 5824W        W24678   1.326   8.186  16.842  0.0966 -0.1325 -0.1585
 5825W        W24679  13.244  12.513   3.845 -0.0900  0.1631  0.1790
 5826W        W24680   6.427  10.724  15.167 -0.2883  0.0506 -0.0414
 5827W        W24681  15.506   8.836   5.934 -0.1632 -0.1585  0.1032
 5828W        W24682   1.058   0.286   0.078  0.0303 -0.2923 -0.1852
 5829W        W24683   1.617  12.143  15.151 -0.1483 -0.0316  0.1546
 5830W        W24684   4.746  14.673   0.077 -0.0926  0.3136 -0.0288
 5831W        W24685  10.031  13.999   4.195  0.0728  0.0760 -0.1827
 5832W        W24686   5.869  16.781   2.999  0.0081  0.1781 -0.1676
 5833W        W24687   5.084   0.501  13.431 -0.2590 -0.0777  0.0386
 5834W        W24688  14.183   6.731   3.523  0.0030  0.0250  0.1700
 5835W        W24689  16.964   8.002   1.017  0.2142  0.4030 -0.2776
 5836W        W24690   7.989  15.511   1.378  0.0361  0.0159  0.0956
 5837W        W24691   2.092   1.367  13.201  0.0956  0.2238 -0.1126
 5838W        W24692  16.631   3.136   1.984  0.0578 -0.1441 -0.2258
 5839W        W24693  11.551  15.450  15.593 -0.3597  0.2445  0.1984
 5840W        W24694   9.302  15.745  13.794  0.2598  0.0061  0.3624
 5841W        W24695   3.502   2.124   2.032 -0.1500  0.0499  0.2015
 5842W        W24696  13.022   0.783   3.090  0.1411  0.0305  0.2709
 5843W        W24697  15.324   5.848   3.652  0.3547  0.1436 -0.1237
 5844W        W24698  14.435  12.550   1.334  0.2949  0.1741  0.0077
 5845W        W24699   5.660  13.054   1.414 -0.1346  0.0879 -0.0003
 5846W        W24700  16.145  10.724   4.202 -0.0298 -0.1694  0.1870
 5847W        W24701   9.690  11.780  15.982  0.1711  0.0965  0.0586
 5848W        W24702   0.245   3.506   4.741  0.0967  0.0113 -0.3031
 5849W        W24703  10.086   8.090  16.665 -0.1187  0.3260  0.0800
 5850W        W24704   3.811   0.089   3.786 -0.0953 -0.1110  0.1246
 5851W        W24705   0.034   5.534  16.352  0.0949  0.0071 -0.1174
 5852W        W24706   2.344  15.469   3.298  0.2184 -0.0195 -0.2467
 5853W        W24707  16.427   0.675  13.859 -0.2525  0.0658  0.1588
 5854W        W24708   2.357   0.417   4.212 -0.1436 -0.4155  0.1462
 5855W        W24709   3.297   0.486   4.191 -0.0488 -0.0500 -0.2133
 5856W        W24710   3.152   8.984   0.521 -0.0919  0.2722 -0.1928
 5857W        W24711   4.531  16.741  15.309 -0.2076  0.0984 -0.2062
 5858W        W24712  13.692  14.045   3.700  0.2468  0.2370  0.0876
 5859W        W24713  11.769   6.453  14.612  0.0081 -0.0776 -0.0115
 5860W        W24714  11.817   3.146  12.966  0.2845  0.3364 -0.0353
 5861W        W24715  13.277   5.327   1.207 -0.0229 -0.1983  0.1037
 5862W        W24716   1.414   7.836   4.108  0.2353 -0.1364  0.0922
 5863W        W24717  14.411   0.075  13.924 -0.2892 -0.1256  0.1194
 5864W        W24718  12.209   7.785   1.492  0.0991 -0.3545  0.1455
 5865W        W24719   4.739   0.243   3.404 -0.2428 -0.0185  0.1342
 5866W        W24720   9.586  16.187  16.292  0.2192 -0.2202 -0.2772
 5867W        W24721   8.374   5.942   0.013 -0.1597  0.0712 -0.3432
 5868W        W24722   9.963  10.816  16.519 -0.0096  0.2089  0.1327
 5869W        W24723   2.959   5.721  15.375 -0.3139  0.0931 -0.2343
 5870W        W24724   0.694  16.489  16.664 -0.4673 -0.1033  0.0464
 5871W        W24725   4.833  15.278  16.795  0.0807 -0.1881  0.0146
 5872W        W24726   8.873   7.940  16.578  0.1075 -0.2039 -0.1676
 5873W        W24727   6.817   3.623   5.522  0.0718 -0.2225  0.0393
 5874W        W24728   7.375   9.924   1.177  0.2610 -0.1084 -0.0724
 5875W        W24729   5.691  14.851  15.630  0.1743 -0.0369  0.3390
 5876W        W24730   9.350  10.083  14.320  0.0805 -0.2185 -0.0625
 5877W        W24731   4.505   9.990  13.106 -0.0501  0.2735  0.0437
 5878W        W24732   9.223  11.425  16.343  0.0631 -0.0740  0.1724
 5879W        W24733  15.496   6.143   2.413 -0.1182  0.1652  0.1890
 5880W        W24734   7.553  12.767   0.978 -0.1046  0.2117 -0.2968
 5881W        W24735  17.333   6.887   5.114  0.1035  0.0880 -0.1358
 5882W        W24736   4.289  15.386  13.568  0.0194 -0.1072 -0.0140
 5883W        W24737  15.634  10.707  12.933 -0.0521  0.1337 -0.2340
 5884W        W24738   8.113   7.236   4.082 -0.0948 -0.0553  0.0167
 5885W        W24739  16.494  15.707   3.725  0.4184  0.0338  0.1212
 5886W        W24740   9.370   3.830   0.243 -0.2423 -0.0754 -0.0840
 5887W        W24741   9.679   5.505  14.173  0.1509  0.1979 -0.0245
 5888W        W24742   2.033   1.191  15.625 -0.2318 -0.1238  0.1286
 5889W        W24743  12.231   0.115  11.942 -0.2877  0.0044  0.1600
 5890W        W24744   9.450  13.979  13.786  0.2202 -0.2022  0.0530
 5891W        W24745   3.423  13.224  14.085 -0.0865 -0.2683 -0.1522
 5892W        W24746  12.483  10.810  15.729  0.1840 -0.1743  0.2467
 5893W        W24747   9.073   6.332   1.714 -0.0964 -0.1517  0.0858
 5894W        W24748   2.075  16.693  15.594 -0.1178  0.1633 -0.1007
 5895W        W24749  13.341   5.374   1.891 -0.1281  0.1174  0.2874
 5896W        W24750   1.021   1.131   3.179 -0.1389 -0.2983 -0.2384
 5897W        W24751   3.472  12.072  12.970  0.2181  0.1749 -0.1847
 5898W        W24752  13.833  13.634  15.439  0.0526 -0.0858 -0.0660
 5899W        W24753   2.522  12.091   0.876  0.0470  0.3450 -0.2245
 5900W        W24754  14.777   7.391  14.495 -0.2813  0.2654  0.0294
 5901W        W24755   2.787  11.524  15.965 -0.2062  0.2188 -0.1234
 5902W        W24756   9.463  15.771  13.019  0.2749  0.2228 -0.2855
 5903W        W24757   3.031  10.710   0.211 -0.0524  0.0244  0.1210
 5904W        W24758   2.166  11.809  16.449 -0.1130 -0.1977 -0.0314
 5905W        W24759   4.182  17.338  15.831 -0.2298  0.1395  0.0244
 5906W        W24760   5.372   4.009   4.998 -0.4773  0.1507  0.0632
 5907W        W24761   7.231   8.126   2.421  0.0330 -0.0756  0.0332
 5908W        W24762  16.558   5.162  15.640  0.1676  0.0625  0.0425
 5909W        W24763   0.624   8.306  15.849 -0.1542  0.0534  0.5055
 5910W        W24764   2.117   6.219  12.439  0.0776  0.2026 -0.0870
 5911W        W24765   1.018  16.389   2.726 -0.2160 -0.0630 -0.0928
 5912W        W24766   2.151   1.715  16.036 -0.1379  0.0003  0.1668
 5913W        W24767  11.551   2.281  12.745  0.0101 -0.0202  0.2869
 5914W        W24768   9.487  15.360   0.164 -0.0323 -0.2932 -0.0113
 5915W        W24769  13.440   8.471   0.011  0.0578 -0.1356 -0.0124
 5916W        W24770   1.095   0.845   1.730 -0.0335  0.0231  0.4718
 5917W        W24771   2.432   1.805  12.489 -0.0425  0.0875 -0.0273
 5918W        W24772  13.300   8.945   0.812  0.1523 -0.2913 -0.1004
 5919W        W24773  15.998   9.335   5.322 -0.0987 -0.0694 -0.2272
 5920W        W24774   4.696   9.478  12.989  0.0873  0.0286  0.4702
 5921W        W24775  11.240   0.933   0.892 -0.2845 -0.0065  0.0488
 5922W        W24776  16.688   3.173   4.514  0.1233 -0.1026  0.1127
 5923W        W24777   9.645   0.461  15.078  0.1077  0.0789 -0.1434
 5924W        W24778   5.749   0.487  12.605  0.0462  0.2186  0.0065
 5925W        W24779  10.034  17.147  16.242 -0.0473  0.0250  0.2197
 5926W        W24780  12.941   9.523   0.779  0.2926 -0.0288 -0.1539
 5927W        W24781  11.376   5.458   4.148  0.2789  0.1416 -0.1235
 5928W        W24782   1.798  14.642   2.822 -0.0596  0.1818  0.0865
 5929W        W24783  10.024  11.037   4.638 -0.1739 -0.0817 -0.1107
 5930W        W24784   7.970   6.555  15.757 -0.4645 -0.1947  0.2225
 5931W        W24785  12.999   1.591   5.597 -0.3194  0.2761  0.3752
 5932W        W24786  14.991   9.582  16.589  0.3152 -0.0940 -0.0315
 5933W        W24787   9.666  16.001  13.580 -0.0476 -0.0627 -0.1914
 5934W        W24788   7.503   6.424  17.016  0.1800 -0.0552  0.0420
 5935W        W24789  13.372   9.534   4.325 -0.2618  0.0779 -0.0756
 5936W        W24790   2.566   0.197   1.563 -0.0372 -0.1040  0.0470
 5937W        W24791  11.479   4.825   2.656 -0.1570  0.2714 -0.1547
 5938W        W24792   0.538  15.374   2.119 -0.2542 -0.0267 -0.1811
 5939W        W24793   0.031  14.482  16.350 -0.0023 -0.0854 -0.2590
 5940W        W24794   1.049   2.464   0.641 -0.0701  0.0408 -0.3255
 5941W        W24795   4.930   2.702   0.977  0.0419 -0.2671  0.0622
 5942W        W24796   0.821   9.918   2.388 -0.0529  0.0490 -0.3286
 5943W        W24797   9.488  16.649  14.067  0.1140 -0.1449  0.0989
 5944W        W24798   7.756   2.599  13.901 -0.1700 -0.0686 -0.1723
 5945W        W24799   2.329  15.627   4.398  0.1243  0.2184  0.0167
 5946W        W24800   9.611  13.818   2.415 -0.1089 -0.3447 -0.3173
 5947W        W24801  10.120   8.961  12.368 -0.3646  0.0461 -0.0118
 5948W        W24802   1.476  15.239  16.774 -0.1298  0.1423 -0.0632
 5949W        W24803   7.316   4.923  17.337  0.0452  0.0057  0.0917
 5950W        W24804   7.712  10.465  16.434  0.0950  0.1478  0.0825
 5951W        W24805   0.548   9.397  15.435  0.3214  0.0180 -0.3217
 5952W        W24806   0.156   0.698   2.870 -0.0629  0.0062 -0.0786
 5953W        W24807   5.160  15.313   4.075  0.0880  0.1696  0.0829
 5954W        W24808   3.389   8.253   3.402 -0.0335 -0.1669  0.1176
 5955W        W24809   3.431  12.825   2.282 -0.0290 -0.3940  0.0869
 5956W        W24810  17.087   2.571  13.382 -0.1270  0.0622 -0.1073
 5957W        W24811   9.918  15.133   2.601 -0.2478  0.0336 -0.3812
 5958W        W24812   3.537   8.619  11.802  0.1771  0.1688  0.1636
 5959W        W24813  14.795   8.614  15.956 -0.1102 -0.1135 -0.2607
 5960W        W24814  16.331   1.812  17.327  0.1176  0.1369  0.0594
 5961W        W24815   0.849   9.603  16.841 -0.0118  0.0944 -0.1861
 5962W        W24816  14.486   1.952   4.850 -0.0787  0.0855 -0.3446
 5963W        W24817  13.100   2.458   1.461  0.4275  0.1082  0.1943
 5964W        W24818   3.290   0.372   2.029  0.0659 -0.0864  0.1047
 5965W        W24819  12.098   7.296   5.095 -0.0537 -0.4737 -0.2728
 5966W        W24820  12.979  11.072  17.251 -0.2514  0.1425 -0.1377
 5967W        W24821  16.339   0.592  14.912  0.2364 -0.1312 -0.2502
 5968W        W24822   0.075  16.836  16.142 -0.2204 -0.1403  0.2635
 5969W        W24823  17.305   7.611  14.655 -0.0306 -0.0307 -0.0249
 5970W        W24824   3.678  13.249   1.426 -0.0742  0.2597  0.0375
 5971W        W24825   1.868   1.305   3.252 -0.3297 -0.2624 -0.0196
 5972W        W24826  10.870  16.488   1.135 -0.0451  0.1754 -0.0030
 5973W        W24827  11.483   3.801  17.294  0.0968 -0.0046  0.0842
 5974W        W24828  16.735  12.408   0.159  0.2377 -0.1009 -0.0232
 5975W        W24829   3.107  15.283   1.732 -0.2959 -0.0421 -0.0411
 5976W        W24830   4.165   9.712  15.030  0.0812  0.1178  0.0134
 5977W        W24831   4.664  12.104  15.936 -0.0129 -0.0114 -0.3151
 5978W        W24832  13.622  10.475  15.192  0.0284  0.1862  0.1583
 5979W        W24833  10.745   9.750  16.106  0.1029  0.1749 -0.1961
 5980W        W24834   2.224   4.575   4.662  0.0993  0.2571 -0.1810
 5981W        W24835  15.731   7.883   3.145 -0.0642 -0.0257 -0.1550
 5982W        W24836  15.010  12.648   4.625  0.2331 -0.2043 -0.1157
 5983W        W24837  13.464   8.371  15.545  0.2316  0.2490  0.1772
 5984W        W24838  15.980  10.019   0.318  0.2050  0.0576  0.2353
 5985W        W24839  15.784  13.575   0.127 -0.1158  0.0465  0.2285
 5986W        W24840   1.461  14.420  16.818 -0.1855 -0.0963  0.1677
 5987W        W24841   0.438   1.273  16.409  0.0806 -0.1864 -0.4062
 5988W        W24842   3.440  10.119  15.715  0.1543  0.0969  0.1811
 5989W        W24843  15.916   1.380   2.270  0.1033  0.3635 -0.1485
 5990W        W24844  10.276   5.010   2.048  0.0129  0.0291 -0.1714
 5991W        W24845  16.264   1.054  14.989 -0.1039 -0.2188  0.0690
 5992W        W24846  15.976   2.031   1.430  0.2482  0.3523 -0.0568
 5993W        W24847  15.439  12.467  16.118  0.0249 -0.0250  0.1758
 5994W        W24848   1.226  14.245   5.142  0.2507 -0.2061 -0.1236
 5995W        W24849  12.946  15.860   2.764 -0.2240  0.0462 -0.0470
 5996W        W24850   4.759   4.527  15.107 -0.4651  0.0141  0.1968
 5997W        W24851   3.660  15.440  14.483  0.2734  0.1007 -0.1792
 5998W        W24852  17.130  15.477   0.848 -0.0386  0.1295 -0.0461
 5999W        W24853   4.645   2.074  16.759  0.0607 -0.0625 -0.2198
 6000W        W24854  10.523   3.401  16.424  0.1278  0.2160 -0.1364
 6001W        W24855   0.555  12.623  15.338 -0.1879 -0.0354 -0.2325
 6002W        W24856   8.336  16.680   3.694 -0.2998 -0.2483  0.1946
 6003W        W24857  15.213  14.358   3.003 -0.1036 -0.1160  0.0551
 6004W        W24858   4.774  13.058  14.109  0.2279  0.1273  0.0666
 6005W        W24859   8.063   7.123  14.475  0.1324  0.1051 -0.0750
 6006W        W24860   6.388  11.009   3.248  0.2745 -0.0029  0.1444
 6007W        W24861  10.630  16.910   4.101  0.0522 -0.1349  0.1959
 6008W        W24862   7.685   3.902   3.660  0.3169  0.0435 -0.2491
 6009W        W24863   6.875  10.447   2.083  0.1487  0.0044 -0.0371
 6010W        W24864  11.254   8.776  15.108  0.0608  0.1258  0.1264
 6011W        W24865  10.786  11.373   3.364 -0.3893  0.1544  0.1135
 6012W        W24866  15.860   6.007  15.769 -0.1267  0.2234 -0.0174
 6013W        W24867  16.913   6.125   1.626  0.0522 -0.1761  0.1376
 6014W        W24868   4.954   6.627   5.601  0.2612  0.1117 -0.0480
 6015W        W24869   7.611   7.088  14.980  0.1725 -0.1745 -0.3142
 6016W        W24870   3.367  15.061  14.455  0.0647 -0.2714  0.2176
 6017W        W24871  14.189   3.426  14.681  0.1339  0.3134  0.0276
 6018W        W24872  15.686  11.265  15.302 -0.1496 -0.0562 -0.1435
 6019W        W24873   4.889   1.622  14.638 -0.1836 -0.0196 -0.0618
 6020W        W24874   8.381  11.972  12.244 -0.0594 -0.0506  0.0455
 6021W        W24875  15.242  14.741  17.073  0.0430 -0.0775  0.1587
 6022W        W24876  12.089  13.174  15.984 -0.1655 -0.0899  0.2457
 6023W        W24877   0.961  15.610  13.615 -0.1283 -0.1792  0.0776
 6024W        W24878  11.130  10.363  14.893 -0.3729 -0.2135 -0.1298
 6025W        W24879  16.741   0.269  15.130 -0.0635  0.4436  0.0360
 6026W        W24880  12.184   7.871  15.694  0.1145  0.1022 -0.0464
 6027W        W24881   1.719  15.746   3.664 -0.0221  0.2070  0.1494
 6028W        W24882  15.340   0.381   3.023  0.4859  0.3824  0.2197
 6029W        W24883   9.267  16.537   2.597 -0.3493 -0.0733 -0.0198
 6030W        W24884  10.551   5.377   3.387 -0.3262  0.2951  0.0996
 6031W        W24885  10.523  15.698  13.071 -0.0717  0.1175 -0.1203
 6032W        W24886   3.862   3.753  13.267  0.0054  0.0048 -0.0520
 6033W        W24887  16.982  13.715   1.950  0.0021  0.0858 -0.1179
 6034W        W24888   4.072   9.812   1.456  0.2425 -0.0999  0.0690
 6035W        W24889   5.563   4.074   4.189  0.3394  0.1438  0.1327
 6036W        W24890   4.514   7.725  16.019  0.2097  0.3099 -0.0058
 6037W        W24891   0.008   0.441   4.996 -0.0338 -0.2504 -0.1162
 6038W        W24892   5.700   8.371  15.082 -0.0896 -0.2111  0.2192
 6039W        W24893  16.529   5.844   3.930 -0.2083  0.0425 -0.0132
 6040W        W24894  16.108   0.574  12.942  0.0023  0.2904 -0.1583
 6041W        W24895  16.201   3.993  16.812 -0.1642 -0.2260 -0.3654
 6042W        W24896   9.364  16.131  15.695 -0.0820 -0.3598 -0.3651
 6043W        W24897   2.416   6.546   3.218 -0.1857 -0.2445 -0.2014
 6044W        W24898   5.701   6.667  13.932 -0.2101  0.1193  0.0916
 6045W        W24899  11.718   7.586  16.501  0.0636  0.1242 -0.3250
 6046W        W24900   1.505   8.811   4.137  0.1801 -0.1331 -0.1041
 6047W        W24901  15.000   7.804   4.722  0.1758  0.0307  0.1555
 6048W        W24902  15.750  15.051   4.102  0.2435  0.0917  0.1091
 6049W        W24903   0.732   9.005  13.264 -0.0772 -0.0614  0.1513
 6050W        W24904   5.242  10.170  14.757  0.1551  0.0933 -0.1767
 6051W        W24905  13.040   5.085   2.200 -0.0786 -0.0627  0.0249
 6052W        W24906   5.885   2.157  15.350  0.3606 -0.1469  0.0838
 6053W        W24907   9.265   8.585  14.287  0.1715  0.2860 -0.0157
 6054W        W24908  14.703   9.527   4.483 -0.2078 -0.0150 -0.0857
 6055W        W24909   2.561  13.997  16.018 -0.2336 -0.1945 -0.1527
 6056W        W24910   3.158   7.814  14.049  0.2199 -0.0761 -0.0336
 6057W        W24911   1.764   2.221  12.886  0.5055  0.1579  0.1893
 6058W        W24912   5.518   0.008  14.575 -0.1712 -0.2209  0.0206
 6059W        W24913   1.656  15.283  17.272  0.1096 -0.0348 -0.0476
 6060W        W24914  15.951   8.288   4.798 -0.1714 -0.0955 -0.1093
 6061W        W24915  17.094   6.924  12.759 -0.0719  0.0809 -0.0814
 6062W        W24916   2.850   4.109   3.639  0.1434 -0.0621 -0.1806
 6063W        W24917   2.955   7.772   4.766  0.0499  0.0374  0.1827
 6064W        W24918   3.098   3.516   1.233 -0.2167 -0.1515  0.1262
 6065W        W24919  13.803   6.389  12.569 -0.0403  0.4211  0.1088
 6066W        W24920   9.601   0.882   3.987  0.0055 -0.2227 -0.1452
 6067W        W24921  13.781   5.911   2.240  0.1462  0.3737 -0.0946
 6068W        W24922   7.458   7.216  13.995  0.0080  0.0053 -0.1129
 6069W        W24923   4.564   9.879  15.181 -0.0354  0.1678 -0.0203
 6070W        W24924  14.771  12.563   5.882  0.2336  0.0326 -0.0374
 6071W        W24925   6.577  15.044   4.233  0.0308 -0.3388  0.1949
 6072W        W24926  13.449   0.755   1.988 -0.0233  0.1791 -0.1113
 6073W        W24927   2.489   0.870   1.639  0.0854  0.3236  0.3161
 6074W        W24928   3.347  12.717  15.199 -0.1627  0.0344 -0.0153
 6075W        W24929   8.603   0.328  14.111  0.1516 -0.1879 -0.1339
 6076W        W24930   3.866  16.090  13.292 -0.2653 -0.2741 -0.0152
 6077W        W24931  12.003  14.201  14.445  0.1004  0.1892  0.2664
 6078W        W24932   4.486   9.162  16.996 -0.2785  0.1170  0.0511
 6079W        W24933  11.457   8.026   1.728  0.1016  0.0776  0.0526
 6080W        W24934   2.143  13.821   0.253  0.1612 -0.0381  0.0529
 6081W        W24935   4.659  11.167   3.554  0.0677  0.0556  0.1999
 6082W        W24936   4.769   6.278   4.683  0.1008 -0.2343  0.1970
 6083W        W24937   6.553  12.299  13.555  0.0245 -0.1642  0.3815
 6084W        W24938  10.042  16.445  14.360  0.1300 -0.0990  0.2198
 6085W        W24939  10.012  10.227  16.587  0.2553 -0.0697 -0.0682
 6086W        W24940  16.695   4.609   2.184  0.1876 -0.0510  0.2953
 6087W        W24941  16.282  15.504  13.841 -0.0502  0.0280  0.1319
 6088W        W24942  15.355  10.567   3.652 -0.1360 -0.0107 -0.2403
 6089W        W24943  11.656   0.411   4.149  0.0897  0.3811 -0.0261
 6090W        W24944   7.088   8.773  17.091  0.0482 -0.0430  0.0617
 6091W        W24945  15.270   6.785   4.001 -0.0810 -0.0811 -0.1301
 6092W        W24946   8.798  17.309  16.388  0.2048  0.0230  0.2497
 6093W        W24947  16.289  12.964   3.656  0.1740  0.0231  0.1409
 6094W        W24948  15.223   2.868  15.711 -0.2232 -0.0840  0.1094
 6095W        W24949   0.618   9.750   4.167  0.1039  0.1185 -0.1238
 6096W        W24950  10.444   6.325   2.511  0.1261  0.0516 -0.1279
 6097W        W24951   9.006   6.780   4.107  0.0114 -0.4788 -0.0282
 6098W        W24952  10.576   9.654   0.746 -0.0068 -0.1793  0.2241
 6099W        W24953   7.196  13.415  13.251  0.0698 -0.2882  0.1113
 6100W        W24954   4.771  14.513  15.883 -0.2312 -0.0942  0.0666
 6101W        W24955  16.027  15.917  12.956 -0.0145 -0.0637  0.1420
 6102W        W24956  10.847  15.361  14.200 -0.1795  0.0470  0.1032
 6103W        W24957   6.451   0.191   1.443  0.1342 -0.2010  0.4023
 6104W        W24958   9.873   6.505  17.205 -0.3135 -0.0796  0.3446
 6105W        W24959   5.363  12.578  16.335 -0.3046 -0.0624  0.2488
 6106W        W24960  10.498  17.113   2.676 -0.0088 -0.1756  0.2343
 6107W        W24961   0.960   3.544   1.921 -0.1418  0.1072 -0.3296
 6108W        W24962   9.240   1.580  14.726 -0.0932 -0.0570 -0.0943
 6109W        W24963   2.866   0.601  14.167 -0.0234 -0.2421 -0.2358
 6110W        W24964  14.875   6.394   1.270 -0.1957 -0.1446  0.1073
 6111W        W24965   1.953   7.183   0.424  0.0779 -0.1987  0.0287
 6112W        W24966  11.293   0.426  14.092  0.0723  0.0305 -0.0375
 6113W        W24967   8.384  10.910   5.358  0.1169  0.1834  0.1612
 6114W        W24968  13.864  14.954   0.382  0.1474 -0.2695  0.1879
 6115W        W24969  12.448   0.376  15.184 -0.0825  0.2980 -0.1273
 6116W        W24970   3.503   9.495  15.841 -0.1935 -0.0439  0.0938
 6117W        W24971   8.705   0.523  14.609 -0.0234 -0.3027  0.2342
 6118W        W24972   3.111   9.528  14.891  0.0399  0.1335  0.2977
 6119W        W24973   2.956  11.244   0.272 -0.1358 -0.5557  0.2194
 6120W        W24974  17.094   1.829   5.048 -0.3250 -0.1436 -0.0727
 6121W        W24975   4.590   4.235   3.634  0.1985 -0.0820 -0.2722
 6122W        W24976  10.340   3.660   0.938 -0.0166 -0.0033 -0.2016
 6123W        W24977   7.284  14.529  15.036  0.1270  0.1409  0.1210
 6124W        W24978   3.592   7.846  15.389  0.0231 -0.4509  0.0415
 6125W        W24979  11.409   2.086   3.275 -0.2177 -0.0283  0.0565
 6126W        W24980  12.386  15.183  15.344 -0.0523  0.0096  0.1894
 6127W        W24981   1.520   4.304  14.445  0.2796 -0.0742 -0.1731
 6128W        W24982  16.189  16.400   4.133  0.1877  0.0830 -0.2246
 6129W        W24983   5.758   6.295  15.708  0.1790 -0.1859 -0.0444
 6130W        W24984   2.867  12.862  14.222  0.5223  0.0961 -0.1190
 6131W        W24985  12.425   0.703   1.635 -0.1373 -0.2434 -0.0307
 6132W        W24986   9.423   9.010   2.386 -0.0803  0.0793  0.1941
 6133W        W24987   8.515  10.987  16.191 -0.0516 -0.1878  0.1005
 6134W        W24988   6.329   0.691   1.514  0.4230  0.0097  0.2092
 6135W        W24989   1.576   7.452   4.947  0.0080  0.0622  0.0359
 6136W        W24990   7.843  13.395  12.418  0.1190  0.0430 -0.1785
 6137W        W24991   9.980  12.304   1.513 -0.1934 -0.0563  0.0263
 6138W        W24992  10.487  17.122  16.750  0.2003  0.0392 -0.3245
 6139W        W24993   3.182   0.031  14.106 -0.0361 -0.3077 -0.0626
 6140W        W24994   3.396   3.515  16.217  0.6005  0.0097  0.1940
 6141W        W24995   6.289   2.535   1.675 -0.1021  0.1052  0.1663
 6142W        W24996   4.520   8.014  13.887  0.0132  0.0382 -0.0523
 6143W        W24997  11.196   3.438   3.490  0.0669 -0.0824  0.1829
 6144W        W24998   3.113   9.831   2.727 -0.1432 -0.0131  0.3384
 6145W        W24999  10.757  10.062   4.691 -0.2907  0.0789 -0.1347
 6146W        W25000  16.139   9.992   1.288 -0.1311  0.1175 -0.1007
 6147W        W25001  11.245   0.670   0.456 -0.0234 -0.1871  0.1420
 6148W        W25002  11.672  12.497   1.204  0.2421 -0.2846  0.1039
 6149W        W25003  16.108   9.585  13.070  0.3017 -0.0139  0.0477
 6150W        W25004   7.826   2.749   3.810  0.1259 -0.0049  0.1020
 6151W        W25005  14.654   8.654   4.304 -0.0553 -0.2054 -0.1392
 6152W        W25006  17.128  16.590  16.460  0.2774  0.2944 -0.0384
 6153W        W25007  11.676  13.560   4.389  0.0621  0.1660 -0.2189
 6154W        W25008  16.827   4.256   3.531  0.0989 -0.2576  0.2155
 6155W        W25009   2.290  13.416   3.487 -0.0170 -0.1663  0.0233
 6156W        W25010  12.774  11.548   3.085 -0.2511  0.1150 -0.2700
 6157W        W25011  15.627  14.595   3.152 -0.0896 -0.0590 -0.3340
 6158W        W25012   7.095  14.059   2.149 -0.3917 -0.0805  0.3739
 6159W        W25013  17.171   8.018   4.357 -0.1680  0.2335  0.0708
 6160W        W25014  12.441   6.029   4.206 -0.1775 -0.1919 -0.0172
 6161W        W25015   1.958   6.363   4.371 -0.0304  0.1211  0.1658
 6162W        W25016  14.370   0.815   3.330 -0.0142 -0.2874  0.1284
 6163W        W25017  10.442   7.787  11.380 -0.3973 -0.1671  0.1127
 6164W        W25018   0.395  12.000  12.580  0.1304 -0.0974 -0.0444
 6165W        W25019  10.549  11.494  12.325 -0.0073 -0.0534  0.0238
 6166W        W25020   1.817   2.170   2.809  0.1689  0.0514 -0.0856
 6167W        W25021   8.941  10.246  14.893 -0.1493  0.1694 -0.0036
 6168W        W25022   9.035   4.806   1.148  0.0544 -0.2958 -0.4396
 6169W        W25023  14.889  17.170  14.751 -0.2142  0.0797 -0.5080
 6170W        W25024   1.723   9.330  11.955  0.4069 -0.1536 -0.2031
 6171W        W25025  12.129  10.668   0.852 -0.0863  0.0854 -0.2162
 6172W        W25026   6.994   5.626   4.215 -0.3771  0.0075 -0.0422
 6173W        W25027  15.172  11.746   0.110  0.3822 -0.1807 -0.1393
 6174W        W25028  13.265   9.850   3.641  0.2101  0.0838  0.0779
 6175W        W25029   2.467  13.668   1.391  0.1318 -0.3293 -0.0620
 6176W        W25030   6.610   1.244   2.602 -0.1564 -0.0945  0.0535
 6177W        W25031   4.203  17.150  13.752  0.0258 -0.0675 -0.0602
 6178W        W25032  16.884   8.286   0.598 -0.2210  0.0746  0.2918
 6179W        W25033   5.622  13.887   3.622  0.2011  0.2190 -0.0475
 6180W        W25034   2.096   1.021   1.092 -0.0044 -0.0515 -0.1488
 6181W        W25035  14.638   8.498   5.696  0.0360  0.0363  0.2569
 6182W        W25036   0.891   9.179   0.841  0.0617 -0.0157 -0.1172
 6183W        W25037  17.058  12.895   4.230  0.1692 -0.2726  0.1304
 6184W        W25038  15.991   3.091  17.246  0.1814  0.1160 -0.0996
 6185W        W25039   4.752   2.664   2.767 -0.3190  0.1211  0.0893
 6186W        W25040  16.468   3.275   2.440  0.0161  0.1471 -0.0253
 6187W        W25041  10.549   8.301  15.042  0.2320 -0.1579 -0.1390
 6188W        W25042  14.851  15.442   2.326 -0.3433  0.1027 -0.1293
 6189W        W25043   6.978   6.894   2.192 -0.2070  0.0433 -0.1489
 6190W        W25044   7.178  16.173   0.223  0.0779 -0.1395  0.1474
 6191W        W25045  12.798  12.470   0.976 -0.1608 -0.2574  0.0641
 6192W        W25046  10.263  10.038  12.610  0.3071 -0.2174 -0.1424
 6193W        W25047   9.337   5.609  14.569  0.0655 -0.0747  0.1382
 6194W        W25048   2.594   4.185   5.459 -0.2811  0.3310 -0.3036
 6195W        W25049  16.448  15.544   0.818 -0.2084 -0.1899 -0.1561
 6196W        W25050   9.920   5.718   2.804 -0.0945  0.1423 -0.1137
 6197W        W25051   3.024  14.292   0.352  0.0651  0.1894 -0.2969
 6198W        W25052   5.256  13.541  13.140 -0.2807 -0.3614  0.0226
 6199W        W25053   0.397   4.926   1.543  0.0781 -0.4286 -0.0564
 6200W        W25054  11.263  14.671   0.474 -0.1860  0.0749  0.1086
 6201W        W25055  14.245   8.043  11.985  0.1591 -0.3742 -0.0913
 6202W        W25056   9.448  14.970   0.436 -0.1554 -0.0678 -0.0565
 6203W        W25057   0.604   7.048  16.976 -0.0666  0.0398 -0.0463
 6204W        W25058   3.670  11.879   4.658 -0.2969  0.1236  0.1118
 6205W        W25059   8.048   9.913  15.911 -0.1525  0.1967  0.2142
 6206W        W25060  11.623  14.898   3.585 -0.0445 -0.1910  0.0260
 6207W        W25061   9.159  12.652  16.073 -0.0965  0.2410  0.1806
 6208W        W25062  14.044  12.493  15.955 -0.1545 -0.0529  0.0001
 6209W        W25063   5.601   2.204  14.513  0.0356  0.4679  0.1857
 6210W        W25064  12.472  10.184  13.479 -0.1894  0.2847  0.1752
 6211W        W25065   8.515   5.623   4.983  0.2176 -0.1781 -0.0226
 6212W        W25066  15.132   0.702  12.364 -0.4541  0.2063  0.0174
 6213W        W25067  17.328   5.506  13.277  0.0368 -0.2198 -0.0932
 6214W        W25068  13.877   7.071   4.713 -0.1823 -0.1225 -0.1152
 6215W        W25069   2.083  15.454  14.096  0.3577 -0.1027  0.4050
 6216W        W25070  12.797   9.217   3.564 -0.0976  0.4917  0.3023
 6217W        W25071  17.229   6.580   4.289 -0.2936  0.0129  0.2272
 6218W        W25072   7.533   5.246  15.165  0.1111 -0.2081 -0.3850
 6219W        W25073   1.642  12.279   2.997 -0.0711 -0.2830 -0.0304
 6220W        W25074  14.323  11.533   5.166 -0.1429 -0.0759  0.2816
 6221W        W25075   7.087  13.735  12.040  0.1568 -0.0930  0.2285
 6222W        W25076  15.205   0.487  13.536 -0.1840  0.2778  0.1363
 6223W        W25077  11.334  11.606  16.385  0.0721  0.1944 -0.1985
 6224W        W25078  12.934   3.563  14.424 -0.1400 -0.0470  0.0371
 6225W        W25079  16.693  14.468  16.613 -0.1340  0.0581  0.0712
 6226W        W25080   8.096   8.459  16.191  0.0398  0.2481  0.0190
 6227W        W25081  16.446   8.291   0.373 -0.4450  0.1176 -0.0215
 6228W        W25082   2.980  11.771  16.859  0.1607  0.1677 -0.0013
 6229W        W25083   7.469   7.289  14.506  0.0723 -0.1574  0.1487
 6230W        W25084   6.480   3.423  13.118 -0.2277 -0.0084 -0.1098
 6231W        W25085   6.977  12.027   0.914  0.1623 -0.0436 -0.1196
 6232W        W25086   6.248  15.037   1.596 -0.1060 -0.4006  0.2014
 6233W        W25087  12.340   3.739  16.094 -0.0298 -0.0656 -0.1295
 6234W        W25088  16.481  10.051  14.344  0.0669 -0.1018 -0.0280
 6235W        W25089  12.941   9.966  15.226  0.3440 -0.0594  0.0944
 6236W        W25090   0.548   2.552  15.085  0.0654  0.0174  0.1233
 6237W        W25091   8.971  16.482   1.684  0.1602  0.1101 -0.1489
 6238W        W25092  14.233   6.165  14.963 -0.3432 -0.0372 -0.1532
 6239W        W25093   4.103   1.049   2.173  0.2493  0.1153  0.0138
 6240W        W25094  13.866   0.988   2.009  0.0015 -0.1426  0.0001
 6241W        W25095   2.361  11.132  15.438 -0.1611  0.0459  0.1277
 6242W        W25096  16.843  15.358  13.830 -0.2694 -0.1892  0.1205
 6243W        W25097  11.782   0.597  16.600  0.2813 -0.1341 -0.2230
 6244W        W25098   9.467   7.247   1.463 -0.0007 -0.1951 -0.2677
 6245W        W25099   2.588   9.180   2.207 -0.1450  0.2058  0.0586
 6246W        W25100   0.188  14.746   2.665  0.0858  0.0701  0.0571
 6247W        W25101   8.642  16.013  13.288  0.0194  0.1850 -0.1309
 6248W        W25102  17.174   5.790  12.909 -0.0622 -0.0609 -0.1725
 6249W        W25103   1.698  11.975  16.588 -0.0176  0.2196  0.0320
 6250W        W25104  12.345   5.001   4.341  0.2545 -0.2454 -0.0446
 6251W        W25105  11.248   6.296   2.648  0.1886  0.0688  0.0372
 6252W        W25106   4.274  17.295  16.338 -0.2398 -0.0347  0.3555
 6253W        W25107   6.891   9.885   1.018 -0.1966  0.0569 -0.0276
 6254W        W25108   5.637   0.990  14.716 -0.2662 -0.0569 -0.1247
 6255W        W25109   3.827   3.486   0.161 -0.0721 -0.0725 -0.0535
 6256W        W25110   0.022  13.946   2.382  0.1589 -0.0852  0.2050
 6257W        W25111  10.449   4.606   1.870  0.0351 -0.2392  0.2486
 6258W        W25112  16.651  15.629  15.210  0.0792 -0.1078  0.1890
 6259W        W25113  11.152   6.362  14.751 -0.1210  0.3694  0.0591
 6260W        W25114  13.709   2.846   1.055  0.2625 -0.1948 -0.1569
 6261W        W25115   0.271   8.509  14.456 -0.0316  0.2066  0.2809
 6262W        W25116   6.184  16.722   1.106  0.2922 -0.1622 -0.1875
 6263W        W25117  12.327   0.992  13.904  0.2334  0.1403  0.0011
 6264W        W25118   7.966   6.495  16.859 -0.1166 -0.2629  0.3055
 6265W        W25119   6.966   4.085  15.046  0.4431  0.2201  0.1254
 6266W        W25120   3.824   2.386  13.795 -0.2562  0.1387  0.3436
 6267W        W25121  13.184  14.028  14.971 -0.0260  0.4146  0.1511
 6268W        W25122   5.171   3.898   1.926  0.0514  0.0559  0.0418
 6269W        W25123   4.006  16.472   3.847  0.2566  0.2126 -0.3022
 6270W        W25124  14.474  14.121   0.771  0.0156  0.2340 -0.1741
 6271W        W25125   4.194   6.097   3.375  0.0119 -0.0916 -0.0272
 6272W        W25126   3.150  15.047   4.489 -0.2694  0.0582  0.4001
 6273W        W25127   7.098   5.269   1.410 -0.2012  0.1094 -0.0270
 6274W        W25128   8.185   8.968   2.102 -0.1495  0.0427 -0.2752
 6275W        W25129   7.818  16.601  17.127 -0.2160  0.1220  0.0255
 6276W        W25130  11.519   6.469  15.155  0.1686  0.1304 -0.0295
 6277W        W25131   1.081   5.922  12.405  0.1595  0.1268 -0.1463
 6278W        W25132  15.018   7.946  13.096  0.1424 -0.0655  0.0567
 6279W        W25133  14.086  11.230  12.967 -0.2269  0.3720  0.2576
 6280W        W25134   3.618   4.854   2.169 -0.1553  0.3607 -0.1929
 6281W        W25135   5.510  16.180   1.151  0.3977  0.0683 -0.0666
 6282W        W25136   8.525   3.713  13.403 -0.3613  0.1651  0.0145
 6283W        W25137   4.474  12.893   0.410  0.1152  0.2060  0.2241
 6284W        W25138   6.931   9.066   0.636  0.1867  0.0253  0.2663
 6285W        W25139   6.970  13.868  13.318  0.0749 -0.1723  0.1749
 6286W        W25140   0.004   6.393  14.411 -0.0453  0.0764  0.2051
 6287W        W25141   2.425   4.895   3.423 -0.1119  0.1318 -0.2167
 6288W        W25142   2.476   2.153  14.117 -0.1945 -0.1668  0.2764
 6289W        W25143  12.227   6.730  12.831  0.1890  0.1785 -0.3037
 6290W        W25144  12.669   8.848  13.272 -0.1766  0.0306  0.0738
 6291W        W25145   4.714   4.353   3.168 -0.1959  0.2257  0.1631
 6292W        W25146  13.100   1.864  17.108  0.0557  0.1321  0.2267
 6293W        W25147   4.762  13.813  14.200  0.1011 -0.2005 -0.4123
 6294W        W25148  13.639  13.854  14.116 -0.0120  0.2583 -0.0034
 6295W        W25149   6.436   3.273  14.539 -0.0063 -0.1297 -0.3468
 6296W        W25150  10.050   4.754   4.393 -0.1429 -0.0422  0.2900
 6297W        W25151   9.129   4.123   2.996  0.0315 -0.1339 -0.1141
 6298W        W25152   9.893  13.728   0.487  0.3349  0.0667  0.2196
 6299W        W25153   1.733  14.201  12.809 -0.2057  0.2598  0.0696
 6300W        W25154  10.852   6.949   4.838  0.0103  0.3139 -0.1311
 6301W        W25155   7.627  14.096  16.138 -0.3333  0.1684  0.2378
 6302W        W25156  15.045   1.545   4.548  0.1629  0.0241 -0.0499
 6303W        W25157   9.102  13.050  17.091  0.0289 -0.0392 -0.2052
 6304W        W25158   8.888   0.371  12.600  0.0020 -0.0249  0.0265
 6305W        W25159  14.808   0.350  13.824 -0.4780  0.1570  0.2047
 6306W        W25160   7.695  15.472   2.782  0.1538  0.1976  0.0815
 6307W        W25161   6.267   6.049   3.238 -0.0172 -0.3004  0.0255
 6308W        W25162  11.623  13.565   0.350  0.0302 -0.0762  0.1527
 6309W        W25163  15.356   9.441   0.089 -0.0789  0.0063  0.0922
 6310W        W25164  12.913  12.329  15.348 -0.2658 -0.0453 -0.2419
 6311W        W25165   8.215   4.511  13.743 -0.0772  0.0821 -0.0093
 6312W        W25166  13.230  16.658  12.352  0.0418  0.0917  0.1342
 6313W        W25167   8.453   9.061  13.085 -0.1464  0.2183  0.0119
 6314W        W25168   9.916  11.757  14.620 -0.5745  0.0344 -0.4324
 6315W        W25169   3.009  10.086  15.456 -0.0258  0.0992 -0.0771
 6316W        W25170   1.664  15.284  13.157  0.2533  0.2215 -0.0663
 6317W        W25171  11.063   7.494  15.347  0.0429 -0.0840  0.1458
 6318W        W25172  13.792   9.907   3.547  0.1355 -0.0420 -0.1783
 6319W        W25173  13.829  11.956   5.059  0.0827 -0.0330  0.1262
 6320W        W25174  12.974  14.059   3.740  0.0226  0.2435 -0.0489
 6321W        W25175   6.983   1.662   3.946 -0.2429 -0.0619  0.5104
 6322W        W25176   9.295  13.159   4.152  0.0775 -0.1902 -0.0807
 6323W        W25177   9.184   6.826   1.536  0.1112  0.3196  0.0871
 6324W        W25178   7.026  10.335   0.240 -0.0671  0.0576  0.2455
 6325W        W25179   8.001   8.908  14.881 -0.1670  0.1814 -0.1475
 6326W        W25180  11.531  13.770  13.667 -0.1097  0.2059 -0.1606
 6327W        W25181  11.230  15.097  13.420 -0.0878  0.0908  0.2101
 6328W        W25182   0.397  16.521   0.064  0.2526  0.1387  0.2574
 6329W        W25183  12.662  13.404   3.313 -0.1340  0.1857  0.1423
 6330W        W25184   9.329  11.618  13.599  0.0138 -0.1762  0.1476
 6331W        W25185   4.235   4.215  16.407 -0.0005 -0.0259  0.1585
 6332W        W25186   9.296   7.592   3.611  0.0311 -0.0282  0.2378
 6333W        W25187   9.212  16.145  14.137 -0.0149  0.1304 -0.3018
 6334W        W25188  10.377   2.666  11.339 -0.2097  0.0002 -0.1502
 6335W        W25189   7.007  13.563  17.338  0.0160 -0.0170 -0.1445
 6336W        W25190  11.409   2.964  14.916 -0.0398  0.0290  0.0048
 6337W        W25191   8.584   0.044  13.582  0.1361 -0.0520 -0.1917
 6338W        W25192   7.393  16.162   3.126 -0.2168  0.1337 -0.0232
 6339W        W25193  12.392  11.208   2.024 -0.1014  0.2442  0.0907
 6340W        W25194   4.281  11.975   0.075  0.0279  0.0521 -0.0018
 6341W        W25195   5.010   5.128  17.118 -0.0174 -0.2165  0.1374
 6342W        W25196   8.948   0.108  16.980  0.1677 -0.2368 -0.0019
 6343W        W25197  16.571   9.990   5.225 -0.0205  0.1608 -0.4020
 6344W        W25198  12.257  14.919   0.357 -0.1855 -0.1766 -0.0641
 6345W        W25199  10.413  15.878   2.220 -0.0129  0.0052 -0.1753
 6346W        W25200  10.473   3.759   1.807  0.0115  0.0292  0.2535
 6347W        W25201  13.228   7.509   2.161  0.1221 -0.3545  0.0738
 6348W        W25202  14.356   4.001  16.973  0.0352  0.0891  0.0518
 6349W        W25203   7.865  14.689  16.949 -0.0225 -0.2487  0.0467
 6350W        W25204  15.546   4.937   4.635 -0.1181 -0.1428  0.0395
 6351W        W25205  10.378   9.497  16.836  0.0109 -0.1974  0.1995
 6352W        W25206  15.101   1.313   3.336 -0.1859 -0.0218  0.2076
 6353W        W25207   2.584   2.113  12.947 -0.1123  0.0914  0.0491
 6354W        W25208  13.357  16.182   4.827 -0.0206 -0.1201 -0.4939
 6355W        W25209   9.218   2.133   3.605 -0.2445 -0.0557  0.3402
 6356W        W25210   2.498  16.797  15.791 -0.1174 -0.0625 -0.1958
 6357W        W25211   9.400   1.255   3.314 -0.0800  0.0158 -0.0064
 6358W        W25212   3.070  15.925  13.902  0.2938  0.0770  0.1578
 6359W        W25213   2.331   3.102   4.673 -0.1713 -0.1039  0.5501
 6360W        W25214   0.496  13.325   0.776  0.1280  0.1469  0.1845
 6361W        W25215  15.556  15.222  13.143  0.1512 -0.3372  0.1164
 6362W        W25216  13.408   6.153   3.227  0.1919  0.0299 -0.0730
 6363W        W25217   3.315   8.682   3.129  0.0145  0.1473 -0.3133
 6364W        W25218   9.372  15.829   0.005  0.0732 -0.0207 -0.1473
 6365W        W25219   7.767   8.066  14.278 -0.0676 -0.3585  0.0287
 6366W        W25220  14.117  14.625  13.795  0.0539 -0.1894 -0.3669
 6367W        W25221  15.331   5.045   2.500 -0.3422  0.1546 -0.1669
 6368W        W25222   9.124  11.758   3.954 -0.0700 -0.2492  0.0807
 6369W        W25223  13.938   8.311  17.295 -0.3181 -0.0162  0.2336
 6370W        W25224  12.634   9.695  15.803  0.1210 -0.0228  0.0368
 6371W        W25225   5.375   1.152  15.991 -0.1851 -0.0605  0.1555
 6372W        W25226   6.934   3.246   4.805 -0.2727 -0.3139  0.1170
 6373W        W25227   4.180   1.404  15.362  0.0083  0.0555 -0.0335
 6374W        W25228   8.955  12.638  13.129 -0.1617  0.2399 -0.1898
 6375W        W25229  12.282   8.994   1.420 -0.2174  0.1753  0.0200
 6376W        W25230   3.494   8.369  12.228 -0.1480  0.0989 -0.2929
 6377W        W25231  16.273   7.431   1.324  0.2386  0.0180 -0.2093
 6378W        W25232   8.298  13.708   4.906 -0.2086 -0.0324 -0.2006
 6379W        W25233   3.962  13.686  13.601  0.2145 -0.0641  0.1944
 6380W        W25234  15.460   1.116  12.843 -0.1255  0.0836 -0.2123
 6381W        W25235  11.377   7.597   0.497 -0.1662 -0.0165 -0.0811
 6382W        W25236  16.027  14.448   3.387 -0.1351  0.2269  0.0290
 6383W        W25237  15.293  17.146   0.827 -0.0042 -0.0127 -0.0333
 6384W        W25238   0.344  14.696  14.462  0.1460  0.1913  0.0676
 6385W        W25239   9.445  12.916  16.359 -0.1716  0.1270 -0.1287
 6386W        W25240   5.693   3.609  15.199  0.0102  0.0564 -0.0534
 6387W        W25241  14.308  10.517  12.301  0.1052 -0.0937  0.0049
 6388W        W25242   3.328   0.473   2.713  0.2133  0.2153  0.1812
 6389W        W25243   3.584   5.640  12.547  0.2884 -0.0262  0.2016
 6390W        W25244   8.584   4.036   1.556 -0.1614  0.0107  0.0299
 6391W        W25245   8.697   2.319   0.908 -0.1330 -0.2043 -0.1599
 6392W        W25246   1.390   8.085   1.272  0.2271  0.3392  0.0787
 6393W        W25247   4.982  11.548  16.885 -0.1585  0.0015  0.2000
 6394W        W25248  16.345   3.872   1.499 -0.0627 -0.2026  0.3558
 6395W        W25249  13.469  11.627  15.774 -0.3168  0.0398  0.0983
 6396W        W25250   2.276   1.516  17.093 -0.2063  0.0859  0.2073
 6397W        W25251   8.582  16.734  12.967  0.2738 -0.1581  0.0971
 6398W        W25252   7.118  10.582  12.380  0.1670  0.1572 -0.1012
 6399W        W25253  16.317   0.124   2.233 -0.1516 -0.0174 -0.0052
 6400W        W25254  12.848   6.680   0.774 -0.1469  0.0266  0.1892
 6401W        W25255   8.997  15.529   5.148 -0.1289 -0.2869  0.0405
 6402W        W25256   3.067   8.887   3.554  0.1045 -0.3418  0.3391
 6403W        W25257   8.630  13.231  16.828  0.1815 -0.2183  0.1071
 6404W        W25258  14.737  13.780   3.643  0.1916  0.1273 -0.2865
 6405W        W25259  12.893   7.094   5.126 -0.2180  0.0211 -0.1085
 6406W        W25260   9.632  12.916  15.870 -0.0504  0.1031  0.0960
 6407W        W25261   2.771   3.128  15.653 -0.1200 -0.0451 -0.2963
 6408W        W25262   0.861   5.087  15.056 -0.0307  0.2406 -0.3087
 6409W        W25263   3.590  13.413   5.271  0.0877  0.1290 -0.0250
 6410W        W25264   3.191  14.903   0.525 -0.0372  0.1113  0.2417
 6411W        W25265  13.991  10.448  13.899  0.0341 -0.1083  0.0564
 6412W        W25266  15.098   7.113  15.339 -0.2167  0.0837 -0.0929
 6413W        W25267   0.365   9.356   3.065  0.1251  0.0748 -0.1361
 6414W        W25268  11.664  16.438  12.999 -0.0992  0.1108 -0.1865
 6415W        W25269  16.061   3.934   2.469  0.3078  0.2782 -0.1827
 6416W        W25270   5.868   8.093  15.661  0.0890 -0.1399  0.1734
 6417W        W25271   1.981   5.408  16.340 -0.0513 -0.0112  0.3907
 6418W        W25272   3.360   4.487   3.083  0.2138 -0.0878  0.2875
 6419W        W25273  11.806   8.626  12.979 -0.0223 -0.2483 -0.1022
 6420W        W25274   2.594   2.055   5.395  0.2008 -0.0936 -0.1334
 6421W        W25275  14.881  17.292  13.243  0.0194 -0.3486  0.2701
 6422W        W25276  13.189   2.140   2.057 -0.0124 -0.1767  0.0803
 6423W        W25277  11.155  13.697  17.400 -0.0306 -0.0511 -0.0242
 6424W        W25278   6.990   7.010   1.647  0.0896 -0.0003 -0.1890
 6425W        W25279   8.428   2.837   1.805 -0.0107 -0.1588 -0.0687
 6426W        W25280   8.140   9.362   1.292 -0.0109 -0.0305  0.3120
 6427W        W25281  14.676   3.905   4.130 -0.0042 -0.1242 -0.0203
 6428W        W25282   6.308   1.055   0.570 -0.0099 -0.0450 -0.0633
 6429W        W25283   7.813   8.845   4.982  0.2047  0.2916 -0.1070
 6430W        W25284   6.104  10.557   1.348 -0.2520  0.1221  0.3451
 6431W        W25285   7.583   2.940  15.243 -0.0996 -0.1761 -0.0760
 6432W        W25286   6.250   3.246  17.284 -0.0935  0.1621 -0.1677
 6433W        W25287   8.507   7.659   2.563  0.0546  0.1390  0.1164
 6434W        W25288  13.821  13.322   2.286 -0.1387  0.4490 -0.0379
 6435W        W25289  13.065   5.037   1.641  0.0463  0.0752 -0.2362
 6436W        W25290   7.970   0.057   2.432 -0.3052 -0.0228  0.1938
 6437W        W25291   0.352  17.159   2.420  0.0392  0.2008 -0.1334
 6438W        W25292  15.444   0.445  15.404 -0.1351  0.1606  0.1345
 6439W        W25293  14.306   4.345  16.565  0.2116 -0.1634  0.1493
 6440W        W25294  15.285   8.455   1.898  0.0375  0.2195  0.3293
 6441W        W25295  14.071   0.032   2.249  0.1520 -0.4781 -0.1727
 6442W        W25296   8.499   6.445  12.801  0.1190  0.0989 -0.0488
 6443W        W25297   0.409   6.624  17.355  0.2214  0.1768 -0.0675
 6444W        W25298  17.308   9.378  15.631  0.0215  0.0908 -0.2382
 6445W        W25299   1.961   5.664  15.137  0.1157  0.2859  0.0106
 6446W        W25300  14.381  17.330   0.592  0.2765  0.0149  0.2388
 6447W        W25301   7.737   3.641   1.608  0.0474  0.2291  0.2340
 6448W        W25302   8.574  10.549   2.758 -0.2783  0.0238  0.1611
 6449W        W25303   0.945   2.360  11.814  0.2942 -0.0051  0.0752
 6450W        W25304   6.216   1.602   0.588  0.1709  0.0674  0.4704
 6451W        W25305  15.813  10.280   3.485  0.0567 -0.1329 -0.0352
 6452W        W25306   1.921   8.201   1.940  0.2171 -0.1451 -0.1051
 6453W        W25307  15.691   3.092  16.173  0.3976 -0.1478  0.3199
 6454W        W25308  11.235  13.321  14.864  0.0701  0.3944 -0.2797
 6455W        W25309   9.417   2.935   4.957  0.0092  0.0815 -0.0311
 6456W        W25310   6.148   7.040  14.529  0.1076 -0.0645 -0.1462
 6457W        W25311  12.006  13.319  15.475  0.1389  0.0716  0.0411
 6458W        W25312  16.770   9.243  16.883 -0.2842 -0.2128  0.4493
 6459W        W25313   6.022   2.726   3.928  0.0319  0.2955  0.1497
 6460W        W25314   5.992   3.013  14.464  0.0471  0.0795 -0.2208
 6461W        W25315   3.286   1.436   2.363 -0.3822  0.0231 -0.3231
 6462W        W25316  13.452  15.760  15.753 -0.0305  0.2421 -0.0546
 6463W        W25317   6.387  16.530  14.424 -0.1633  0.1238 -0.1312
 6464W        W25318   0.336  15.556   4.495  0.0199  0.0571 -0.0480
 6465W        W25319  17.085   5.942  16.146  0.2123  0.0603 -0.2184
 6466W        W25320  13.940   4.775  16.827 -0.0027 -0.4524 -0.2244
 6467W        W25321   7.171  17.152   0.739 -0.0031 -0.1954  0.0966
 6468W        W25322  13.933   8.545  15.739 -0.2820  0.1458 -0.0571
 6469W        W25323  12.938  15.956   0.831  0.0817  0.2162 -0.0230
 6470W        W25324  14.925   2.727  13.042  0.0699  0.1100  0.1272
 6471W        W25325  15.291  16.019   1.453 -0.0655 -0.3336  0.3133
 6472W        W25326   5.846   4.670  14.479  0.2361 -0.2550  0.1746
 6473W        W25327   6.800   2.061   5.091 -0.1690  0.2990 -0.1835
 6474W        W25328  10.977   6.168   3.528 -0.0555 -0.0426 -0.0784
 6475W        W25329   4.846   3.613  15.816 -0.0167 -0.1181  0.1190
 6476W        W25330  14.342   9.965  13.186  0.0946 -0.0842 -0.0304
 6477W        W25331  16.909   7.739   2.160 -0.0395  0.1229 -0.1907
 6478W        W25332   7.274  12.762  12.005 -0.0394  0.0229 -0.1571
 6479W        W25333  10.379  13.667  14.441 -0.3123 -0.1089 -0.0476
 6480W        W25334  13.250  14.332   4.479 -0.0627 -0.0807 -0.0897
 6481W        W25335   9.056   8.457   2.888 -0.2516 -0.1536  0.2095
 6482W        W25336  12.354  15.835   2.031  0.0442  0.0196  0.0081
 6483W        W25337   9.384  11.111   4.718  0.0114  0.2068 -0.3189
 6484W        W25338  13.513  14.848  12.225 -0.0623 -0.2290 -0.0309
 6485W        W25339   2.240   9.610  12.667  0.2966  0.1550  0.0785
 6486W        W25340   0.141   6.225  12.932 -0.1062 -0.1643 -0.1620
 6487W        W25341  12.958  12.931   2.171  0.2297 -0.4291 -0.1234
 6488W        W25342   6.635  14.448  16.238  0.1072  0.0270 -0.0589
 6489W        W25343   0.105  13.521  12.937 -0.0149  0.0226 -0.2148
 6490W        W25344  12.931  11.566   2.622 -0.2303 -0.2007  0.2656
 6491W        W25345   4.869  12.551   2.523  0.0954 -0.0577  0.2567
 6492W        W25346   7.234   2.553   0.214  0.0249 -0.0650  0.0668
 6493W        W25347   9.781   6.498   2.981  0.2358  0.0290 -0.1995
 6494W        W25348   0.319   4.800  15.380 -0.0277  0.0203 -0.0445
 6495W        W25349   4.460   2.131  15.832  0.2279 -0.0476  0.0949
 6496W        W25350   8.777   8.803   1.624 -0.2025 -0.1592 -0.1307
 6497W        W25351  12.167   6.850   4.750  0.0674 -0.5060 -0.3894
 6498W        W25352   7.049   1.093   2.620  0.2132 -0.0805  0.2340
 6499W        W25353  10.313   9.930  14.940  0.3973  0.1614  0.0709
 6500W        W25354  10.043  15.776   3.229 -0.1604  0.1098  0.0589
 6501W        W25355   4.958  12.266   4.295  0.1926  0.1201 -0.1059
 6502W        W25356  13.510   6.428   1.494 -0.1931  0.1568  0.1958
 6503W        W25357  13.372   3.441   3.466  0.4324  0.0181 -0.0248
 6504W        W25358   8.329  12.156  12.691  0.3774  0.0030 -0.1475
 6505W        W25359   3.463  13.269   2.524  0.1185  0.0807 -0.1018
 6506W        W25360   7.119  10.239   5.283  0.0382  0.0718  0.1198
 6507W        W25361  10.094   1.223  16.624  0.2449 -0.0126  0.3116
 6508W        W25362   5.413  15.077   0.226 -0.0529 -0.0871  0.2273
 6509W        W25363   8.337   6.481   2.148  0.3678 -0.1079 -0.1631
 6510W        W25364   9.808  10.218   2.336  0.1370  0.2608  0.0641
 6511W        W25365  12.805   1.376   0.078 -0.5069 -0.4179  0.2840
 6512W        W25366  11.928   8.574  17.014  0.1985  0.0041 -0.1872
 6513W        W25367   6.008   5.494  15.100  0.0046  0.0951  0.0767
 6514W        W25368  16.486  15.121  14.859  0.0030  0.0893  0.0770
 6515W        W25369   8.691   4.517   4.866  0.2185 -0.1074  0.3314
 6516W        W25370   5.448  11.735  14.132 -0.3161 -0.0691 -0.1149
 6517W        W25371   5.789  17.149  12.519  0.0444 -0.0413  0.0152
 6518W        W25372  13.076  10.377   4.728 -0.3233  0.1938 -0.0786
 6519W        W25373   7.323   5.572  13.148 -0.3118 -0.1478 -0.2929
 6520W        W25374  11.679  14.579   2.136  0.0229  0.1573 -0.0834
 6521W        W25375  17.086   5.732   5.144  0.1240 -0.1307 -0.0381
 6522W        W25376  12.750  16.348  15.417 -0.1973 -0.0075 -0.2689
 6523W        W25377   5.872  11.190   3.952 -0.4930  0.1525  0.0791
 6524W        W25378   2.386  16.370  16.082  0.0164  0.3177 -0.0066
 6525W        W25379   2.388  14.776  16.869 -0.0924  0.1647 -0.1278
 6526W        W25380   1.883  13.756  13.093  0.3958  0.3260  0.0333
 6527W        W25381  17.267   0.427   4.537  0.1321 -0.3871 -0.0646
 6528W        W25382   3.531   4.897  15.565 -0.2120 -0.2371  0.1535
 6529W        W25383  10.037  10.511   2.048 -0.1851 -0.0780 -0.3374
 6530W        W25384  10.484   7.335   4.519 -0.0078  0.2238 -0.0579
 6531W        W25385  11.206  13.362   3.606  0.0094  0.3670 -0.0960
 6532W        W25386   9.298  10.987  14.925  0.0399  0.2134  0.0429
 6533W        W25387  15.331   7.225  13.222 -0.0605 -0.0264 -0.0109
 6534W        W25388  15.986   6.057  13.201  0.2592 -0.0781  0.1010
 6535W        W25389  10.470  11.787   3.445  0.0850 -0.0379  0.2687
 6536W        W25390   2.999   1.201  15.821  0.2048 -0.0795 -0.0211
 6537W        W25391   1.888  13.114   4.422  0.1988  0.2575 -0.0485
 6538W        W25392   3.303   6.028  15.530  0.0048 -0.2773 -0.2602
 6539W        W25393   9.095   8.395  16.746  0.1300 -0.2469  0.0212
 6540W        W25394   1.353   2.846  15.464 -0.1152  0.1039 -0.5899
 6541W        W25395   7.753   7.098   3.571 -0.0580 -0.1164 -0.0627
 6542W        W25396  14.725  10.338  13.199 -0.1513 -0.0664 -0.0308
 6543W        W25397   3.410   4.024   3.343 -0.0924  0.1682  0.1293
 6544W        W25398   8.071   7.031  13.480  0.1354  0.0570  0.1401
 6545W        W25399  10.074  15.695  16.926  0.2048  0.0496  0.1344
 6546W        W25400   5.228   7.681  17.305 -0.1917  0.0062 -0.1753
 6547W        W25401  16.041  10.806  12.028  0.0231 -0.1400  0.0760
 6548W        W25402   4.330   4.049  15.028 -0.3362 -0.2137  0.1625
 6549W        W25403   9.122   1.554  14.161  0.0266  0.0134  0.1886
 6550W        W25404   7.816   9.843   3.667  0.3543 -0.1312  0.2122
 6551W        W25405  13.801  14.760   1.241  0.1049 -0.3779  0.0758
 6552W        W25406   2.730  11.576  13.094 -0.1499  0.2319  0.2251
 6553W        W25407   6.676   4.144   0.553  0.1758 -0.0617  0.2010
 6554W        W25408   9.202   4.611  16.350 -0.0291 -0.1175 -0.1551
 6555W        W25409   8.487  12.125  16.140  0.2691 -0.1035  0.0094
 6556W        W25410  12.437   0.420   1.212 -0.1374  0.0340 -0.2102
 6557W        W25411  13.521  16.569  15.585  0.1317 -0.3214  0.0319
 6558W        W25412  14.285   2.349   0.109 -0.1675  0.1176 -0.1858
 6559W        W25413  13.406  15.855  16.232 -0.0828 -0.3461 -0.0300
 6560W        W25414   9.616   5.008  13.005 -0.1024  0.4187  0.2206
 6561W        W25415  10.485   2.236  14.316  0.0422  0.2485  0.0280
 6562W        W25416  14.482  15.270   1.610 -0.0915 -0.1177  0.0135
 6563W        W25417  11.538  12.021   1.252  0.0231  0.0967 -0.1715
 6564W        W25418   5.730  10.022  15.458 -0.0379 -0.0250  0.1379
 6565W        W25419  14.286   9.863   3.477  0.0504 -0.0898  0.0711
 6566W        W25420   2.793   7.797  15.126 -0.1131  0.0042 -0.0226
 6567W        W25421  11.626  10.432  13.761 -0.2357 -0.1883  0.0157
 6568W        W25422   2.730   8.058   1.040  0.1429  0.0362 -0.0399
 6569W        W25423   9.367  14.310  15.152 -0.0563  0.3996 -0.2472
 6570W        W25424   0.497  12.001   3.596 -0.0022 -0.2114 -0.2361
 6571W        W25425   6.516   7.781  16.780  0.1686  0.3660 -0.2057
 6572W        W25426   3.726   4.218   0.126  0.0806 -0.1014 -0.0001
 6573W        W25427  10.425   8.580  13.679 -0.2748  0.0547 -0.1847
 6574W        W25428   4.228   6.913  14.160 -0.0761 -0.0905  0.1718
 6575W        W25429   1.521  11.181  16.637 -0.1361  0.0294 -0.0167
 6576W        W25430   1.923  17.188  14.394 -0.1462  0.1829 -0.0418
 6577W        W25431  15.719   6.382  14.989  0.0001 -0.1192 -0.2005
 6578W        W25432  10.758  10.963   5.271 -0.0642 -0.1291 -0.1537
 6579W        W25433  11.086   5.985   0.124 -0.3146  0.1119 -0.1217
 6580W        W25434  14.534  13.801  13.808  0.1487 -0.0018 -0.0054
 6581W        W25435   9.542  17.118  13.800  0.2897 -0.2601 -0.1965
 6582W        W25436   4.130   2.164  16.919  0.1973  0.2833  0.3253
 6583W        W25437   1.821   1.849   3.232 -0.0518  0.0406 -0.1859
 6584W        W25438   2.698  14.397  16.356  0.0633 -0.0776 -0.4179
 6585W        W25439   7.896   5.490  14.719  0.0886 -0.1129  0.0331
 6586W        W25440  11.043   8.540   0.068 -0.0870 -0.3010  0.1984
 6587W        W25441   3.109  13.291   0.074  0.0082  0.1852  0.1269
 6588W        W25442  12.509  13.084  16.383  0.1432 -0.1557 -0.0881
 6589W        W25443  11.308   0.828   4.296  0.1496 -0.2215  0.3407
 6590W        W25444   2.243   0.282  15.832 -0.1279  0.2810  0.1176
 6591W        W25445   3.636   5.703  13.372  0.1496  0.1501 -0.4764
 6592W        W25446   0.647  10.674   1.193 -0.0552  0.0766 -0.0447
 6593W        W25447   3.605  15.695   5.029  0.2992 -0.0768  0.0950
 6594W        W25448   9.405   5.985   0.029  0.0084 -0.0023  0.1313
 6595W        W25449   8.425   5.648   2.872 -0.1065  0.0375  0.2945
 6596W        W25450  14.484  10.365  16.733 -0.0893 -0.1217 -0.1392
 6597W        W25451  12.524  13.888   3.550 -0.0680 -0.2130 -0.0444
 6598W        W25452  14.100  15.049  15.534 -0.1465 -0.1308  0.0937
 6599W        W25453  12.559   3.748   0.763 -0.0479  0.0412  0.4478
 6600W        W25454   7.892  11.262  17.374  0.3811 -0.0659  0.2673
 6601W        W25455  10.841   1.543   0.130  0.0863 -0.0252 -0.0566
 6602W        W25456  17.113   0.629  17.104 -0.1532 -0.0588  0.1737
 6603W        W25457   1.838  10.213   2.890 -0.0200  0.0884 -0.0891
 6604W        W25458   1.894  16.656   2.899 -0.1063 -0.0317  0.0968
 6605W        W25459  17.111  12.592   0.599  0.3042  0.1872  0.3419
 6606W        W25460   1.192  15.916  12.072 -0.2345  0.1074  0.3557
 6607W        W25461  14.601   5.863   4.345  0.0892 -0.0930 -0.0604
 6608W        W25462   8.566  12.757   4.000  0.1389  0.1135  0.1433
 6609W        W25463   6.333   2.019   5.204  0.1647 -0.2113  0.0089
 6610W        W25464   5.635   6.423   0.686 -0.2332 -0.0275  0.0958
 6611W        W25465  11.452   3.040   4.769 -0.1049  0.0367  0.1681
 6612W        W25466  14.074  11.793   5.505 -0.2204  0.5236  0.1279
 6613W        W25467  14.630  12.713  14.051 -0.0216 -0.1282 -0.1307
 6614W        W25468   0.425   0.261   2.861  0.1774  0.1854 -0.1849
 6615W        W25469  10.089   1.093  13.781 -0.0580 -0.1618 -0.0176
 6616W        W25470  15.918   3.179  12.088 -0.2224 -0.0764  0.1275
 6617W        W25471   3.626   3.123   0.438 -0.0071 -0.1231  0.0172
 6618W        W25472   8.637   7.412   2.141  0.0522 -0.0384 -0.0519
 6619W        W25473  16.274   9.640   1.591 -0.1046 -0.0134  0.1707
 6620W        W25474   3.995  16.397  14.806  0.1693  0.0058  0.2006
 6621W        W25475  11.991   1.823  17.272 -0.2485 -0.1318  0.0806
 6622W        W25476   9.575  12.860   3.737 -0.2479  0.0404  0.0911
 6623W        W25477   4.944   2.817   2.223 -0.0012 -0.1353  0.0289
 6624W        W25478  15.584   8.177   2.397 -0.3484 -0.1122  0.1547
 6625W        W25479  14.199   4.135  13.494  0.0626  0.2231 -0.2043
 6626W        W25480  12.303   0.891   2.591 -0.1705  0.0424  0.2351
 6627W        W25481  14.893   8.326  14.559 -0.0929  0.1328  0.3376
 6628W        W25482   2.480  11.182   0.066 -0.2329 -0.0708  0.3002
 6629W        W25483   9.876  13.972   5.468  0.0614  0.2600 -0.0144
 6630W        W25484  10.979  15.935  12.931  0.2462  0.2477  0.1487
 6631W        W25485   0.226   0.811  15.581 -0.0233  0.0913  0.1510
 6632W        W25486   9.546   8.708   4.555 -0.0869 -0.3181 -0.0370
 6633W        W25487  11.050   3.886   5.070  0.1615 -0.3870 -0.1323
 6634W        W25488   5.740  10.940  12.426  0.0394  0.0647 -0.0103
 6635W        W25489  12.136   6.062   1.371  0.0339  0.3332  0.0346
 6636W        W25490   0.870   8.501  13.329  0.2353  0.1899  0.0846
 6637W        W25491   1.973  16.711   3.888 -0.2112 -0.1071  0.0619
 6638W        W25492   6.976   9.194  14.354  0.1881 -0.1761  0.0585
 6639W        W25493   9.552   4.179   1.731 -0.1333 -0.0072 -0.0701
 6640W        W25494   4.691   8.520   2.585 -0.4130 -0.0068 -0.0736
 6641W        W25495   5.178   0.709  15.699 -0.0690  0.0235 -0.0349
 6642W        W25496   9.543   5.862  13.031 -0.0260 -0.3506 -0.0404
 6643W        W25497  15.561   7.310   2.905 -0.3398 -0.2577 -0.0958
 6644W        W25498   3.879  11.551  16.136 -0.1868  0.1202  0.0737
 6645W        W25499   6.173   6.702  16.435  0.2327 -0.1259 -0.0683
 6646W        W25500   4.932  10.553  17.196  0.0449 -0.1125 -0.1311
 6647W        W25501   8.835  16.289  14.771 -0.0569  0.0964  0.0829
 6648W        W25502  16.332   2.789   3.365  0.1067  0.0443 -0.0613
 6649W        W25503   4.194   2.693  12.757  0.0517 -0.0935 -0.3899
 6650W        W25504  10.485   1.404   1.369  0.0414  0.0826 -0.0260
 6651W        W25505   2.091   2.863  16.482  0.2695  0.0542  0.0115
 6652W        W25506  15.653   1.399  15.177  0.3111 -0.1167 -0.0024
 6653W        W25507  10.239  10.240  13.046  0.0687 -0.1818 -0.0562
 6654W        W25508  10.955   9.770   2.904  0.1217 -0.1589  0.1448
 6655W        W25509   7.561   0.731  14.844  0.4180  0.2341 -0.3303
 6656W        W25510   3.473   3.572   5.122  0.1629  0.1390  0.0566
 6657W        W25511   7.404  12.014  17.017 -0.2274  0.0670 -0.1162
 6658W        W25512   7.980  13.861   4.466  0.1420 -0.0924  0.1512
 6659W        W25513  11.725   9.569  13.585 -0.0783 -0.1951 -0.3109
 6660W        W25514   3.483   4.843  14.887  0.0463  0.0650 -0.1007
 6661W        W25515   9.077   2.445   0.558 -0.1725  0.1337 -0.2621
 6662W        W25516  15.365  16.520  14.300 -0.1308  0.1279 -0.2056
 6663W        W25517   2.704   6.608   5.000 -0.0808 -0.0752 -0.0818
 6664W        W25518  11.171   3.522   2.603 -0.0273  0.1598  0.1709
 6665W        W25519  15.884   1.005   1.346  0.2346 -0.0384 -0.3610
 6666W        W25520  15.092  12.611   0.518  0.0149  0.0087 -0.0092
 6667W        W25521  15.376  13.246   1.320 -0.3525  0.1122  0.0511
 6668W        W25522   3.407   9.786   4.313 -0.0212  0.1220  0.0763
 6669W        W25523  10.569   5.563  17.190  0.0665  0.0829 -0.2234
 6670W        W25524   2.248  10.946  13.810 -0.2180 -0.1563 -0.0614
 6671W        W25525   0.091  10.333  14.430 -0.1965  0.4285 -0.0468
 6672W        W25526   7.142  13.328  16.408 -0.0078  0.1475 -0.0573
 6673W        W25527   2.641   7.444   4.574 -0.1645  0.0262  0.1774
 6674W        W25528  17.330  15.793  13.198  0.1439 -0.1112 -0.2202
 6675W        W25529  12.082  14.879  15.049 -0.0570  0.1136  0.1368
 6676W        W25530  12.663  16.403  13.550 -0.1065  0.2702 -0.0184
 6677W        W25531   0.141   9.333  12.450 -0.0387 -0.0052 -0.3203
 6678W        W25532   9.467  11.636   4.339 -0.4455  0.0350 -0.1167
 6679W        W25533  16.846  16.319  13.599  0.0693 -0.0196  0.0694
 6680W        W25534   5.053   8.888   2.370 -0.0934 -0.0676  0.2993
 6681W        W25535   5.785   8.177   0.910 -0.0880 -0.0964 -0.0922
 6682W        W25536   7.887   0.186   3.308 -0.3694  0.2458  0.1399
 6683W        W25537   7.773   3.507  14.168 -0.1643  0.1273 -0.1146
 6684W        W25538  14.348   7.657   1.282  0.2606  0.1941 -0.2287
 6685W        W25539   5.724  13.417   0.592 -0.2229  0.1619 -0.2574
 6686W        W25540   9.752   1.251  13.493  0.0801 -0.1717 -0.2259
 6687W        W25541  15.101   2.885   0.916 -0.0771  0.1044  0.2126
 6688W        W25542   3.088   0.348  15.020  0.1032  0.0662 -0.3595
 6689W        W25543  14.555   4.444   4.117  0.3328  0.1007  0.0005
 6690W        W25544   6.443  13.694  12.104  0.1774  0.0920 -0.0834
 6691W        W25545   2.461   5.442  14.268  0.0063 -0.2070  0.1558
 6692W        W25546  11.875  16.077   5.016 -0.1579 -0.0632 -0.3944
 6693W        W25547  11.755   9.598   2.959 -0.0642  0.0094 -0.0565
 6694W        W25548  14.061   3.564   0.526  0.1007  0.1251 -0.2197
 6695W        W25549  14.426   3.705  12.692  0.2328 -0.0612 -0.1392
 6696W        W25550   9.679   8.279  15.662 -0.2082  0.1052  0.2575
 6697W        W25551   2.677  14.406   3.287  0.2161  0.3141 -0.3365
 6698W        W25552   7.079   0.726   0.911  0.2318 -0.0484  0.1037
 6699W        W25553  14.182   7.236   3.738  0.0556  0.1277 -0.0119
 6700W        W25554  15.151  14.753  16.277  0.3907 -0.0894 -0.0865
 6701W        W25555   9.718   1.556   1.846  0.2619  0.1760  0.0810
 6702W        W25556   9.283   5.219  17.055 -0.0013 -0.1815 -0.0392
 6703W        W25557  15.256  15.080   1.452  0.1804 -0.1242 -0.2270
 6704W        W25558  14.286   8.753  16.069  0.1624  0.4163  0.0708
 6705W        W25559  10.281   3.923   2.640  0.3761  0.0568  0.1137
 6706W        W25560   7.231   8.227   2.893  0.0340  0.1702  0.0945
 6707W        W25561  16.236   2.854   3.877 -0.3271  0.0675  0.0522
 6708W        W25562   0.323   1.003  13.911 -0.1699 -0.2941 -0.3350
 6709W        W25563   3.875  12.578  16.071  0.0207 -0.1003  0.1107
 6710W        W25564   9.515   2.213  14.739 -0.2189  0.3709 -0.0205
 6711W        W25565  13.565   3.863  15.711 -0.0949  0.1019  0.0382
 6712W        W25566  13.815   5.394  13.394 -0.0176 -0.2857  0.2089
 6713W        W25567   3.019   2.767   1.738  0.0806  0.1434 -0.1420
 6714W        W25568   4.585   3.012  15.144  0.1647 -0.0759 -0.1579
 6715W        W25569   6.580   0.732   1.937 -0.0028 -0.0242  0.1735
 6716W        W25570  14.108   4.936  14.550  0.0803  0.1370  0.1652
 6717W        W25571   2.427   7.076   4.303 -0.1355  0.3909 -0.0827
 6718W        W25572  16.772   2.856  13.032 -0.0982  0.1002  0.2200
 6719W        W25573  15.596   2.845   1.182  0.3161 -0.2825 -0.0115
 6720W        W25574   3.424  16.473   5.710 -0.3329 -0.0682  0.1762
 6721W        W25575  12.957   4.857  16.239 -0.2193  0.0611 -0.0326
 6722W        W25576   0.393  14.489  13.915 -0.1114 -0.2227  0.1271
 6723W        W25577  13.890  11.514  16.131  0.1612 -0.0815 -0.0612
 6724W        W25578   4.704  17.157   3.679  0.1078  0.0142  0.2080
 6725W        W25579  17.178  11.695  12.506 -0.3802 -0.1144  0.1688
 6726W        W25580   9.830   0.735   0.612 -0.0672  0.2019  0.4031
 6727W        W25581  12.462  15.820   1.437 -0.0441 -0.1947  0.1196
 6728W        W25582   5.918  12.728   2.389 -0.2379  0.1696 -0.3847
 6729W        W25583  10.770  10.939   3.615 -0.3875 -0.2532  0.1601
 6730W        W25584  14.630   3.720  14.260 -0.1166 -0.0206 -0.0615
 6731W        W25585  15.571   6.566  13.708  0.0518  0.0530  0.1063
 6732W        W25586  10.653   0.259  17.444  0.2448 -0.0096 -0.1245
 6733W        W25587  12.503   9.604   4.759  0.2658  0.0427  0.0986
 6734W        W25588  16.542   6.329   0.671  0.0907  0.1893 -0.0791
 6735W        W25589   3.163  13.613   1.409 -0.1155  0.3637  0.0799
 6736W        W25590   2.270   1.485   1.080  0.2035 -0.1319 -0.1988
 6737W        W25591  11.448   9.243  15.352  0.0042 -0.2140  0.2325
 6738W        W25592   2.104  16.855  14.730 -0.0540  0.0978 -0.3218
 6739W        W25593  10.917   6.739  13.966 -0.2357 -0.1472  0.0827
 6740W        W25594   7.799   9.407  14.645  0.1991 -0.1300  0.0707
 6741W        W25595  12.971  10.121  13.728 -0.0850  0.0332  0.0174
 6742W        W25596   2.901  17.235  16.622 -0.1162 -0.0376 -0.0971
 6743W        W25597   6.529   4.046   4.301  0.0528 -0.0998 -0.2928
 6744W        W25598  14.558  15.305  17.346  0.2279 -0.0837  0.4148
 6745W        W25599  13.300   4.529   0.345 -0.2293 -0.0667  0.1125
 6746W        W25600   5.748   5.121   1.810  0.2339  0.0173 -0.2308
 6747W        W25601   4.869   1.237  13.139  0.3798 -0.0486 -0.1678
 6748W        W25602   1.217  15.289   1.913 -0.0185 -0.1226 -0.1078
 6749W        W25603   0.940   5.951  13.323 -0.0965 -0.1035 -0.0014
 6750W        W25604  15.289   8.673  15.679 -0.0479 -0.3800  0.1905
 6751W        W25605  13.105  12.103   1.647 -0.0773 -0.0985  0.2586
 6752W        W25606   7.614   5.641   6.884  0.2738 -0.0763 -0.1132
 6753W        W25607  13.978  14.435   3.454  0.3443  0.0304 -0.2933
 6754W        W25608  13.290   6.242  16.690 -0.0998  0.1308  0.0107
 6755W        W25609  16.357  16.233   3.667 -0.0052 -0.1814  0.2361
 6756W        W25610  10.912  10.322   0.268 -0.1828  0.1822  0.3675
 6757W        W25611  11.552   7.298   6.390 -0.3436 -0.0662  0.0506
 6758W        W25612  16.973   2.358   1.063  0.0797 -0.0849 -0.0507
 6759W        W25613  16.272  12.395   4.359  0.0634  0.2442 -0.0293
 6760W        W25614  12.562   7.506  17.307  0.0964 -0.1120  0.0788
 6761W        W25615   5.006  14.524  12.786 -0.2314 -0.0518  0.2056
 6762W        W25616  15.074   9.898   2.349 -0.1678 -0.1267 -0.4346
 6763W        W25617   8.485   5.901   5.503 -0.2110  0.0664 -0.0406
 6764W        W25618  16.496   4.850  12.390  0.0195 -0.0496  0.2419
 6765W        W25619   0.122  17.204  15.056 -0.2375  0.1738  0.0598
 6766W        W25620   5.903  16.521  14.299  0.3972  0.0476  0.0579
 6767W        W25621  15.103   9.841  17.309 -0.2239  0.0136 -0.0456
 6768W        W25622   2.754   0.903  16.127 -0.0611 -0.1577 -0.3801
 6769W        W25623   1.063  11.143  16.502 -0.1855 -0.0302  0.0487
 6770W        W25624  11.701  13.991   1.960 -0.2710  0.0543  0.0445
 6771W        W25625  13.123   2.863   5.109  0.3075  0.1426  0.2107
 6772W        W25626   7.374   7.374   2.862  0.0263  0.0259 -0.0002
 6773W        W25627  11.604   0.257  16.258  0.2119  0.1335 -0.1697
 6774W        W25628   8.310   8.827   5.070 -0.0351  0.1912 -0.0685
 6775W        W25629   4.238   2.507   1.525 -0.1968 -0.0943 -0.4507
 6776W        W25630  16.897  15.473  12.449 -0.1316 -0.1083 -0.0047
 6777W        W25631   1.556  15.780   4.146 -0.1407  0.0795 -0.2142
 6778W        W25632  14.886  14.796   3.747  0.0462 -0.0528 -0.0681
 6779W        W25633  16.310   4.188  14.086 -0.0257 -0.0672  0.2430
 6780W        W25634   3.418   9.910  16.285  0.2688 -0.0654  0.0654
 6781W        W25635  15.887  14.905  13.281 -0.3717  0.3138  0.0367
 6782W        W25636  13.444   4.734  13.687  0.0209  0.1419 -0.0439
 6783W        W25637   1.753   0.280  16.572  0.1796 -0.1242  0.0045
 6784W        W25638  16.892  11.183   4.793  0.2749 -0.2285 -0.1387
 6785W        W25639   3.895   2.650   0.379  0.1007  0.0549  0.0300
 6786W        W25640   9.632  12.946  12.430  0.1638 -0.0178 -0.0629
 6787W        W25641  10.510  13.305  12.853 -0.1609  0.0540  0.2687
 6788W        W25642  13.589  16.445  12.027 -0.3026  0.1549 -0.0284
 6789W        W25643   3.046  12.896   5.952  0.1659  0.0949 -0.2240
 6790W        W25644  10.546   4.134  16.545 -0.1099  0.0575 -0.0539
 6791W        W25645  12.738  14.296  13.923 -0.0410 -0.1531 -0.0769
 6792W        W25646   3.186   5.081  12.989 -0.3553  0.2692  0.0326
 6793W        W25647  14.879   1.565  16.751 -0.4186 -0.0079  0.1136
 6794W        W25648   1.962   6.937   2.111 -0.2029 -0.2111  0.0274
 6795W        W25649  14.619   5.669  16.115  0.1269 -0.1650  0.1261
 6796W        W25650  15.558   1.831   4.021 -0.0617 -0.0362  0.0183
 6797W        W25651  11.796  16.691   0.836  0.2236  0.1045 -0.2253
 6798W        W25652   0.951  10.386  15.476 -0.0795 -0.1481 -0.0031
 6799W        W25653   2.638   3.719  16.399  0.1258 -0.4075 -0.1399
 6800W        W25654   4.348   4.187   0.886 -0.1963  0.0807  0.2385
 6801W        W25655  11.064   6.432  13.558  0.1574  0.0423  0.1337
 6802W        W25656   9.341  12.902   0.401 -0.0659 -0.1079 -0.1038
 6803W        W25657  11.207  14.276   4.794 -0.0913  0.0371 -0.1341
 6804W        W25658   5.918   4.629   2.623  0.5030  0.0276 -0.1867
 6805W        W25659  16.417   1.770   1.488  0.2313  0.0036  0.1494
 6806W        W25660   7.466  15.867  13.655 -0.0672 -0.1908 -0.2693
 6807W        W25661  13.514  16.028  17.046 -0.2246 -0.3468 -0.1293
 6808W        W25662  12.227   0.110  16.295 -0.2019 -0.0543  0.0070
 6809W        W25663   7.755  10.650   1.665 -0.1120 -0.0765 -0.2012
 6810W        W25664  14.632  14.069  11.464 -0.0500  0.0279 -0.0690
 6811W        W25665  14.577   6.700  12.942  0.1777  0.0436 -0.0515
 6812W        W25666  12.423  15.382  12.874  0.0050  0.0125  0.0560
 6813W        W25667   1.760   2.499   4.455 -0.2627 -0.0983  0.0107
 6814W        W25668  14.136   5.745  13.201  0.1497  0.0622  0.2460
 6815W        W25669   2.160   8.854  15.522 -0.1137 -0.0011 -0.0055
 6816W        W25670  12.714   2.212  17.121 -0.2468  0.1339 -0.3050
 6817W        W25671   4.094  14.332   3.025 -0.0114 -0.0314  0.0478
 6818W        W25672   7.509   8.335   4.870 -0.2951 -0.0331  0.1819
 6819W        W25673   0.691  15.586  14.044 -0.0990 -0.0940  0.1391
 6820W        W25674  13.093   9.057  13.648 -0.2309 -0.0350  0.1131
 6821W        W25675   0.937  10.949   4.095  0.2254 -0.1671 -0.0519
 6822W        W25676   1.004  12.805   2.682 -0.1316  0.1881 -0.1810
 6823W        W25677   3.785  16.805  12.637 -0.0962  0.1092 -0.0923
 6824W        W25678   2.460  14.899   3.272  0.0238 -0.0707  0.1540
 6825W        W25679  12.413   3.206  17.419  0.2779 -0.1254 -0.2279
 6826W        W25680  14.107  14.992  17.233  0.4499  0.3320  0.0158
 6827W        W25681   0.557  14.006  14.191 -0.2281 -0.0845 -0.2510
 6828W        W25682  10.517  14.640   4.196  0.2033 -0.0072  0.1830
 6829W        W25683  13.816   3.343  15.721  0.0872  0.1052 -0.0160
 6830W        W25684   7.508   1.638   1.758 -0.0873 -0.0261  0.1278
 6831W        W25685  16.091   0.246  15.515 -0.1708 -0.2367  0.0186
 6832W        W25686   1.344   4.030   1.033 -0.0663  0.2351  0.1245
 6833W        W25687   0.669  16.029   2.290 -0.2126 -0.0134 -0.0875
 6834W        W25688   4.540  15.528   5.390  0.1877 -0.0450  0.0284
 6835W        W25689  17.051  15.981   5.101 -0.2006  0.1756  0.0273
 6836W        W25690   1.875   0.362  13.568 -0.1756  0.0305 -0.1731
 6837W        W25691   1.665   6.580   4.000 -0.1048 -0.3174 -0.0775
 6838W        W25692   0.256   0.741  16.986  0.0371 -0.2210 -0.0053
 6839W        W25693  16.873  13.375  15.033 -0.1865 -0.0759  0.0219
 6840W        W25694   3.928   9.396  13.808 -0.0414 -0.0481  0.2753
 6841W        W25695  10.364   2.252   1.807 -0.0028 -0.0430 -0.0713
 6842W        W25696   9.184  14.262  13.511 -0.0793  0.1970 -0.1154
 6843W        W25697   6.174   5.635   0.140 -0.1487 -0.1485  0.0284
 6844W        W25698  10.734  12.635   1.946  0.1597  0.2234  0.1190
 6845W        W25699   3.505   4.553   1.121 -0.1188  0.2614 -0.2103
 6846W        W25700  16.790   1.318  16.069 -0.0729  0.1078 -0.0576
 6847W        W25701   5.184   1.114   5.261 -0.4219 -0.2200 -0.2727
 6848W        W25702   5.673   9.162  14.697 -0.3008  0.2768 -0.0197
 6849W        W25703   1.048   1.004   6.219 -0.1006  0.1230 -0.0702
 6850W        W25704  11.211   2.727  15.376  0.2184  0.0373 -0.0611
 6851W        W25705  15.657   9.902   3.217 -0.4503 -0.3153  0.0380
 6852W        W25706   5.706  14.931  14.720 -0.1820  0.3422  0.0617
 6853W        W25707   6.997   5.978   2.423 -0.0708 -0.2426  0.1068
 6854W        W25708  13.577   4.864  15.502 -0.0056 -0.0345  0.1641
 6855W        W25709   4.760   2.660  12.751  0.2877 -0.0918 -0.0998
 6856W        W25710   6.664   7.750   4.072 -0.3691  0.0216  0.1954
 6857W        W25711  12.933   8.211  12.491  0.1352  0.1546  0.1665
 6858W        W25712   8.878   3.940   1.171  0.2141  0.0436  0.1865
 6859W        W25713   6.407   9.445  15.727 -0.1083  0.1819 -0.1380
 6860W        W25714   7.009   9.914   4.969 -0.0961 -0.0220 -0.3935
 6861W        W25715  15.426  12.786   3.193  0.0104 -0.0261 -0.3352
 6862W        W25716   7.192   6.441   3.266  0.3675  0.4345  0.2669
 6863W        W25717  15.029   5.165  14.964 -0.1289  0.0324  0.2017
 6864W        W25718   2.496  15.693  16.869 -0.0825  0.0102  0.0171
 6865W        W25719   5.419   9.298   2.282 -0.1004 -0.0635  0.1321
 6866W        W25720  14.421   5.886  13.595 -0.0837 -0.1906 -0.0598
 6867W        W25721   5.021   2.035   1.399 -0.0608  0.1988  0.2331
 6868W        W25722   8.194  11.478  14.107  0.0042 -0.0056  0.0165
 6869W        W25723  11.681  15.411  16.212 -0.0655 -0.1454  0.3117
 6870W        W25724   1.616  11.056   6.152 -0.1346 -0.0764  0.0771
 6871W        W25725   2.847   4.288  12.373 -0.1713 -0.0622  0.3147
 6872W        W25726   6.875  14.372  14.346  0.3104  0.0981  0.1036
 6873W        W25727  11.480   5.023  12.826 -0.0987  0.0253  0.1108
 6874W        W25728   7.770  11.786  13.005  0.0145 -0.2672  0.2719
 6875W        W25729  14.029   0.664  16.362 -0.1006  0.2511  0.0595
 6876W        W25730   1.432  13.195  15.694 -0.2064 -0.0707 -0.2457
 6877W        W25731   2.780  16.371  12.522  0.1631 -0.0011  0.1017
 6878W        W25732  12.668  11.581   3.766  0.0023 -0.1761 -0.2721
 6879W        W25733   3.095   9.186   5.112 -0.2959  0.3018 -0.2328
 6880W        W25734   9.953  13.878  13.767 -0.0029 -0.2665  0.0544
 6881W        W25735   8.203  13.893   3.434  0.0013 -0.0787  0.1663
 6882W        W25736   1.757   4.181   5.513 -0.0743  0.0535 -0.1865
 6883W        W25737   3.500  15.215   1.341  0.0542  0.1060  0.0097
 6884W        W25738  14.160   1.963   4.022  0.1461  0.0251 -0.0046
 6885W        W25739  12.402   0.667  14.392 -0.0780  0.1450  0.0970
 6886W        W25740  13.955   6.049   0.890 -0.1962 -0.3717  0.1757
 6887W        W25741   8.709   8.281  12.805  0.1132  0.0092 -0.2999
 6888W        W25742   0.396  14.202   5.484  0.0237  0.0189 -0.1464
 6889W        W25743   7.404  17.319  14.510 -0.0069  0.0672 -0.1292
 6890W        W25744   3.289   4.424  17.443 -0.1461  0.0896 -0.2551
 6891W        W25745   7.561   9.658   0.767  0.2403 -0.0042 -0.1210
 6892W        W25746  17.048  16.784   0.260  0.1004 -0.1049 -0.0827
 6893W        W25747  17.165  13.943   0.148 -0.2384 -0.0265 -0.1354
 6894W        W25748   5.627   2.382  14.976 -0.0512  0.3971 -0.3681
 6895W        W25749  11.817   0.572  15.118  0.0018  0.1069  0.1982
 6896W        W25750  11.978   2.814  16.192 -0.0714 -0.1518 -0.1091
 6897W        W25751   6.332  11.246  14.037 -0.0100 -0.0782 -0.0700
 6898W        W25752   0.363   4.199   2.015  0.0129 -0.2351 -0.1587
 6899W        W25753   3.684   0.528  16.928  0.1265 -0.3508  0.3447
 6900W        W25754   3.388   4.840  14.298 -0.4043 -0.0683  0.2997
 6901W        W25755  11.094   0.960  13.244  0.0401  0.2744  0.1897
 6902W        W25756   9.347   1.956  14.278  0.0775  0.1114 -0.0429
 6903W        W25757   1.415   4.767   2.610  0.2146 -0.2615  0.0991
 6904W        W25758  15.364   4.603  12.728  0.2475  0.0930 -0.1918
 6905W        W25759  14.206   1.318   4.339  0.0559  0.0893 -0.1835
 6906W        W25760   0.472   7.025   5.113  0.0491 -0.0458 -0.0627
 6907W        W25761  17.073  15.051   1.192 -0.0441 -0.0256 -0.1304
 6908W        W25762  16.484   0.850  13.306 -0.3117  0.1062 -0.2815
 6909W        W25763   5.176   6.415  16.540 -0.1291 -0.4002 -0.2374
 6910W        W25764   1.684   6.432  13.989  0.0907 -0.2253  0.1441
 6911W        W25765   6.730   6.675   3.305 -0.0209 -0.1507  0.2465
 6912W        W25766   2.782   1.858  13.869  0.1836 -0.2821 -0.0871
 6913W        W25767   7.712  11.070  14.525  0.0077  0.4882 -0.0478
 6914W        W25768   1.317   0.448   3.203  0.2720 -0.1043 -0.1698
 6915W        W25769   5.142   6.335   0.617 -0.1808  0.3517 -0.0901
 6916W        W25770  16.604   0.473   2.099 -0.1715 -0.0593 -0.0884
 6917W        W25771   2.679  16.279   1.190  0.1903  0.0686 -0.0964
 6918W        W25772   6.453  14.306  16.753 -0.1730  0.1169 -0.2754
 6919W        W25773   8.135   3.608  12.433 -0.3877 -0.2248 -0.1524
 6920W        W25774  13.484   5.719  13.775  0.1372  0.0415  0.1419
 6921W        W25775  15.889  10.288   4.969 -0.0333  0.2115  0.1510
 6922W        W25776   9.284   8.085  14.100  0.0474 -0.0542  0.2190
 6923W        W25777   4.304   5.983   0.212  0.2131 -0.0370 -0.0567
 6924W        W25778  16.101   3.895  16.281 -0.1203 -0.0464 -0.0667
 6925W        W25779  12.866   2.982   0.197 -0.2362 -0.0633 -0.1798
 6926W        W25780   7.667  15.709   4.756  0.2628  0.0418  0.0438
 6927W        W25781   2.497  10.185   3.652 -0.2455  0.2248  0.2053
 6928W        W25782   6.841  16.480  14.630  0.0830 -0.3403 -0.0113
 6929W        W25783   2.731  16.454   0.772 -0.2793 -0.0669  0.2675
 6930W        W25784   8.053   5.669   4.788 -0.1739 -0.0085 -0.1724
 6931W        W25785  14.708   3.535  12.200 -0.3675 -0.1267  0.1294
 6932W        W25786   6.059   3.994  14.181 -0.0716 -0.4193 -0.1644
 6933W        W25787   7.063  16.945   4.790 -0.1404 -0.1306 -0.1748
 6934W        W25788   6.011   9.761  13.578 -0.0516  0.1039 -0.1311
 6935W        W25789   7.818   9.121   1.795  0.0186 -0.0357  0.0158
 6936W        W25790  12.319   0.326   2.378  0.0529 -0.0105  0.2074
 6937W        W25791  13.690  14.376  13.788  0.0581  0.0839  0.3714
 6938W        W25792   1.187  10.650  17.440  0.0347 -0.2676  0.2140
 6939W        W25793  14.095  10.296   1.888 -0.0253 -0.3074  0.3340
 6940W        W25794   6.221  11.378  15.724 -0.5135  0.0735 -0.0080
 6941W        W25795   1.372  11.693   0.841  0.0246  0.3237  0.1912
 6942W        W25796   2.916   6.359  12.295 -0.1748 -0.0970 -0.0691
 6943W        W25797  12.244   7.955  14.657  0.0823  0.2114 -0.3305
 6944W        W25798  10.512  16.041  15.998  0.1464  0.1515 -0.3561
 6945W        W25799  10.292  10.156  13.808 -0.1523  0.1895 -0.1201
 6946W        W25800  14.498   8.626   4.772 -0.2436  0.1400 -0.1902
 6947W        W25801  13.647  13.951   0.571 -0.2335 -0.2020  0.0882
 6948W        W25802  10.431   7.282   5.058 -0.0255 -0.1236  0.3645
 6949W        W25803  11.914   4.874   5.144 -0.2112 -0.1910  0.0225
 6950W        W25804   0.953   0.292  15.568 -0.0743 -0.0376 -0.2195
 6951W        W25805   0.859   4.131   0.688  0.0464 -0.3467 -0.3282
 6952W        W25806   8.359   8.234  13.719  0.1783 -0.4997 -0.1874
 6953W        W25807   8.622   5.746  13.295  0.0323 -0.0309 -0.2396
 6954W        W25808  16.540  10.895  12.778  0.0368  0.2047 -0.0727
 6955W        W25809   3.340   5.175   5.092 -0.1208  0.0587  0.0738
 6956W        W25810   0.745   6.785  13.046 -0.0327 -0.1997  0.1380
 6957W        W25811  16.354  11.672  16.703 -0.3507  0.2164 -0.4207
 6958W        W25812  15.649  17.235  15.313  0.0156 -0.1954 -0.0483
 6959W        W25813   3.012   5.227   1.370 -0.0395  0.3478 -0.3080
 6960W        W25814  16.621   0.274   3.382 -0.0627  0.0561 -0.1448
 6961W        W25815  16.090  12.378  15.934  0.0767  0.3139 -0.0797
 6962W        W25816   3.334   5.099  15.992  0.0523  0.0460 -0.1083
 6963W        W25817  16.217   9.713  14.642  0.0345  0.1693 -0.0319
 6964W        W25818  11.260   3.579   0.916 -0.3437 -0.4454  0.0563
 6965W        W25819   9.933  12.429  17.199 -0.1661 -0.0010  0.1844
 6966W        W25820   7.120  13.012   0.121 -0.0803  0.1150 -0.3729
 6967W        W25821   0.659   4.302   3.030  0.1353 -0.1879  0.2743
 6968W        W25822   2.927  12.726  16.156 -0.0785 -0.0608  0.1805
 6969W        W25823   0.786  10.038  13.636  0.1109  0.1221 -0.0070
 6970W        W25824   9.767   9.578   5.378  0.3290 -0.2193  0.0374
 6971W        W25825   0.272  15.738   2.367  0.0525 -0.2464 -0.1617
 6972W        W25826   2.824  13.071  16.878  0.0698  0.4021  0.0637
 6973W        W25827   9.532  10.449  15.618 -0.3007 -0.2549 -0.3169
 6974W        W25828   0.855   7.707   2.533  0.0762 -0.0742  0.1075
 6975W        W25829  12.002   3.333  14.185 -0.0757  0.0502 -0.1263
 6976W        W25830   6.475  16.108   2.973 -0.0099  0.1587  0.0065
 6977W        W25831   6.180   3.602  16.693 -0.1570 -0.0516 -0.0059
 6978W        W25832  15.713  11.846  16.149 -0.0675 -0.1319 -0.0003
 6979W        W25833  11.444   7.346   3.720  0.0216 -0.0899 -0.1543
 6980W        W25834   0.368  10.208  15.875 -0.1933 -0.2137  0.0932
 6981W        W25835  13.321  10.265  11.660  0.0032  0.0931  0.1251
 6982W        W25836   0.045  14.230  14.864  0.0467 -0.1266 -0.1600
 6983W        W25837   6.022  10.561   5.102 -0.1410 -0.0130  0.0674
 6984W        W25838  10.694   1.844  16.166  0.0549  0.1085  0.0693
 6985W        W25839  13.072   1.647  15.569  0.0146 -0.3245  0.0296
 6986W        W25840  16.304  16.263   3.028  0.1892 -0.1158 -0.2821
 6987W        W25841  16.850  13.543  14.212  0.1170 -0.0732  0.2951
 6988W        W25842  10.223   3.066  13.882 -0.3594  0.0329 -0.2984
 6989W        W25843   9.974   4.947  14.731  0.0233  0.1254  0.2442
 6990W        W25844   9.538   8.357   4.143 -0.1910  0.0896 -0.0950
 6991W        W25845  16.088   6.964  16.246 -0.2548 -0.0174  0.0765
 6992W        W25846   7.088   2.170  14.749 -0.1224 -0.1640 -0.0086
 6993W        W25847   6.059   2.208   2.024  0.2991 -0.3237  0.2402
 6994W        W25848   0.271  14.919  16.279  0.0464  0.2745  0.0228
 6995W        W25849   9.653   4.636  14.498  0.0788 -0.0019 -0.4161
 6996W        W25850   9.083   9.868  12.657  0.1207  0.2038 -0.0584
 6997W        W25851  13.372   0.971  14.650  0.1791 -0.0424  0.4686
 6998W        W25852  13.357  16.107  15.401  0.0123 -0.0184 -0.1152
 6999W        W25853  11.483   2.264   1.538  0.1938  0.1615  0.2936
 7000W        W25854  10.452  14.585   3.646  0.0069  0.1380 -0.2995
 7001W        W25855   3.636  15.333   1.883 -0.1882 -0.3711 -0.1653
 7002W        W25856   2.303   4.321  17.453  0.2607 -0.0639 -0.3503
 7003W        W25857  11.912   9.235  15.056 -0.2046  0.1625  0.0123
 7004W        W25858   8.226  14.600  14.357 -0.1425  0.2929 -0.2436
 7005W        W25859  11.973   0.497  12.799  0.0949  0.1526  0.1699
 7006W        W25860  10.829   3.488   1.083  0.3624  0.3756  0.2911
 7007W        W25861   4.575   7.957   2.498 -0.1076 -0.1963 -0.4435
 7008W        W25862   8.125  14.075   2.665 -0.1756 -0.0847  0.1941
 7009W        W25863   3.042  12.758   3.003  0.1003 -0.1867  0.1851
 7010W        W25864  15.645   1.307   3.166  0.0996  0.1224  0.1470
 7011W        W25865   7.818   8.359   2.625 -0.0260  0.1699  0.1361
 7012W        W25866   9.442   6.320  12.653  0.0129  0.2020 -0.0144
 7013W        W25867   8.424  16.960  13.429  0.1949  0.1930  0.0874
 7014W        W25868   5.805   2.990   5.528 -0.3321 -0.0469 -0.0270
 7015W        W25869   1.129   3.754  13.294 -0.1466  0.2889  0.0461
 7016W        W25870   2.876  13.928  12.219  0.1585 -0.1055  0.2290
 7017W        W25871  16.537   9.086   5.203  0.1442  0.0922 -0.2352
 7018W        W25872  13.856   4.976  13.678 -0.2616  0.0395  0.2273
 7019W        W25873   6.545  10.105   5.119 -0.0436  0.0614 -0.1463
 7020W        W25874  13.705  14.984   5.096 -0.1612 -0.2566  0.2287
 7021W        W25875  13.269  11.889   0.014  0.2982 -0.2415  0.0148
 7022W        W25876   9.651   9.841   0.647 -0.0308 -0.0059 -0.0427
 7023W        W25877   4.707  10.255  15.458 -0.0664 -0.3606  0.2837
 7024W        W25878   7.412  15.678   3.153 -0.2128  0.3010  0.4146
 7025W        W25879  14.840   8.587  15.336  0.0316  0.1128  0.0629
 7026W        W25880  15.558   8.318   3.325  0.0422  0.1522 -0.0387
 7027W        W25881   7.643   9.563   2.114  0.4192 -0.0544  0.2650
 7028W        W25882   0.454  11.484  12.436  0.4997  0.1339 -0.2615
 7029W        W25883  16.794  16.425   1.338 -0.4740 -0.1935 -0.0564
 7030W        W25884  10.314  15.377   1.722  0.2450  0.1387  0.1583
 7031W        W25885  16.649   1.524  16.956 -0.0465  0.1664 -0.0303
 7032W        W25886   1.777   0.824  16.624  0.0411  0.0748 -0.0453
 7033W        W25887  15.840  13.687   1.198 -0.0051 -0.0482  0.1002
 7034W        W25888   4.698   1.769  17.268  0.1216 -0.1188 -0.0772
 7035W        W25889  10.679   2.787  15.209  0.2880 -0.0371 -0.2218
 7036W        W25890   4.746   0.282  13.087 -0.2344  0.0017  0.1903
 7037W        W25891  15.758   7.947   5.232 -0.2583 -0.0954  0.1355
 7038W        W25892   8.839  10.960   3.269 -0.1413 -0.1120 -0.1615
 7039W        W25893  15.588   4.105  15.996 -0.1633  0.1854  0.1941
 7040W        W25894   8.560  14.509   5.053 -0.1703  0.0997  0.1738
 7041W        W25895   1.886   2.996  14.029  0.2036  0.1893  0.1804
 7042W        W25896   9.912   0.974   1.971 -0.2554 -0.1570 -0.2424
 7043W        W25897  10.914  14.963  16.154  0.1283  0.2761  0.2606
 7044W        W25898   7.808   5.620  12.339 -0.1349  0.0494 -0.1102
 7045W        W25899  17.325   1.558  12.351 -0.0566  0.2968  0.0520
 7046W        W25900   4.376   1.403   1.824 -0.2630 -0.0888 -0.0606
 7047W        W25901   3.484   3.819  15.626 -0.1081  0.1001 -0.2798
 7048W        W25902   1.613   9.101  17.269  0.0742  0.0586 -0.1555
 7049W        W25903   5.264   7.510   4.763 -0.0873  0.0431  0.0513
 7050W        W25904  12.882  10.799   0.212 -0.0270 -0.3931  0.1280
 7051W        W25905   1.591   8.696   5.739  0.1628  0.0474 -0.1143
 7052W        W25906  10.777   1.053   0.968  0.0027  0.1268 -0.1189
 7053W        W25907  15.998  17.339   3.885 -0.1460 -0.2429  0.1074
 7054W        W25908  17.114  13.550  16.760  0.0726 -0.2972 -0.0380
 7055W        W25909   0.924  15.523  14.502 -0.0393 -0.1356  0.1478
 7056W        W25910  10.336   4.279  16.946 -0.0614 -0.0045 -0.1679
 7057W        W25911   6.186  14.530   3.287  0.6076 -0.1861  0.0776
 7058W        W25912   0.080  16.809   2.756 -0.1209 -0.2267  0.2283
 7059W        W25913   1.731   2.801   2.943  0.0840  0.5230 -0.3885
 7060W        W25914   1.046  10.716   3.495  0.0813 -0.1343  0.0545
 7061W        W25915  11.733   5.286   1.850  0.0654 -0.0340 -0.1060
 7062W        W25916   6.616  16.906  17.058 -0.4178 -0.1790  0.1319
 7063W        W25917   8.159   0.239   4.201  0.1507 -0.2292  0.0374
 7064W        W25918  15.387  10.278   4.806  0.0760  0.5245  0.1073
 7065W        W25919   8.216   6.855   5.776 -0.2095 -0.0879 -0.1956
 7066W        W25920  10.063   2.340   3.263 -0.0413 -0.2737 -0.1700
 7067W        W25921   8.545   6.529   4.833 -0.1533  0.1624 -0.2307
 7068W        W25922  12.985  11.436  15.916 -0.0911  0.0022 -0.1093
 7069W        W25923  13.299  13.472   1.519  0.3943 -0.3471  0.1604
 7070W        W25924   5.596  14.606  14.047  0.0226  0.0929  0.1231
 7071W        W25925  17.246   3.579  16.772  0.2394  0.0245 -0.1361
 7072W        W25926  15.044  11.894  16.681 -0.0247  0.2400 -0.1868
 7073W        W25927   0.624   7.340  16.419 -0.2496 -0.1756  0.1010
 7074W        W25928   0.685   6.455  16.878  0.1658  0.0033 -0.1942
 7075W        W25929   7.850  15.029   2.083  0.3085 -0.0370 -0.1556
 7076W        W25930   6.110   9.112   5.413 -0.1357 -0.1041  0.0891
 7077W        W25931   6.561   9.036  17.406 -0.0006  0.2359  0.0717
 7078W        W25932   9.776   3.913   4.217 -0.1202 -0.2283 -0.1101
 7079W        W25933  11.722   0.046   1.822  0.1412  0.1964  0.1976
 7080W        W25934   6.375   2.530  13.631 -0.1229  0.0359  0.0166
 7081W        W25935   5.135   2.085  14.261  0.0180  0.3963 -0.1015
 7082W        W25936   9.924  15.548   1.418  0.0128  0.1089  0.1771
 7083W        W25937   3.074   9.291  14.368 -0.0392 -0.0562 -0.2699
 7084W        W25938  15.369  15.825  12.970  0.3831 -0.3399 -0.1448
 7085W        W25939   0.166   6.104  15.544  0.1933 -0.3057 -0.0491
 7086W        W25940   7.465  11.075   2.310 -0.0931  0.2293 -0.1360
 7087W        W25941  14.392   9.130   4.499 -0.1282  0.1857  0.1578
 7088W        W25942   1.981   4.927  16.313 -0.2361  0.1364  0.2285
 7089W        W25943   4.576   5.039   2.490 -0.1398 -0.0734 -0.0679
 7090W        W25944   4.579   9.428  11.600 -0.0563 -0.0681  0.1431
 7091W        W25945   3.436   2.591  12.522 -0.1813 -0.0356 -0.1245
 7092W        W25946   5.370   0.318  14.202  0.0592  0.0241  0.2454
 7093W        W25947   1.700   2.572  16.286  0.0109 -0.0052  0.0537
 7094W        W25948  15.161   8.977  16.049  0.1485 -0.0059  0.0553
 7095W        W25949   7.142   1.366   4.394 -0.0196 -0.0589 -0.1803
 7096W        W25950   6.713  13.479  13.107 -0.1431 -0.1638  0.3550
 7097W        W25951  13.666  10.650  16.790  0.0448 -0.0940 -0.1372
 7098W        W25952  12.790  11.866   5.123  0.0127 -0.1365  0.1172
 7099W        W25953   4.914   3.049   3.111 -0.1505 -0.2550 -0.0308
 7100W        W25954  12.548   9.628  12.355 -0.0418  0.0825 -0.4051
 7101W        W25955  10.857  16.285   0.678  0.2060  0.0929  0.4104
 7102W        W25956   8.699  16.239  12.854  0.0750 -0.2121 -0.1990
 7103W        W25957  16.570  15.807  12.834 -0.1711  0.3507 -0.0716
 7104W        W25958   8.030   2.821  13.144 -0.1272 -0.2043  0.1923
 7105W        W25959   3.017  11.806   3.353 -0.2655 -0.0298 -0.3407
 7106W        W25960  10.493   5.466  13.044 -0.1125 -0.3239  0.1230
 7107W        W25961  11.859   5.623  14.983  0.1482  0.0188 -0.0572
 7108W        W25962   3.306   3.111   4.977  0.1818 -0.2531  0.0856
 7109W        W25963  13.549   9.649   0.790 -0.1613 -0.0002 -0.4518
 7110W        W25964  15.860   4.408  14.182  0.1821 -0.1903 -0.1734
 7111W        W25965  17.067   7.395  12.494 -0.0220  0.2143  0.0514
 7112W        W25966   8.175  12.979  15.209 -0.1194 -0.3349 -0.2944
 7113W        W25967  10.127  15.124   1.180  0.0976  0.3585 -0.3725
 7114W        W25968   7.414   9.738   5.319 -0.1891 -0.0275  0.1275
 7115W        W25969  15.140   1.419   1.020  0.4103 -0.2861 -0.1427
 7116W        W25970  10.876  17.170  13.552 -0.0925 -0.0926 -0.1811
 7117W        W25971  14.589   6.698   0.882 -0.2047 -0.0764  0.0908
 7118W        W25972  10.660   2.230  13.363  0.1108 -0.2554  0.2380
 7119W        W25973  14.434  10.952  12.485  0.0219  0.1656  0.1657
 7120W        W25974   3.331   7.047  13.658  0.1381 -0.0335  0.1809
 7121W        W25975  12.564   2.079   4.102 -0.0612  0.3825 -0.2114
 7122W        W25976  17.019   2.317  16.773 -0.1105  0.0943  0.2071
 7123W        W25977   8.569   6.911  14.081  0.0022 -0.3417  0.2852
 7124W        W25978  13.893   8.245  15.214  0.0495 -0.2794 -0.0936
 7125W        W25979   1.048   6.003   3.548 -0.1374 -0.0608 -0.1656
 7126W        W25980   0.199   6.692  16.811  0.2813 -0.2303  0.1826
 7127W        W25981  13.952   3.812  12.545 -0.2098  0.0555  0.1145
 7128W        W25982  10.190   3.650   2.209  0.2197 -0.0916 -0.0243
 7129W        W25983   0.369   9.341  16.760 -0.2494  0.1721 -0.1213
 7130W        W25984   8.810  15.420  12.495 -0.2030  0.0881  0.0432
 7131W        W25985   9.914   8.171   3.279 -0.2351  0.1119 -0.2447
 7132W        W25986  14.608   9.029   1.472  0.1757 -0.0628 -0.0811
 7133W        W25987   3.015  11.654   1.864 -0.2317 -0.0583  0.1903
 7134W        W25988   1.192   9.885  17.154  0.0441  0.1798  0.0760
 7135W        W25989  10.414   9.955  14.234  0.0787  0.0267 -0.2080
 7136W        W25990   2.734   9.643  14.525  0.1012 -0.0511  0.1594
 7137W        W25991   7.511   0.613   1.685 -0.0812  0.2793  0.0327
 7138W        W25992   9.356  13.793  15.063  0.0417 -0.2294 -0.0826
 7139W        W25993   2.537   3.535   1.338 -0.1546  0.3295 -0.0195
 7140W        W25994   2.896  15.609  15.908  0.2626  0.5068 -0.1496
 7141W        W25995  15.072   8.610  16.370  0.1888  0.1741  0.1394
 7142W        W25996   1.442   6.533  16.036  0.3065 -0.3808  0.2565
 7143W        W25997   7.878  15.222  14.879 -0.0559 -0.1049 -0.2275
 7144W        W25998  11.121   0.958   3.083 -0.0428  0.0563  0.0079
 7145W        W25999  16.038  14.904  13.799  0.2304  0.0902 -0.1335
 7146W        W26000   2.606  16.606  13.077 -0.0632  0.1269  0.0029
 7147W        W26001   0.720  11.786  15.256 -0.2782 -0.1104 -0.2185
 7148W        W26002  12.153   1.145  15.228  0.2254 -0.0146 -0.2219
 7149W        W26003   7.882   2.658   1.367  0.0869  0.2234 -0.0593
 7150W        W26004  12.402  15.299   1.310  0.0595  0.1238  0.1818
 7151W        W26005   5.288  10.211   0.529 -0.2822  0.0175 -0.2270
 7152W        W26006   0.471  13.234   0.210  0.0224 -0.2736 -0.0428
 7153W        W26007  11.290  16.516  17.129 -0.4129 -0.2948  0.1285
 7154W        W26008   7.235  12.987  13.674  0.4256 -0.2178  0.0256
 7155W        W26009  14.068  15.336   0.091  0.0492  0.2403 -0.0701
 7156W        W26010   2.725  12.541  13.541  0.0086  0.1181  0.1530
 7157W        W26011  15.622   5.159  16.739  0.0622  0.1233  0.1169
 7158W        W26012   1.339  13.653  16.123 -0.1218  0.2484  0.1394
 7159W        W26013  15.401   7.474   1.897  0.1599  0.3242 -0.2805
 7160W        W26014  10.594  15.194   5.168  0.1024 -0.2092 -0.0398
 7161W        W26015  10.565  15.826   1.719  0.1673  0.1803  0.0977
 7162W        W26016  15.176  13.390  15.913 -0.0577 -0.0017  0.2415
 7163W        W26017   1.202   7.273  17.279 -0.0363 -0.1171  0.0404
 7164W        W26018   3.354   9.247   3.714  0.0940 -0.2432 -0.4192
 7165W        W26019  11.543   8.398  15.155 -0.1887  0.0102 -0.0028
 7166W        W26020  12.407   4.599  12.710  0.0967 -0.2423  0.0213
 7167W        W26021   3.583  13.100   0.043  0.1891 -0.0416  0.1370
 7168W        W26022   6.592  16.028  15.393  0.2925 -0.2106 -0.0136
 7169W        W26023  12.257  14.270   3.328 -0.1863  0.0083  0.3656
 7170W        W26024  13.790   9.246   5.995 -0.2358  0.0481 -0.1324
 7171W        W26025   3.656  15.600  15.445  0.2001  0.0214 -0.0256
 7172W        W26026   8.444  17.167   3.750 -0.1625  0.5440  0.0006
 7173W        W26027   4.346   4.358   5.223  0.1896  0.0538  0.0376
 7174W        W26028  10.505   4.158   2.135 -0.0322 -0.2355 -0.1281
 7175W        W26029   0.883  15.703   4.575 -0.0634  0.4061 -0.0785
 7176W        W26030   6.451   0.138   3.504  0.1741 -0.2326  0.0658
 7177W        W26031  10.799  14.543  14.758 -0.0002 -0.2046  0.0346
 7178W        W26032  11.928  16.637   3.948 -0.2302  0.1939  0.0749
 7179W        W26033   3.072  15.393   0.590  0.0618  0.0347 -0.3813
 7180W        W26034   6.705   2.824   4.603 -0.0014  0.1512 -0.0039
 7181W        W26035   3.396  16.472  17.081  0.0008 -0.1141  0.0446
 7182W        W26036  11.430  15.326   4.684  0.1288 -0.1137  0.1104
 7183W        W26037   6.762  16.895  13.354 -0.4583 -0.0297 -0.1269
 7184W        W26038   7.803   4.861   1.997 -0.3555 -0.0323 -0.1225
 7185W        W26039  10.686   2.613   5.288  0.1725  0.0647  0.1102
 7186W        W26040   1.776  15.356  16.341  0.2091 -0.5379 -0.4230
 7187W        W26041   3.919   8.181  16.284 -0.3295  0.3703  0.1745
 7188W        W26042   4.642   2.236   1.760  0.2185  0.1353  0.1879
 7189W        W26043   0.336   5.116  13.272  0.0705 -0.1550 -0.0444
 7190W        W26044   1.092  12.608   4.162  0.1643  0.1745 -0.2657
 7191W        W26045   2.976   8.812   0.932  0.2576  0.0614 -0.2169
 7192W        W26046  17.017   9.318   2.837 -0.2351 -0.0660  0.2778
 7193W        W26047   1.569   4.854   3.985 -0.0503  0.1894 -0.1840
 7194W        W26048  15.265  15.223  16.289  0.2770 -0.3059  0.0799
 7195W        W26049   6.724   9.272   2.902  0.0008  0.0099  0.0503
 7196W        W26050   0.095  15.374  15.603  0.0693  0.0045 -0.0043
 7197W        W26051  10.588   3.650  13.329  0.2115 -0.2522  0.0671
 7198W        W26052  16.033  13.128  13.805 -0.1944  0.0485  0.1310
 7199W        W26053   1.125  13.197  14.329  0.1080 -0.0683  0.2451
 7200W        W26054   4.991   5.661   3.441  0.1297 -0.4694  0.0488
 7201W        W26055   3.276   0.038   3.979 -0.1188 -0.3397  0.0516
 7202W        W26056  11.141  13.564   3.077  0.0600  0.0303  0.1575
 7203W        W26057   9.685   6.393  13.679  0.1408 -0.2892 -0.4456
 7204W        W26058  15.011   7.277   3.127 -0.2298  0.0915 -0.1232
 7205W        W26059   4.839   5.477   0.260 -0.2399  0.2986 -0.1222
 7206W        W26060   8.537   9.708  16.718 -0.2064  0.0967  0.1883
 7207W        W26061  14.793   5.515  13.675 -0.1498  0.0746  0.2060
 7208W        W26062   6.608   2.989   3.416  0.1196  0.3431  0.0550
 7209W        W26063  12.307  11.548  15.447  0.1828  0.0076 -0.2276
 7210W        W26064   0.588  10.957  15.576 -0.1086  0.0538 -0.1128
 7211W        W26065   6.508   9.559  12.203 -0.0940 -0.1573 -0.1450
 7212W        W26066   7.501   0.143  15.472  0.3734  0.0530  0.1257
 7213W        W26067   4.149   8.453  12.456  0.0018 -0.0101 -0.2433
 7214W        W26068  13.442  13.640   3.942  0.0566  0.0135  0.0119
 7215W        W26069  11.491   8.534  17.319 -0.1689  0.1129 -0.0238
 7216W        W26070   7.097  10.169  12.104  0.2271 -0.3975 -0.0782
 7217W        W26071  14.086  15.240   4.056  0.2229  0.0306 -0.2415
 7218W        W26072   4.408   7.917  13.431  0.0934 -0.2698 -0.1134
 7219W        W26073  14.007   5.941  12.236 -0.1733 -0.0392 -0.2559
 7220W        W26074   7.164   6.821   4.368  0.0347  0.0627  0.1783
 7221W        W26075   4.471   3.724   1.942 -0.3194 -0.2676  0.0984
 7222W        W26076   1.545   7.326   2.945 -0.0918 -0.1863 -0.2390
 7223W        W26077  14.834   4.547  14.523 -0.1452  0.1142 -0.1706
 7224W        W26078   8.638  12.001   4.148  0.1912  0.1217 -0.1624
 7225W        W26079  15.743  17.138  13.769 -0.1673 -0.0179 -0.3507
 7226W        W26080   5.856  11.911  16.526  0.1237 -0.1434 -0.0942
 7227W        W26081   9.115   8.991  16.903 -0.2519 -0.0220  0.1635
 7228W        W26082   8.042  17.051  17.054 -0.3830 -0.3069  0.1258
 7229W        W26083   4.358  11.218  15.960 -0.1710 -0.0929 -0.1152
 7230W        W26084   3.802  10.508   2.335  0.1441  0.0345  0.1735
 7231W        W26085  10.289   1.063  13.276  0.0646  0.1354  0.1316
 7232W        W26086  11.160  11.542  14.608  0.3483 -0.0023 -0.1052
 7233W        W26087   0.381   7.373  17.449  0.1590  0.1918  0.2153
 7234W        W26088  10.202  15.897   1.298 -0.1261  0.0603  0.0591
 7235W        W26089   6.583  15.759   3.723  0.0655 -0.0523  0.1272
 7236W        W26090   2.539   5.876   0.198  0.0883  0.1630 -0.1581
 7237W        W26091   6.168   0.548   0.506 -0.1557 -0.2453 -0.1848
 7238W        W26092   9.451   4.407  15.529  0.0525  0.1830 -0.2158
 7239W        W26093   2.122   7.259   2.844  0.1144 -0.1837  0.1687
 7240W        W26094   1.972   4.991   3.133 -0.1856 -0.0786  0.1938
 7241W        W26095   7.590   0.836   3.949  0.1313 -0.3150  0.0506
 7242W        W26096   5.103   4.085  16.004  0.0551 -0.1375 -0.1952
 7243W        W26097  16.145   0.126   1.140  0.0180  0.4698  0.3700
 7244W        W26098   9.635   4.533  12.730 -0.2406 -0.0500 -0.2039
 7245W        W26099  13.824  14.280   1.508 -0.0649 -0.5945 -0.0016
 7246W        W26100   2.097   6.590  15.527  0.1952 -0.1513  0.0465
 7247W        W26101   4.005  15.345  14.050  0.2704 -0.0383  0.4277
 7248W        W26102   1.316  13.678   1.305  0.0305  0.2150  0.1743
 7249W        W26103  13.599  16.627   1.031  0.2911  0.2948  0.3662
 7250W        W26104   4.995  14.321   0.959  0.1755  0.0518 -0.0076
 7251W        W26105  11.638   7.301  14.655  0.2183 -0.0060  0.2057
 7252W        W26106  16.715   8.875  12.912 -0.0565  0.3309 -0.2186
 7253W        W26107  16.937   6.071  12.099  0.1675  0.1699 -0.1495
 7254W        W26108   6.505  17.211   3.090  0.1122  0.0349 -0.0002
 7255W        W26109  12.706   3.770  14.849  0.0329  0.1426 -0.0845
 7256W        W26110   3.644  12.013   4.121 -0.1945 -0.1535 -0.1427
 7257W        W26111  11.080  14.078  14.583  0.1429 -0.1671  0.0358
 7258W        W26112   2.007  14.837   5.012  0.1497  0.1637  0.4048
 7259W        W26113   4.577   2.903  16.162  0.3443 -0.0819 -0.0880
 7260W        W26114  16.050  16.131  16.038 -0.1077 -0.0737  0.3612
 7261W        W26115   8.764   3.857  14.571  0.2177  0.0518 -0.1825
 7262W        W26116  15.396   3.705  10.991  0.0862 -0.2553  0.2649
 7263W        W26117   1.928  11.600   0.807 -0.2800  0.2443 -0.1827
 7264W        W26118   9.826   0.627  12.083  0.1092 -0.0440 -0.2033
 7265W        W26119   9.851   3.381  16.958  0.1723 -0.2321  0.0407
 7266W        W26120  16.105   4.185  15.246  0.1166  0.1833  0.0594
 7267W        W26121  14.879   7.290  17.113 -0.0185  0.2671 -0.0540
 7268W        W26122   9.060  16.372  16.903  0.2582 -0.0537  0.2070
 7269W        W26123   3.648   3.558   3.222  0.0578 -0.0419  0.1504
 7270W        W26124   9.930   9.484   1.591  0.2307  0.2060  0.2827
 7271W        W26125   3.338  14.629  15.021 -0.0685 -0.0059  0.1932
 7272W        W26126  13.190   7.248  15.614 -0.1764  0.2943  0.1610
 7273W        W26127  11.387   9.253   3.697 -0.3038 -0.1896  0.0217
 7274W        W26128  12.347  13.223   1.346 -0.0422  0.0440 -0.1130
 7275W        W26129  14.497  15.273  13.668  0.0197 -0.2742 -0.1955
 7276W        W26130   0.289   7.550  15.930 -0.0379  0.1774 -0.0784
 7277W        W26131  10.510   1.108  15.272  0.0199  0.1312 -0.3775
 7278W        W26132   3.324   5.024   4.585  0.0211  0.3254 -0.2285
 7279W        W26133  16.438  15.237  16.139  0.1917  0.0862  0.1421
 7280W        W26134  11.949  15.617  13.640  0.0721 -0.0281  0.1440
 7281W        W26135   5.238  15.570   3.617  0.1404 -0.1685 -0.0239
 7282W        W26136   2.068   3.577   1.067  0.0152 -0.0703 -0.2978
 7283W        W26137   5.214  16.882   2.259  0.1525  0.0422 -0.1155
 7284W        W26138  14.125   4.078  14.005 -0.0524  0.0615  0.1402
 7285W        W26139   3.992   4.615  16.667  0.0207 -0.2402  0.1242
 7286W        W26140   4.859  17.031   1.441 -0.1707  0.0018 -0.0394
 7287W        W26141   8.435  16.517   2.239 -0.0082 -0.0120 -0.2575
 7288W        W26142   4.517   3.985  16.059  0.0536 -0.2369 -0.1737
 7289W        W26143  14.113  16.560   1.002  0.1255  0.1649  0.0464
 7290W        W26144   4.458   5.218  16.352  0.2235  0.1364 -0.0610
 7291W        W26145  11.712   5.882  11.597  0.0980  0.0929 -0.0406
 7292W        W26146  14.631   6.406  13.689  0.0014  0.1581  0.0831
 7293W        W26147   4.983  14.353   5.055  0.0994 -0.0485  0.1410
 7294W        W26148   6.452  11.046   0.058 -0.0591  0.0273  0.2142
 7295W        W26149   2.939   1.698  16.778 -0.3326 -0.0950 -0.2374
 7296W        W26150   0.320   7.411   0.598 -0.1164  0.0358 -0.2150
 7297W        W26151   4.546   2.464   0.734  0.0673  0.1263 -0.2681
 7298W        W26152  13.301  15.151  13.984 -0.0810  0.0167  0.0206
 7299W        W26153   1.216  10.635   4.811 -0.0588  0.0154  0.0080
 7300W        W26154  10.906   4.997   3.457 -0.1632  0.2915 -0.1539
 7301W        W26155  11.286  15.983   3.700  0.0256  0.0319  0.0287
 7302W        W26156   7.936   3.416  12.887 -0.1043  0.2637  0.0263
 7303W        W26157   5.765  12.807   4.621 -0.2112 -0.0630  0.0942
 7304W        W26158   4.661   8.473  14.482  0.1831  0.1083  0.0347
 7305W        W26159  12.845   0.984  12.717 -0.0685  0.1399 -0.1282
 7306W        W26160   2.667  17.332  12.843 -0.2262  0.1197 -0.3126
 7307W        W26161   0.383   3.551  11.408  0.1863  0.0398  0.0759
 7308W        W26162   7.695  13.424   0.450 -0.1612  0.2208 -0.0540
 7309W        W26163   0.815  15.964   3.676  0.0053  0.1327  0.1640
 7310W        W26164   6.832   2.258  13.002 -0.2515 -0.0013 -0.1517
 7311W        W26165   5.362   4.770   1.987 -0.0235  0.1669 -0.0593
 7312W        W26166   2.205  11.320   2.107  0.1275 -0.1344 -0.0904
 7313W        W26167   4.604  14.139  15.066  0.3620 -0.1286 -0.0796
 7314W        W26168  15.575   9.331  15.490 -0.0584 -0.2382  0.2063
 7315W        W26169   1.948   7.752  16.376  0.1173 -0.1202  0.0971
 7316W        W26170   1.020   7.237  16.747 -0.2049 -0.1548 -0.2091
 7317W        W26171   8.405   1.242  16.339  0.4202  0.0254  0.0571
 7318W        W26172  14.007   7.470   4.499 -0.0653 -0.1922 -0.3897
 7319W        W26173   7.478  13.365   4.619 -0.0722  0.1995  0.1629
 7320W        W26174  13.157   7.907   0.184 -0.0802 -0.2524 -0.1769
 7321W        W26175  12.745   3.841  13.107 -0.3732  0.2585 -0.1528
 7322W        W26176  15.835  12.343   0.354  0.0662 -0.0241 -0.1510
 7323W        W26177   0.310   6.075   3.562 -0.3422 -0.0660  0.3479
 7324W        W26178   0.164   6.281  11.150  0.1222 -0.3224 -0.1379
 7325W        W26179  10.384   2.515   4.173  0.0699  0.0481 -0.1488
 7326W        W26180   7.205   3.765  15.615  0.0889  0.0148  0.2651
 7327W        W26181   1.251  11.833  13.015  0.1353 -0.2953  0.1528
 7328W        W26182   5.677  12.516  13.445  0.1196 -0.0141 -0.1847
 7329W        W26183   1.179   7.527   5.318 -0.1556 -0.1004  0.0244
 7330W        W26184   5.493   0.704   1.968  0.2257 -0.1472  0.0633
 7331W        W26185  12.012  14.030   1.555 -0.2652 -0.0491  0.2387
 7332W        W26186   1.820  15.720   0.142 -0.1563 -0.3581  0.1293
 7333W        W26187   0.745  10.906  17.341 -0.1996  0.0560  0.5196
 7334W        W26188  13.432   4.710  12.818 -0.0415 -0.0637 -0.3230
 7335W        W26189   0.532   6.761   0.823  0.0285 -0.2460  0.1102
 7336W        W26190   3.894   4.532   1.958 -0.2145 -0.0988  0.4150
 7337W        W26191  12.396   2.654  12.523  0.0147 -0.1661  0.0126
 7338W        W26192   0.240  15.213  15.120  0.3060 -0.2114 -0.1219
 7339W        W26193   5.036  16.611  12.785  0.2565 -0.1510  0.0820
 7340W        W26194  15.012   1.578   3.756  0.2256 -0.3198 -0.1089
 7341W        W26195  16.418  11.126  16.366 -0.0713 -0.0104 -0.0413
 7342W        W26196   9.256   9.513  14.482 -0.3556 -0.3680 -0.4118
 7343W        W26197   1.836   5.273   0.346  0.0454  0.2111  0.1975
 7344W        W26198   5.719   1.075  16.359 -0.1003  0.1312  0.0858
 7345W        W26199  17.080   5.075  14.708  0.2864  0.0126 -0.0091
 7346W        W26200   2.151   5.418   4.159  0.1238  0.1689 -0.0429
 7347W        W26201   0.854   0.667   1.271  0.0547  0.3023 -0.2440
 7348W        W26202   7.691  13.647   1.406 -0.0090 -0.1898  0.0548
 7349W        W26203   7.885   1.304   5.271  0.3109 -0.2289 -0.0711
 7350W        W26204  10.935   1.899  15.714  0.0458  0.1810  0.0804
 7351W        W26205   6.833  16.685   1.814 -0.4459 -0.3111  0.0990
 7352W        W26206  17.074   0.482   1.395  0.0157 -0.0994 -0.0594
 7353W        W26207  16.289   8.644  12.773 -0.1817  0.1580 -0.1148
 7354W        W26208  14.797   2.532  16.880  0.2585 -0.0026 -0.0542
 7355W        W26209   6.595  15.893   4.895 -0.0645  0.0994 -0.0462
 7356W        W26210   5.836   5.834  17.353  0.2157  0.0049  0.0626
 7357W        W26211  10.419  16.463  12.368 -0.0698 -0.2373  0.0114
 7358W        W26212   7.032   5.771  15.503 -0.0814 -0.1455  0.0760
 7359W        W26213   0.236  13.658  16.613  0.4511  0.2511 -0.1488
 7360W        W26214  16.808  14.991   3.041 -0.1473  0.1671 -0.0212
 7361W        W26215   3.413   6.765  12.489 -0.1997 -0.3519  0.0764
 7362W        W26216  13.641  10.364   1.450  0.0405  0.0350  0.1543
 7363W        W26217   4.257   1.538   1.377 -0.2283  0.1297  0.0931
 7364W        W26218   0.222   2.943   4.451 -0.0368  0.0982 -0.3712
 7365W        W26219   5.670   6.530   2.062 -0.3093 -0.0536 -0.0843
 7366W        W26220   9.108  11.294   4.308 -0.3234 -0.1976  0.1989
 7367W        W26221  14.276  10.653   0.415  0.0877 -0.0082  0.0435
 7368W        W26222  15.558  14.835  16.683 -0.0430 -0.2293 -0.2600
 7369W        W26223  17.022  15.988  16.289 -0.2546 -0.0194  0.0205
 7370W        W26224   9.625  11.531   1.799  0.0146  0.2557  0.0316
 7371W        W26225   9.928  15.727  14.797  0.2489 -0.1364 -0.3175
 7372W        W26226  11.062   5.932  14.500  0.1203 -0.0415  0.1052
 7373W        W26227  11.905  11.534   5.216  0.0638 -0.0824  0.0581
 7374W        W26228   5.819   6.646   2.584  0.2547  0.0750 -0.1421
 7375W        W26229  11.613  13.433  14.582  0.0969  0.3972 -0.0411
 7376W        W26230   6.920   3.626   0.470 -0.1750  0.0813  0.2667
 7377W        W26231   6.089  12.155  16.129  0.4923 -0.0517 -0.1185
 7378W        W26232   5.087   3.266   3.744 -0.4129 -0.1917 -0.0586
 7379W        W26233   9.229   4.370   2.086 -0.0625 -0.1776 -0.1975
 7380W        W26234   6.025   5.195   2.710  0.3463 -0.2676 -0.3245
 7381W        W26235   1.889  10.780  14.196 -0.0376  0.1585  0.0396
 7382W        W26236   0.594   1.565  14.084  0.0283 -0.0579 -0.3260
 7383W        W26237   3.058   2.517  12.802  0.1033  0.1486 -0.3778
 7384W        W26238   9.709  13.462   3.076  0.0802  0.0136 -0.0373
 7385W        W26239  14.582  15.570  12.773  0.0148 -0.0912 -0.0829
 7386W        W26240   2.080   5.231  13.354  0.0807  0.0989  0.1346
 7387W        W26241  15.726  14.075   0.311  0.2548 -0.0089  0.2804
 7388W        W26242  10.448   9.605   1.628 -0.0378  0.0402  0.3981
 7389W        W26243   5.930  11.543  14.014  0.0821  0.2554 -0.1274
 7390W        W26244   5.214   7.310   1.585 -0.2088  0.1940 -0.3498
 7391W        W26245  12.979   2.454   6.265 -0.4219 -0.0269 -0.0829
 7392W        W26246   1.603   5.932   3.471 -0.0208  0.1357  0.2030
 7393W        W26247  13.616   4.652  16.468 -0.1410 -0.0649  0.0722
 7394W        W26248   9.845  10.339  13.553 -0.1899  0.0067 -0.1246
 7395W        W26249   0.427   3.986   4.524 -0.0668  0.4099 -0.1861
 7396W        W26250  10.121   1.771  15.091 -0.0890  0.0587 -0.1145
 7397W        W26251  14.094   1.712   1.354 -0.3454  0.1352  0.2100
 7398W        W26252   2.092  11.677  17.318 -0.2484  0.0108 -0.1414
 7399W        W26253   5.032   7.358   0.205 -0.2705 -0.0769 -0.0429
 7400W        W26254  14.277  16.875   3.081  0.0285  0.1130  0.0173
 7401W        W26255   2.075   6.169   5.307  0.3110 -0.2986 -0.0746
 7402W        W26256  14.258  14.626   1.572 -0.1228 -0.0570 -0.0236
 7403W        W26257   9.122   5.847   1.990  0.0755 -0.3296 -0.0648
 7404W        W26258   7.492  16.695   2.099 -0.0111 -0.0998 -0.1392
 7405W        W26259   0.105  11.164   4.902 -0.1384  0.0877 -0.0655
 7406W        W26260  12.025  15.261   2.993  0.0750 -0.0353  0.1840
 7407W        W26261   4.824   9.694   1.128  0.1139 -0.1167  0.2243
 7408W        W26262  15.006  12.067   4.504 -0.2077 -0.2019  0.1998
 7409W        W26263   6.388   5.451   0.623 -0.0196  0.3190 -0.0295
 7410W        W26264  10.901   9.280  13.991 -0.0244  0.0101 -0.1745
 7411W        W26265   6.915   0.898  12.982  0.1384 -0.0457 -0.0946
 7412W        W26266  15.172  11.019   3.395 -0.0021  0.0517 -0.0988
 7413W        W26267  11.396   0.838   1.422 -0.3311 -0.2635 -0.3169
 7414W        W26268   4.459  11.412  14.104  0.1485  0.0314 -0.0918
 7415W        W26269  15.565  12.244  14.448  0.1261 -0.2067  0.1969
 7416W        W26270  16.845   1.507   3.918  0.0824 -0.1817 -0.0285
 7417W        W26271   3.423   8.866  14.327  0.2170 -0.2510  0.0259
 7418W        W26272   4.347   1.184  13.415  0.2110 -0.0904  0.1378
 7419W        W26273   6.879   5.126  17.197  0.1482 -0.0242 -0.1553
 7420W        W26274  13.549  16.286   2.861  0.1021  0.0627  0.1994
 7421W        W26275   2.105  11.113   0.880 -0.1193 -0.1801  0.0994
 7422W        W26276   2.986  10.318  13.182  0.0687  0.2235  0.2459
 7423W        W26277   4.793  10.004  13.822  0.3433 -0.0945 -0.0479
 7424W        W26278  13.443  14.640   1.605 -0.0024  0.2789  0.0744
 7425W        W26279  10.321  15.555  16.134  0.0726 -0.1010  0.0767
 7426W        W26280   4.883  16.074   4.661 -0.0654  0.1553 -0.0900
 7427W        W26281   7.830   1.565   0.394 -0.0830 -0.1609  0.1323
 7428W        W26282  12.805  12.047   3.039  0.1804 -0.0735  0.3809
 7429W        W26283   2.181  11.750  14.223  0.0269 -0.2183  0.2187
 7430W        W26284  15.812   7.114  13.060 -0.1092  0.2724 -0.0319
 7431W        W26285  17.019  11.885  12.080  0.1553 -0.2644 -0.0110
 7432W        W26286   8.826  16.249  15.687 -0.0648 -0.0637 -0.1604
 7433W        W26287   3.173  12.029   4.448 -0.2053  0.0249  0.0750
 7434W        W26288   6.615  12.580   4.228  0.1402  0.1383  0.2353
 7435W        W26289  15.219   1.324  16.442  0.1384 -0.0907 -0.1011
 7436W        W26290  10.525   0.522   3.996  0.3200  0.1326  0.0572
 7437W        W26291   3.005  16.239  16.772 -0.0669  0.1979  0.1270
 7438W        W26292  11.223  13.982   0.415  0.2089  0.0257 -0.1039
 7439W        W26293  13.417  10.784  16.375  0.4151  0.2613 -0.1877
 7440W        W26294   7.874   7.450   0.466  0.3809  0.1268  0.1058
 7441W        W26295   5.179   0.044   1.407 -0.1996 -0.1615 -0.2396
 7442W        W26296   3.031   6.215   5.117 -0.1245 -0.1844 -0.0609
 7443W        W26297   3.932   6.090  14.673 -0.3149 -0.0591  0.2270
 7444W        W26298   2.822   4.220  12.856 -0.0217  0.0339 -0.2719
 7445W        W26299  10.178  13.132  14.295 -0.2995  0.0975 -0.0075
 7446W        W26300   2.022  17.196  15.682 -0.4534  0.1038  0.0722
 7447W        W26301  16.208   7.703  15.946 -0.0047 -0.0013  0.1635
 7448W        W26302  16.020   6.277  13.669  0.2127  0.1454 -0.2059
 7449W        W26303   5.569   9.927  12.154 -0.2109 -0.1947  0.1491
 7450W        W26304   5.656  10.551   1.893  0.2668 -0.1041 -0.1318
 7451W        W26305  15.817  13.208   6.146 -0.0863 -0.1012  0.0456
 7452W        W26306   3.858   9.024   1.203  0.0590 -0.3106  0.3686
 7453W        W26307   0.248  17.206  14.606  0.0193  0.0112  0.0555
 7454W        W26308  12.328  14.983   2.697 -0.3867 -0.0239 -0.0817
 7455W        W26309  14.216   3.186  13.541 -0.1959 -0.1345  0.2535
 7456W        W26310   3.061   5.871  14.928  0.1283 -0.2223 -0.1185
 7457W        W26311   5.322  15.598   2.510 -0.2058 -0.1072  0.1417
 7458W        W26312  16.855   0.829   0.125  0.2311 -0.0145 -0.2116
 7459W        W26313   4.634   5.435  15.474 -0.0758 -0.3266 -0.1179
 7460W        W26314   5.519   1.948  13.564  0.0332 -0.0755  0.0482
 7461W        W26315  11.480   4.887  14.739  0.1177  0.0792 -0.0913
 7462W        W26316   9.784   3.894   0.517 -0.0184  0.0455  0.0812
 7463W        W26317   8.295   7.524  14.683  0.1152 -0.2337 -0.0523
 7464W        W26318   9.372   2.118   4.523 -0.1107 -0.1880  0.0746
 7465W        W26319  14.971  15.366   3.591 -0.1642  0.1581 -0.2810
 7466W        W26320   4.240   2.004   2.549  0.0336  0.2529 -0.0091
 7467W        W26321   1.143  11.036  14.573  0.1576  0.2487 -0.1674
 7468W        W26322  13.131   2.974   3.310  0.0121  0.0467  0.0214
 7469W        W26323   8.570  15.555   4.170 -0.0983 -0.1262 -0.0253
 7470W        W26324   4.928  14.959   1.774 -0.2023  0.3051  0.0158
 7471W        W26325  14.761   8.596   3.338 -0.1149  0.0214 -0.0581
 7472W        W26326   3.452  10.010  15.180  0.3647 -0.2518 -0.0740
 7473W        W26327  12.775  13.853  12.898 -0.2355 -0.3355 -0.1220
 7474W        W26328  15.416  16.625  16.632  0.0413 -0.2804  0.3366
 7475W        W26329   8.477   8.408  14.831  0.3510 -0.0450 -0.1798
 7476W        W26330  13.534   3.632  12.832 -0.0384 -0.2660  0.1405
 7477W        W26331   0.167  11.501   0.603 -0.1594  0.1595 -0.0101
 7478W        W26332   7.024   5.495   3.208  0.0598  0.1423 -0.0663
 7479W        W26333   8.318   7.797  16.362 -0.0154 -0.0812 -0.1346
 7480W        W26334   3.958   9.022   5.528  0.1311  0.1390 -0.1168
 7481W        W26335  13.482   8.574   3.940  0.1678 -0.0647  0.1085
 7482W        W26336  13.695   8.824  12.899 -0.0017  0.1237  0.0667
 7483W        W26337   2.359   7.912  15.601  0.0102 -0.2107 -0.0396
 7484W        W26338   2.940  10.445  13.737 -0.0164 -0.1246 -0.2068
 7485W        W26339   7.197   1.495   0.389  0.2230  0.1545 -0.2753
 7486W        W26340  16.608   8.984  14.783  0.0465  0.0016  0.0658
 7487W        W26341  12.701  15.375  17.217 -0.0598  0.2715  0.0685
 7488W        W26342  13.111  16.768  17.156 -0.1785 -0.0287 -0.0313
 7489W        W26343   0.043   2.549  12.489 -0.2765  0.0043 -0.0008
 7490W        W26344  12.804   2.352  12.544 -0.0514  0.1574 -0.3278
 7491W        W26345   0.265   5.792   3.102  0.1970 -0.2127  0.1383
 7492W        W26346   9.032   0.613   4.720  0.0614  0.1047 -0.2280
 7493W        W26347   4.317   9.808   0.881 -0.1009  0.2155 -0.1412
 7494W        W26348   3.438  10.355  12.625  0.1859 -0.0119 -0.3969
 7495W        W26349  12.520   1.406   3.435 -0.1352  0.0830 -0.0256
 7496W        W26350  12.733  12.020  17.282 -0.0447 -0.0631 -0.0776
 7497W        W26351   0.786   3.843  12.253  0.0844  0.1078  0.2620
 7498W        W26352   2.926   6.468   3.553  0.1906 -0.2123 -0.4340
 7499W        W26353   3.479   6.503  15.463 -0.0164 -0.2617 -0.0414
 7500W        W26354   1.237   1.243  16.082  0.5337  0.1651 -0.1520
 7501W        W26355  11.581   8.157  15.619 -0.0712 -0.0081  0.1376
 7502W        W26356   9.470  12.719   1.411 -0.1246 -0.1313 -0.0150
 7503W        W26357   5.669   1.993  16.406 -0.1159  0.0245 -0.0901
 7504W        W26358  12.043  12.054   2.743 -0.0151  0.1411  0.2346
 7505W        W26359  15.361   9.980  14.044 -0.2121 -0.0164 -0.0551
 7506W        W26360   1.315  17.262  16.307 -0.0981 -0.1087 -0.0933
 7507W        W26361   9.108  13.866   4.976  0.1009 -0.2877  0.2367
 7508W        W26362  10.597  16.698  12.773  0.1051 -0.0520  0.2533
 7509W        W26363   3.349   9.745  17.168  0.1339  0.0535 -0.0180
 7510W        W26364  15.321   0.956   2.915  0.2307  0.1836 -0.0013
 7511W        W26365  12.582   7.669  11.822 -0.1669 -0.3099  0.1498
 7512W        W26366   0.056  12.664   1.852  0.1372  0.1264  0.1246
 7513W        W26367   7.150   0.759   0.363  0.1500 -0.0172  0.0705
 7514W        W26368   8.127   9.313   5.156  0.2441  0.0438 -0.2046
 7515W        W26369   4.782   1.892  16.193  0.0917 -0.1111 -0.0671
 7516W        W26370   4.641  12.678  14.685  0.0275 -0.0745 -0.2934
 7517W        W26371   0.009  11.258   4.436  0.1645  0.0819 -0.2735
 7518W        W26372   1.287   7.352   3.365  0.4777  0.0768 -0.2687
 7519W        W26373   1.880   7.805  14.393  0.0279 -0.2585  0.1708
 7520W        W26374  14.073   8.161   4.063  0.1051 -0.5183  0.3014
 7521W        W26375  15.260   6.642  15.167 -0.4873  0.0514 -0.0637
 7522W        W26376  10.946  13.241  15.247  0.1932  0.0238 -0.1078
 7523W        W26377   4.039   4.367   2.542 -0.0703 -0.2422  0.1959
 7524W        W26378  14.991   4.039  14.454  0.0689 -0.0778  0.1828
 7525W        W26379   3.011  13.145   2.691 -0.0249  0.0835 -0.3019
 7526W        W26380  16.441   9.503  15.516  0.1523  0.1575  0.1676
 7527W        W26381   0.547  12.227  15.051  0.1460  0.1388  0.3109
 7528W        W26382   1.114   6.583  16.443  0.1543  0.2686  0.2304
 7529W        W26383   2.966  16.863  16.045  0.3003  0.0339 -0.0313
 7530W        W26384  13.270  15.042   0.758 -0.0840 -0.0301 -0.3950
 7531W        W26385   2.262  16.520   5.404 -0.0081 -0.5111  0.3622
 7532W        W26386  17.262   1.272  16.241  0.1318 -0.1455 -0.0667
 7533W        W26387  15.443  15.994  12.470  0.0147  0.0943 -0.0966
 7534W        W26388  16.766   6.041   2.927  0.4023 -0.1433  0.2420
 7535W        W26389   4.485   6.442  15.343  0.0504  0.0202 -0.0408
 7536W        W26390  12.035   4.043   4.252 -0.1737 -0.3906 -0.1641
 7537W        W26391   7.664   0.103   0.437 -0.1710 -0.1979 -0.0114
 7538W        W26392   7.182   4.091   3.698  0.0389  0.2582  0.2063
 7539W        W26393   3.035   9.550  12.638  0.0669  0.1524  0.0872
 7540W        W26394  16.070  11.159  14.940  0.0178  0.0793 -0.2086
 7541W        W26395  11.509  12.321  13.152 -0.0104  0.0775  0.0744
 7542W        W26396   7.417   3.026   3.765  0.1001 -0.1687 -0.0397
 7543W        W26397  15.790   2.977  14.462 -0.0736 -0.1193 -0.2584
 7544W        W26398  13.080   8.094  15.728  0.0283 -0.3049 -0.1765
 7545W        W26399   7.953   1.087   0.139  0.2176 -0.1787  0.2428
 7546W        W26400  10.065  15.380   4.851 -0.1556 -0.3670 -0.4426
 7547W        W26401  15.713  13.220   0.953  0.3155  0.0507 -0.2548
 7548W        W26402   6.693  16.080   0.102 -0.2853 -0.0456 -0.0722
 7549W        W26403  10.067   7.211   3.720 -0.1710 -0.1965  0.1499
 7550W        W26404   7.334  11.028  15.994 -0.1102 -0.0301 -0.1528
 7551W        W26405  12.546   4.676   0.085  0.0786 -0.0094  0.0761
 7552W        W26406   5.226   2.624   3.082  0.0578 -0.0243 -0.1951
 7553W        W26407   9.697   3.856  14.370  0.0227 -0.0074  0.0477
 7554W        W26408  11.892   6.972   0.201 -0.2747 -0.1572  0.1203
 7555W        W26409   5.489   4.726   3.468  0.2712 -0.2313  0.0573
 7556W        W26410  12.587   1.551  17.125 -0.2596 -0.1608  0.1710
 7557W        W26411  13.439  16.819  15.998 -0.0972 -0.3275  0.0156
 7558W        W26412   7.925   9.951  17.281  0.0792  0.3818  0.0609
 7559W        W26413   4.781  13.419   2.623  0.3332 -0.0324 -0.0100
 7560W        W26414   7.349   9.582  15.426  0.2101  0.1768 -0.0046
 7561W        W26415  15.621  12.777   1.624 -0.2594 -0.1960  0.3916
 7562W        W26416  12.705   7.765   0.815 -0.2798  0.4092 -0.1661
 7563W        W26417   6.404  13.622   5.024 -0.1990 -0.1100  0.1801
 7564W        W26418  12.485  14.724  13.952  0.1284 -0.0346  0.0409
 7565W        W26419   4.162  12.155  14.041  0.0619  0.1700  0.2774
 7566W        W26420  12.783   2.356   2.187 -0.1969  0.1684 -0.1658
 7567W        W26421  12.594  15.608   4.657  0.1529  0.1821  0.1420
 7568W        W26422   8.962  14.578  16.129 -0.0714 -0.3280  0.1307
 7569W        W26423   1.317  11.420   1.393 -0.1974 -0.1813 -0.0584
 7570W        W26424   8.921  15.726   1.559  0.1813  0.2009 -0.0359
 7571W        W26425   4.810   6.776   2.329 -0.0290  0.1265 -0.0660
 7572W        W26426   2.842  12.502  12.491  0.0867 -0.0983 -0.1202
 7573W        W26427   9.943   6.320   3.498 -0.1389 -0.4645 -0.0064
 7574W        W26428  13.453  16.728  13.228 -0.1180  0.1973  0.0526
 7575W        W26429  13.545   1.038   1.540 -0.1200  0.2670  0.0785
 7576W        W26430   6.740  16.655   3.217  0.0966 -0.3782  0.1735
 7577W        W26431  10.343   6.848   4.549  0.0646 -0.0452  0.1659
 7578W        W26432   7.978   1.082  15.052  0.1213  0.1371  0.4080
 7579W        W26433   2.244   6.619   5.208  0.1466  0.0394  0.0051
 7580W        W26434  15.947  10.458  16.042 -0.0733 -0.1137  0.3173
 7581W        W26435   6.683  10.495  14.175  0.0096 -0.2924 -0.0583
 7582W        W26436   3.807  15.751  16.428  0.1090 -0.0486  0.1103
 7583W        W26437   0.875  16.372   3.260 -0.0595 -0.0980  0.2406
 7584W        W26438   5.021   9.819   4.009 -0.1106 -0.0833 -0.0176
 7585W        W26439   6.663   5.965   4.533  0.1957  0.0927 -0.1611
 7586W        W26440   1.618   8.018   3.685 -0.1820  0.1075 -0.1057
 7587W        W26441   0.173  12.483  12.867  0.0742 -0.0563 -0.2344
 7588W        W26442  16.835  12.630  16.417 -0.0967  0.4074 -0.1329
 7589W        W26443   6.371   0.651  13.249 -0.0894  0.3025  0.1821
 7590W        W26444  10.500  12.920   3.987  0.0765 -0.0469 -0.1067
 7591W        W26445  13.672  11.075   0.589 -0.3279  0.0413  0.0632
 7592W        W26446  14.453   9.207   5.084 -0.2537 -0.1709 -0.1091
 7593W        W26447  10.604   5.642  15.219 -0.1063 -0.0848 -0.2158
 7594W        W26448   1.686   7.719   2.007 -0.1127 -0.0730  0.1401
 7595W        W26449   4.111  14.360   1.284  0.1202  0.0306  0.2274
 7596W        W26450   5.352   8.000  14.928 -0.3527 -0.0840  0.0467
 7597W        W26451   1.855   6.979  14.283  0.3394  0.4485 -0.0459
 7598W        W26452   5.569   4.902   2.931 -0.3255 -0.0171  0.4265
 7599W        W26453  14.648   4.405  13.691  0.1415 -0.1844 -0.3030
 7600W        W26454   8.912   6.121  17.344  0.1409  0.0709 -0.1215
 7601W        W26455  16.718   3.953  14.361  0.1140  0.4230 -0.1230
 7602W        W26456   2.128   4.912   1.515 -0.0933 -0.0603 -0.1885
 7603W        W26457   6.708   0.545   1.241  0.1125  0.4029  0.1689
 7604W        W26458  14.039   1.982  17.190  0.2113 -0.1082  0.2337
 7605W        W26459   1.677   9.337   1.589 -0.1110  0.2289 -0.1970
 7606W        W26460  15.967   1.524  14.031 -0.0383 -0.0787 -0.0786
 7607W        W26461  10.114  15.984  15.195  0.0820  0.0018 -0.1241
 7608W        W26462   7.126  15.346  15.276  0.1683  0.0569  0.0545
 7609W        W26463  13.897   7.879   2.967 -0.1561  0.2255  0.0666
 7610W        W26464   0.522   5.198  16.384 -0.3760  0.1303  0.0857
 7611W        W26465   4.965   2.075   5.153  0.0268 -0.1073  0.1556
 7612W        W26466  11.388   1.802  15.384 -0.2548 -0.0410 -0.1942
 7613W        W26467   3.207   7.498   0.980 -0.0031 -0.1359 -0.2468
 7614W        W26468  12.481   8.754  17.263 -0.2445  0.1001 -0.1242
 7615W        W26469   1.809  11.574  12.917 -0.1058 -0.3637 -0.1719
 7616W        W26470   7.955  14.804  13.973  0.0124  0.1979  0.0516
 7617W        W26471  17.311   3.840   2.162 -0.2350  0.0327 -0.1003
 7618W        W26472   1.055   6.994   2.035 -0.1508  0.1009 -0.0694
 7619W        W26473   9.349  11.094   1.956  0.0593 -0.0135  0.2570
 7620W        W26474  16.229   0.048   0.019 -0.1737  0.0381 -0.2073
 7621W        W26475   3.014   5.852   2.708  0.1105 -0.0789  0.3802
 7622W        W26476   5.727   0.205  15.756 -0.2168  0.2378  0.0590
 7623W        W26477   9.888  10.622   4.871  0.1280  0.1106  0.1164
 7624W        W26478   5.619   5.726  16.880 -0.2647  0.0513 -0.1632
 7625W        W26479  13.679   8.756   4.497 -0.4404  0.1800  0.2410
 7626W        W26480   8.711   5.436   5.477 -0.0006  0.0096  0.0898
 7627W        W26481  15.495   0.129   4.097 -0.0998 -0.1505  0.1700
 7628W        W26482   8.511  13.258  13.896 -0.0171 -0.1569 -0.1371
 7629W        W26483   9.056   5.774   5.623 -0.1095  0.4259  0.3084
 7630W        W26484  11.966   8.192   1.582 -0.3286  0.1715  0.0761
 7631W        W26485  10.499   8.254   0.891 -0.2612  0.0483  0.0503
 7632W        W26486   3.363  15.811   4.399  0.1882  0.2954  0.0492
 7633W        W26487  12.062  10.317  13.178 -0.0424  0.1449  0.0742
 7634W        W26488  10.749  15.757   0.763 -0.1214 -0.0913  0.0862
 7635W        W26489  10.561  15.737   3.215  0.2461  0.3178  0.0991
 7636W        W26490   2.716  16.305  14.831  0.0641  0.0800 -0.3271
 7637W        W26491   5.316   1.617   5.020  0.2721  0.0050  0.3147
 7638W        W26492  14.778   7.357   1.303 -0.1046 -0.1995 -0.1186
 7639W        W26493  14.324  15.858   3.043  0.2122  0.0103 -0.0341
 7640W        W26494   1.853  15.840  11.560  0.3227 -0.0209  0.1562
 7641W        W26495   0.793   0.088   0.407  0.1857 -0.0892  0.1613
 7642W        W26496   6.573  17.282   2.473 -0.0151  0.4713  0.1313
 7643W        W26497  14.823  16.712  15.002  0.0445 -0.1347  0.1179
 7644W        W26498   4.946  16.934   2.775 -0.3236 -0.2265 -0.1367
 7645W        W26499  13.628   2.758   5.172  0.1358 -0.1251  0.0754
 7646W        W26500  15.935   3.527   4.499 -0.1226  0.2519  0.0338
 7647W        W26501  14.235  11.830   0.215  0.1967  0.0865  0.4795
 7648W        W26502   6.192   6.956   3.934  0.0032 -0.1406 -0.2901
 7649W        W26503  10.526  16.004   4.554  0.0558 -0.1427  0.0683
 7650W        W26504  14.900  11.621   2.747  0.1286  0.1629  0.0225
 7651W        W26505   7.028   3.463  14.502  0.4226 -0.2797 -0.2408
 7652W        W26506   7.389  13.182  15.404  0.0835 -0.1900  0.0033
 7653W        W26507   7.635   2.341  14.878  0.0835 -0.2236  0.0091
 7654W        W26508  12.726  14.853   4.049 -0.2573  0.0472  0.1942
 7655W        W26509   8.446   7.208  13.698  0.0095  0.1379  0.4034
 7656W        W26510   7.181   3.087  14.891 -0.2185  0.2317  0.2951
 7657W        W26511  12.982   0.964   4.792  0.0240 -0.4484  0.0490
 7658W        W26512   3.455   8.379   5.351 -0.1039  0.3075  0.0137
 7659W        W26513  11.148  16.020   0.985 -0.1868 -0.0888 -0.1513
 7660W        W26514   5.695  14.643   3.988  0.2403 -0.1254 -0.0562
 7661W        W26515   6.331  16.028  16.147 -0.4666 -0.0474  0.0047
 7662W        W26516  11.209   3.402   4.386  0.2076 -0.2783 -0.3186
 7663W        W26517  13.287   6.329   0.111 -0.0703  0.0389  0.2796
 7664W        W26518   9.028  12.923   1.281  0.0513 -0.0057 -0.1936
 7665W        W26519   0.959  14.553   2.498 -0.0465 -0.1791 -0.1856
 7666W        W26520   1.206   2.083   0.323  0.1139  0.3845 -0.1331
 7667W        W26521  10.136   0.668  16.823  0.0178  0.0681 -0.3281
 7668W        W26522   8.905   8.177   5.132  0.2180 -0.2531  0.1035
 7669W        W26523  16.929  11.817  15.122 -0.0734 -0.2164  0.1597
 7670W        W26524  16.349  16.397   4.875  0.1516  0.0129  0.2052
 7671W        W26525  10.846   3.894   0.783 -0.0485 -0.0597 -0.1637
 7672W        W26526   3.969   6.533  15.248 -0.0250  0.1326  0.0604
 7673W        W26527  10.603  16.335   4.973  0.1667 -0.1154 -0.1423
 7674W        W26528   5.691  10.477  12.340 -0.0265 -0.1404  0.0911
 7675W        W26529   7.235   4.534  15.756 -0.0622  0.1806  0.0251
 7676W        W26530   8.522   6.447  16.089  0.1045 -0.3460 -0.3249
 7677W        W26531   7.717  13.110   3.439  0.0933  0.2052 -0.1294
 7678W        W26532   3.062  11.847  17.368  0.0911  0.1528  0.0425
 7679W        W26533   0.349  16.608  15.801 -0.0067 -0.0295 -0.1604
 7680W        W26534   9.800   7.754   1.487 -0.1401 -0.2277 -0.1126
 7681W        W26535   6.727   9.535  16.608  0.1535 -0.1084  0.2295
 7682W        W26536  12.163  10.345   1.671 -0.0580  0.0020  0.0368
 7683W        W26537   2.547   6.944  15.390 -0.3827 -0.2035 -0.0252
 7684W        W26538  13.263   4.136  13.621 -0.2847 -0.1755  0.3087
 7685W        W26539   7.303   0.595  17.316 -0.0448 -0.0367 -0.0661
 7686W        W26540  13.873  11.478   4.322  0.0280 -0.0197  0.2262
 7687W        W26541   0.375  15.074  14.129 -0.0208 -0.1012  0.3080
 7688W        W26542   9.780   3.964   3.653 -0.1246  0.3698 -0.0020
 7689W        W26543   3.248   9.591  15.369 -0.3955 -0.0079 -0.2299
 7690W        W26544  16.116   3.316  14.648  0.1823  0.1686  0.0469
 7691W        W26545   6.178   3.989  13.019 -0.1878  0.3204  0.1599
 7692W        W26546   2.960  12.604   2.502 -0.1950  0.0016 -0.1676
 7693W        W26547   1.225  12.751  16.445  0.3712  0.0609 -0.0839
 7694W        W26548   6.066   9.568   3.311  0.0397 -0.1637  0.1766
 7695W        W26549   5.517   8.491   1.904 -0.1276 -0.1453  0.0891
 7696W        W26550   5.228   5.297   5.457  0.1362 -0.0741 -0.2541
 7697W        W26551   0.847   5.605   1.420  0.0501 -0.2531  0.3230
 7698W        W26552   8.240   4.545  12.751  0.2141 -0.2132 -0.1103
 7699W        W26553  15.013   0.147   4.480  0.0373  0.0867 -0.1620
 7700W        W26554  11.380   5.349  14.972 -0.0067 -0.2635 -0.2445
 7701W        W26555   5.789   4.475   4.918 -0.0631 -0.0848  0.1612
 7702W        W26556   8.912  15.581  13.274 -0.2518 -0.4006  0.3035
 7703W        W26557   2.858  10.606   2.105  0.2601  0.1565  0.0552
 7704W        W26558  10.390   2.776  12.757  0.1837  0.1067 -0.0545
 7705W        W26559  15.951   3.561   1.189 -0.0837 -0.1201  0.0300
 7706W        W26560   2.492   1.187  14.925 -0.2556 -0.1369 -0.1495
 7707W        W26561  11.098   0.644  11.535 -0.2022  0.0516  0.0886
 7708W        W26562   8.897   5.161  15.543 -0.1367 -0.2082  0.1176
 7709W        W26563   2.089   7.573  15.359 -0.3249  0.0022  0.0727
 7710W        W26564   6.256   4.945  16.510 -0.0493  0.0262 -0.0672
 7711W        W26565   2.094   9.503  17.126  0.0984  0.0085  0.0163
 7712W        W26566   9.862   2.171  15.103 -0.1755 -0.0459 -0.1597
 7713W        W26567   8.240  13.707   0.831 -0.1642  0.1178  0.3471
 7714W        W26568   1.536  13.305   0.359  0.0912 -0.1190  0.0588
 7715W        W26569  13.882   7.088   4.195  0.1123  0.1296  0.1078
 7716W        W26570   7.750   5.934  15.872  0.1559  0.0463 -0.1386
 7717W        W26571  10.559  17.061   4.584  0.2797 -0.0876  0.1847
 7718W        W26572  11.811   9.408   3.991 -0.1605  0.0396 -0.1314
 7719W        W26573   5.872  15.019  16.143 -0.0836  0.0347  0.3088
 7720W        W26574   5.686  14.487   3.183 -0.1082 -0.1567 -0.0765
 7721W        W26575   3.161   7.369  13.305  0.0840  0.0841  0.1083
 7722W        W26576  13.826   4.901   4.272  0.1689  0.1467  0.1265
 7723W        W26577  14.530  10.709  15.683  0.0980 -0.0666  0.1158
 7724W        W26578   2.953  13.879  14.668  0.0125  0.0289 -0.1623
 7725W        W26579  12.067   0.141   1.452 -0.1188 -0.2314  0.1105
 7726W        W26580   6.639   5.402   0.160  0.2288  0.0760 -0.2650
 7727W        W26581   6.239  12.023   5.021 -0.0983 -0.2139 -0.1879
 7728W        W26582  14.309   6.183  14.027  0.2027  0.1980 -0.2258
 7729W        W26583   8.425   1.823   0.322 -0.1113  0.4171  0.1110
 7730W        W26584  12.858   1.425   4.763 -0.1846 -0.0756 -0.1934
 7731W        W26585   7.883   9.996  12.594  0.2430 -0.0016 -0.0217
 7732W        W26586  12.770   1.111   1.928  0.1395  0.0624  0.0643
 7733W        W26587   7.447   5.927  15.294  0.1768 -0.1995  0.1351
 7734W        W26588  12.432   5.942  14.594 -0.0488 -0.0232  0.0349
 7735W        W26589  10.178   5.969   0.607 -0.1250  0.3235  0.2910
 7736W        W26590   5.629   6.992   2.229 -0.1714  0.0190  0.2207
 7737W        W26591   6.704   8.689   4.159  0.0444  0.1569 -0.2002
 7738W        W26592  10.763   2.823  12.426 -0.0809 -0.0180  0.2599
 7739W        W26593   8.809   6.016   1.344 -0.0387 -0.2083 -0.1688
 7740W        W26594  13.502  11.113   4.770 -0.1818 -0.1816  0.0866
 7741W        W26595   8.398  11.148   4.830  0.0479 -0.1740 -0.3141
 7742W        W26596   6.906  13.957   0.786  0.2714 -0.0450 -0.1169
 7743W        W26597   2.340  13.774   4.065  0.0073  0.0390 -0.2617
 7744W        W26598  13.764  10.167   0.995  0.0391 -0.1442 -0.1200
 7745W        W26599   2.596  16.102   4.007 -0.4556  0.0226  0.0427
 7746W        W26600   7.593  16.856  14.607 -0.1568 -0.1805  0.1038
 7747W        W26601   2.142  13.727   2.189 -0.0938  0.1451 -0.4409
 7748W        W26602  11.345   0.175  12.284 -0.0828  0.0406  0.0610
 7749W        W26603   7.583  16.128  17.324 -0.2580  0.1388 -0.2519
 7750W        W26604  14.840   2.875   4.745 -0.0456  0.1083  0.1893
 7751W        W26605  14.502   5.714   3.858 -0.1719  0.3513  0.1902
 7752W        W26606   6.906  15.466  14.792 -0.3441  0.1849  0.0451
 7753W        W26607  14.963  10.734  17.289  0.1601  0.0919 -0.2213
 7754W        W26608   4.849   4.323   5.128 -0.5024 -0.1423 -0.2908
 7755W        W26609  15.853   8.449  14.616 -0.2668  0.0251  0.2442
 7756W        W26610   0.048  15.680  16.671  0.0281 -0.1508 -0.2703
 7757W        W26611   9.554  16.423  16.807 -0.1899 -0.0730 -0.1136
 7758W        W26612  11.863  12.191  16.184 -0.0882 -0.0710 -0.3008
 7759W        W26613   9.252  10.516   2.430 -0.0821  0.0612 -0.2608
 7760W        W26614   0.175   1.378   5.249 -0.0641  0.0005  0.0304
 7761W        W26615   9.840   2.754  12.546  0.1261 -0.3517 -0.1005
 7762W        W26616   2.596   1.539   1.409  0.0641  0.3652  0.0060
 7763W        W26617   4.490   4.344  14.685  0.2330 -0.1141 -0.3025
 7764W        W26618   5.292   6.315  13.011 -0.3636  0.1536 -0.2773
 7765W        W26619  13.212  12.540  15.706  0.0767  0.0057  0.1125
 7766W        W26620  11.416   3.717   3.059  0.2679 -0.1400 -0.2810
 7767W        W26621   1.713  14.916  14.432 -0.1045 -0.1212 -0.2943
 7768W        W26622   7.530   9.420   1.229  0.0992 -0.2150 -0.2349
 7769W        W26623  14.497   0.101  14.853  0.0511  0.0543  0.1062
 7770W        W26624   5.191  15.301  14.249  0.1413 -0.0208  0.2067
 7771W        W26625   3.623  15.853  12.382 -0.0710  0.0079  0.2687
 7772W        W26626  17.073   0.546  14.547 -0.2206 -0.1015  0.1501
 7773W        W26627  15.624   6.965   3.680 -0.1910 -0.0606  0.1233
 7774W        W26628  15.816   8.426   5.246  0.2529 -0.1752  0.0195
 7775W        W26629  14.499  15.856  12.318 -0.0976 -0.0096  0.1958
 7776W        W26630   6.685   9.377  13.947  0.1866  0.0409 -0.3425
 7777W        W26631   3.279   7.374   3.353 -0.0321  0.5086 -0.1041
 7778W        W26632  13.961   8.216  13.342  0.0569  0.0137  0.2621
 7779W        W26633  13.570  15.198   1.831  0.0198  0.0866 -0.3396
 7780W        W26634  11.304  15.433   2.729 -0.1544  0.2286 -0.2073
 7781W        W26635   2.029  15.907   4.081  0.1229 -0.2569  0.0098
 7782W        W26636   4.621  14.089   5.264  0.0349 -0.1373  0.1675
 7783W        W26637  16.249  10.503   2.349 -0.0595  0.0485  0.3423
 7784W        W26638  15.291   3.851   3.815 -0.0207  0.1040 -0.2175
 7785W        W26639  16.380   2.959  14.362  0.1874 -0.1114  0.0966
 7786W        W26640   7.068  14.766   5.427  0.1542  0.4940 -0.2132
 7787W        W26641  11.203   7.345   2.786 -0.1495 -0.0623  0.0199
 7788W        W26642   7.398   2.747  15.832  0.3076 -0.0063 -0.1571
 7789W        W26643  15.951   0.373   2.421  0.2572  0.0085 -0.0967
 7790W        W26644   4.534   6.678  14.472  0.0124  0.1146  0.2566
 7791W        W26645   0.688   3.349   0.054 -0.0769  0.1675  0.0348
 7792W        W26646  15.762   2.079  16.705 -0.0186  0.0095  0.0795
 7793W        W26647  13.833   0.982   4.160  0.2898  0.0952 -0.1106
 7794W        W26648  10.863  10.183   2.153  0.0690 -0.0223 -0.1875
 7795W        W26649   2.907   3.861   2.620  0.2069 -0.1911  0.1883
 7796W        W26650   9.003   3.045  13.108  0.4198  0.0122 -0.0013
 7797W        W26651   6.964  11.168   1.488 -0.3110  0.2271  0.0290
 7798W        W26652   1.550  16.887  14.805 -0.1031  0.0665  0.0434
 7799W        W26653  12.409   8.826   3.643  0.3676 -0.1084 -0.0179
 7800W        W26654  13.963  17.310   3.154  0.1703  0.0032 -0.1110
 7801W        W26655   1.460  11.644  12.545  0.1886  0.3539  0.1245
 7802W        W26656  11.714  12.235   3.993  0.0124 -0.3034  0.0494
 7803W        W26657   2.373  13.379   1.844 -0.1550 -0.1843 -0.0664
 7804W        W26658   0.588   8.019  15.135  0.0701 -0.1815  0.0351
 7805W        W26659  16.341  16.321  15.591  0.1112  0.0485  0.0479
 7806W        W26660  13.715   5.386   4.377  0.2119 -0.1696 -0.0083
 7807W        W26661   0.442   0.002  16.879  0.0678  0.0319 -0.1274
 7808W        W26662  10.755   7.854  15.182 -0.2854 -0.0998  0.4090
 7809W        W26663   9.655   7.027  17.376  0.2872  0.0674 -0.1670
 7810W        W26664   7.381  14.942  14.053  0.2511 -0.1955 -0.0631
 7811W        W26665  11.270   0.122  16.666  0.1675 -0.2162 -0.2926
 7812W        W26666  12.979  14.047   0.342 -0.1603  0.2543 -0.0164
 7813W        W26667   5.850   9.762   2.262  0.0421 -0.1538  0.0636
 7814W        W26668   2.757   8.674  14.866 -0.2185  0.0970 -0.2320
 7815W        W26669   0.255  15.871  17.148 -0.3403  0.2915  0.3526
 7816W        W26670   6.580   5.700   2.070 -0.0700 -0.1006  0.1317
 7817W        W26671   3.275  11.936   5.003 -0.0312 -0.0709 -0.1550
 7818W        W26672   3.754   2.314   1.185 -0.1163 -0.1490 -0.0950
 7819W        W26673   3.441   6.730  16.837  0.1025 -0.1663  0.2318
 7820W        W26674  13.746   1.777  14.377  0.1408  0.0130  0.1216
 7821W        W26675   9.697   8.821  13.333  0.0234  0.0419 -0.1672
 7822W        W26676   4.521  16.272   4.942 -0.0282 -0.2660  0.1159
 7823W        W26677  16.289  15.832   5.522 -0.0728 -0.1580  0.1387
 7824W        W26678   4.999   2.562   1.499 -0.2535 -0.1172  0.1490
 7825W        W26679   9.467   6.829  13.432 -0.0426  0.0156  0.0964
 7826W        W26680  15.495   8.918  16.834  0.2745 -0.2983  0.2332
 7827W        W26681   0.202   4.535  16.142  0.0710  0.1063  0.1858
 7828W        W26682  12.811  16.830  14.079 -0.0764  0.0054  0.0334
 7829W        W26683  15.552   4.421  12.221  0.2202  0.0457  0.0601
 7830W        W26684  13.637   4.995   2.065  0.1305  0.0922  0.0905
 7831W        W26685  13.730   1.820   2.826  0.1649  0.1253 -0.1846
 7832W        W26686   4.725  15.677  16.424 -0.1755  0.1233 -0.1179
 7833W        W26687  11.335  10.207  16.653  0.2871 -0.1679  0.0843
 7834W        W26688  10.301   9.582   1.161  0.0906 -0.2971  0.0055
 7835W        W26689  13.620   2.742  14.536  0.0553  0.1057 -0.0579
 7836W        W26690   9.492   7.278   4.002  0.0238 -0.1026 -0.0144
 7837W        W26691   9.691   8.662  12.577 -0.2242  0.1091  0.1647
 7838W        W26692  16.472   7.802  14.638  0.1390 -0.0458  0.0501
 7839W        W26693  16.412  14.195   0.599 -0.1058  0.3286  0.0571
 7840W        W26694   1.986   9.798   0.686 -0.3201  0.1613  0.4467
 7841W        W26695   4.296   1.420   5.499  0.2977  0.2536  0.0803
 7842W        W26696   2.444   2.355  17.237 -0.1354 -0.3791 -0.1305
 7843W        W26697   6.737   6.829   2.787  0.0038 -0.1285 -0.0896
 7844W        W26698   9.091   4.549   5.752  0.1783 -0.1962  0.3192
 7845W        W26699   9.035  12.591  14.117 -0.0122 -0.0577 -0.1723
 7846W        W26700  13.982  12.946  16.183  0.3191  0.0096  0.0259
 7847W        W26701   7.024   4.592  12.950 -0.1379  0.0625 -0.0615
 7848W        W26702   7.777  10.192   1.422 -0.0503  0.0079  0.0214
 7849W        W26703  12.220   2.288  17.370  0.1872  0.1498  0.0664
 7850W        W26704   6.440  13.038   4.199  0.6416  0.1177  0.1079
 7851W        W26705   4.404   9.334  12.514 -0.1373 -0.1972 -0.0783
 7852W        W26706   3.698   7.444   2.333 -0.1907 -0.1842 -0.3853
 7853W        W26707  16.136  12.900   3.164 -0.0358  0.2714 -0.0364
 7854W        W26708   1.017  16.039  16.695  0.0319  0.1250 -0.1966
 7855W        W26709  11.496   8.695   1.813  0.3488 -0.1784 -0.0113
 7856W        W26710  10.310   0.912   0.187 -0.0399  0.0040  0.0512
 7857W        W26711   7.183  13.259  11.933 -0.4169 -0.0683 -0.1040
 7858W        W26712   8.309   0.423   5.962  0.1967 -0.0239  0.1756
 7859W        W26713  12.498   8.400   3.373 -0.3632  0.1196  0.1252
 7860W        W26714  13.041   5.281   3.699 -0.0338 -0.2397 -0.0397
 7861W        W26715   0.121  12.868   3.886  0.0708  0.0908  0.2730
 7862W        W26716   3.472   3.012   4.042  0.0629 -0.2128 -0.0758
 7863W        W26717   7.355  11.834  15.160 -0.1302  0.0464  0.0259
 7864W        W26718   0.327   9.536   1.277  0.2416 -0.4589 -0.1311
 7865W        W26719   1.160   6.594   4.284 -0.0683  0.0872  0.0275
 7866W        W26720  15.362  12.933  16.301  0.0152 -0.3344  0.1211
 7867W        W26721   8.343  16.118  13.657  0.0348  0.0361 -0.0846
 7868W        W26722   6.446  17.052   4.083 -0.0612 -0.0634 -0.0346
 7869W        W26723   3.684   2.983   3.227  0.0457 -0.4227 -0.2022
 7870W        W26724  11.383   6.809  16.816 -0.3126 -0.1114  0.2355
 7871W        W26725   8.943   2.845   5.166 -0.2199  0.1561 -0.1699
 7872W        W26726   3.007  10.194   3.565  0.1697  0.1828 -0.1469
 7873W        W26727   4.835   9.989   1.879  0.0220 -0.0849 -0.0358
 7874W        W26728  15.377  13.371   3.069 -0.1422  0.1808  0.0557
 7875W        W26729   7.714   8.328  17.130 -0.0561 -0.0516 -0.0196
 7876W        W26730  10.542  13.319  14.950 -0.0086 -0.0356 -0.0741
 7877W        W26731   6.471  13.277   0.914  0.1858 -0.2999 -0.0820
 7878W        W26732   5.955   1.658  11.539  0.2598  0.1314  0.1395
 7879W        W26733  16.808   7.864  16.584 -0.0585 -0.0755  0.2254
 7880W        W26734   5.890   5.622  14.667 -0.1103  0.0155  0.0759
 7881W        W26735  12.593  14.994   4.506  0.0462  0.0011  0.1280
 7882W        W26736   3.418   5.441   0.031  0.1811  0.1448  0.2111
 7883W        W26737  15.901   7.952  13.337  0.0802 -0.2014 -0.0057
 7884W        W26738   5.096  10.405   3.735  0.0902  0.2226 -0.2642
 7885W        W26739  14.779   5.287   3.174  0.2474  0.2769  0.0824
 7886W        W26740   0.655   6.113   4.802  0.0924 -0.0443  0.1789
 7887W        W26741  12.365  15.747  13.329  0.1951 -0.0626 -0.1549
 7888W        W26742  15.014  12.401  16.583  0.3290  0.0565 -0.0034
 7889W        W26743  14.808  15.459   4.067 -0.1003  0.1077  0.2125
 7890W        W26744  12.187  15.286  16.240 -0.0140  0.2168 -0.0233
 7891W        W26745   5.853  12.920   4.162  0.0335 -0.2312 -0.1757
 7892W        W26746   3.876  12.198  13.611 -0.3396 -0.2519 -0.1448
 7893W        W26747  10.418   7.782   0.567 -0.1258  0.1680 -0.1516
 7894W        W26748   4.794   5.098  13.155 -0.0665  0.2598  0.0130
 7895W        W26749  16.425   7.282  15.669 -0.0335  0.4525 -0.2351
 7896W        W26750   1.673   1.477  16.020 -0.0310  0.3894  0.0976
 7897W        W26751  15.518  15.882   0.126  0.0052 -0.0683 -0.0939
 7898W        W26752  10.274   8.639  14.865  0.0089  0.0101  0.2676
 7899W        W26753   5.664   7.256   4.887 -0.1834  0.2165 -0.0981
 7900W        W26754  11.360   8.914  16.925 -0.2619  0.0897  0.2815
 7901W        W26755   9.785  14.747  16.977 -0.2557  0.1418  0.3008
 7902W        W26756  14.631  11.396  15.089  0.1935 -0.0003 -0.1252
 7903W        W26757   2.745  14.520   0.783 -0.0576 -0.1585  0.3695
 7904W        W26758   1.494   8.798   2.430 -0.0377 -0.0720 -0.0401
 7905W        W26759   6.884   5.433   0.588  0.3579  0.4309 -0.0143
 7906W        W26760   7.211   2.466   1.289  0.0629  0.1036 -0.0924
 7907W        W26761   6.141   3.225  13.636 -0.0710 -0.1062 -0.4609
 7908W        W26762   3.817   0.054  14.361  0.0613  0.1489  0.2337
 7909W        W26763  10.120   0.505   0.941 -0.0402 -0.0291  0.3391
 7910W        W26764   2.759  13.990   2.222  0.2108 -0.3029 -0.0246
 7911W        W26765  13.095  16.967  12.675 -0.2012 -0.2774  0.0121
 7912W        W26766  16.528  13.830   1.311  0.3815  0.1068  0.0757
 7913W        W26767  15.852   2.242   4.083  0.1699  0.0181 -0.0583
 7914W        W26768   4.980  12.280   1.113 -0.0094  0.0780 -0.0870
 7915W        W26769  14.115  16.159  13.754  0.1320 -0.1289 -0.1290
 7916W        W26770   7.021  16.653   4.391 -0.0811  0.0620 -0.1029
 7917W        W26771   5.008  10.581  15.693 -0.0741  0.1477 -0.1025
 7918W        W26772  12.789  12.983  14.481 -0.1314  0.0134 -0.0100
 7919W        W26773   4.992   5.698   4.488  0.3514 -0.1768  0.3786
 7920W        W26774  12.967  16.073  15.125  0.1777 -0.0315 -0.1853
 7921W        W26775  11.268  16.738  15.415  0.3431  0.0053 -0.1009
 7922W        W26776   9.875  11.009   3.458  0.0208  0.1835  0.2658
 7923W        W26777  10.077  15.766  13.895  0.2290  0.2192 -0.1762
 7924W        W26778   7.195  12.201  14.822 -0.1834  0.0024 -0.1970
 7925W        W26779   4.967   3.675  12.567 -0.0649 -0.0028  0.1189
 7926W        W26780   7.697   6.915   4.477  0.0116 -0.0889 -0.1382
 7927W        W26781   7.194  16.733  14.277 -0.2151 -0.0400  0.2143
 7928W        W26782  16.420  16.845  12.688  0.0388  0.0668  0.2150
 7929W        W26783  16.567   8.134   2.359 -0.2714  0.2762  0.2154
 7930W        W26784  10.903   9.281   2.392  0.1672 -0.0048 -0.0558
 7931W        W26785  15.767   7.323   4.573  0.2245  0.1023  0.2093
 7932W        W26786   4.960   5.342  16.451  0.2847 -0.1618  0.2696
 7933W        W26787   1.760  11.287   1.213 -0.0450 -0.0889 -0.3727
 7934W        W26788   5.491  11.708  14.754  0.0013  0.0321  0.2254
 7935W        W26789  12.224  11.408  16.561  0.1107 -0.2837  0.0923
 7936W        W26790  13.602   7.488  12.359 -0.2592 -0.0107  0.1658
 7937W        W26791  10.367  13.817   3.200 -0.0794 -0.1139  0.3399
 7938W        W26792   4.417   0.589   3.358  0.0160 -0.3559  0.0867
 7939W        W26793   4.254   4.652  15.048  0.0018  0.0083 -0.1726
 7940W        W26794   5.308   3.409   1.814  0.1613 -0.2263 -0.0746
 7941W        W26795   9.932  15.202   0.449  0.3270 -0.0714  0.0218
 7942W        W26796  15.191  14.542   1.438  0.1983  0.2043 -0.1494
 7943W        W26797   7.558  10.486   0.471 -0.0687 -0.0028  0.1611
 7944W        W26798   9.436  14.800  15.383  0.3486  0.2842  0.0559
 7945W        W26799   5.379  16.560  13.879  0.0018  0.0149 -0.2150
 7946W        W26800  14.009   1.853   1.914  0.3077 -0.2768  0.0434
 7947W        W26801   7.913  15.072   2.997 -0.1852  0.3679  0.2151
 7948W        W26802   2.944   0.112   3.392  0.1320 -0.0248 -0.0591
 7949W        W26803   6.999   1.521  12.643 -0.0472  0.1337 -0.1747
 7950W        W26804  17.251  10.247  12.873  0.1138  0.0073 -0.0617
 7951W        W26805  11.263   1.885   4.058 -0.1969 -0.3495  0.0743
 7952W        W26806  12.932   5.976  12.478 -0.2229 -0.2090 -0.2326
 7953W        W26807  14.200  12.429   2.246 -0.2666  0.0616 -0.0272
 7954W        W26808   5.449   6.812   4.832 -0.6136 -0.0331 -0.2096
 7955W        W26809  12.617   3.320   3.894 -0.0390  0.2079 -0.1252
 7956W        W26810  10.293   0.726   1.745 -0.1301 -0.0346 -0.1096
 7957W        W26811  14.756  12.626   2.000 -0.0152 -0.3029 -0.1611
 7958W        W26812   6.638  12.879   3.787  0.2649  0.1002  0.0161
 7959W        W26813   3.992   7.820  14.589 -0.0510  0.1017 -0.0717
 7960W        W26814   0.410  16.089  13.270  0.1034 -0.0108  0.0196
 7961W        W26815   7.750   1.261   2.233 -0.0990  0.3173  0.0604
 7962W        W26816   1.357   1.913  15.622  0.0045 -0.2669  0.2507
 7963W        W26817   3.567  11.155   3.535 -0.2358  0.0189  0.0503
 7964W        W26818   6.799   8.442   3.598  0.0476  0.0987 -0.1083
 7965W        W26819   9.220   9.488   1.997 -0.1070  0.0780 -0.0306
 7966W        W26820  12.292  14.133   4.986  0.2099  0.0848 -0.1309
 7967W        W26821  12.932   3.730   0.423  0.2568 -0.1318  0.0354
 7968W        W26822   4.222   2.774   2.232 -0.1632 -0.0894 -0.2855
 7969W        W26823   4.404  11.165   5.596  0.1439  0.0341  0.1169
 7970W        W26824  11.167   4.670   4.362  0.2804 -0.1516  0.0386
 7971W        W26825   0.811  15.098   3.965  0.0290 -0.1345  0.0481
 7972W        W26826   7.363   5.870  13.557 -0.0198  0.2589 -0.0953
 7973W        W26827  15.141  17.315   1.337 -0.0239  0.1542  0.0505
 7974W        W26828   4.954   4.888   5.259  0.0848  0.1750  0.2449
 7975W        W26829   5.242  11.100  12.883  0.1748 -0.0368 -0.1652
 7976W        W26830   2.347   7.139   1.737  0.0804  0.3174  0.3266
 7977W        W26831   5.044  16.306   0.736  0.0330  0.2348  0.1551
 7978W        W26832   1.464  15.444  13.634  0.0348 -0.0416  0.0213
 7979W        W26833   1.120   4.443   4.540 -0.0079  0.0462 -0.0174
 7980W        W26834  14.632   7.094   2.854  0.1535  0.0457  0.1733
 7981W        W26835   4.399   8.164  12.749  0.1999 -0.1200  0.2202
 7982W        W26836   7.203   2.974   5.101  0.1702 -0.2184  0.2042
 7983W        W26837   3.378   0.788  12.608 -0.0355  0.1880 -0.0227
 7984W        W26838   6.862   7.609  14.628 -0.1421  0.1678  0.0135
 7985W        W26839  11.138  15.616   5.021  0.2113  0.2230  0.0586
 7986W        W26840   2.440   2.242   1.500  0.0844  0.1652  0.0352
 7987W        W26841  13.447  17.332   4.798  0.3697  0.1934  0.1521
 7988W        W26842   4.028   9.913  17.454 -0.0519 -0.4323  0.1005
 7989W        W26843   9.909  13.431  13.847  0.1974  0.0115  0.0205
 7990W        W26844  10.109  15.140  16.989 -0.3716  0.0535 -0.0808
 7991W        W26845  16.351  11.825   2.281  0.2196 -0.1470  0.1111
 7992W        W26846  16.842   7.333  15.934 -0.2646 -0.2694 -0.1352
 7993W        W26847   0.332  15.813  12.848  0.0731  0.4529 -0.1742
 7994W        W26848  10.984   4.930   2.548 -0.2060  0.2754  0.1821
 7995W        W26849   5.827   2.693  13.002 -0.3519 -0.0274  0.0344
 7996W        W26850  16.684  13.194  15.543 -0.0053  0.1679 -0.1146
 7997W        W26851   4.977  12.598  16.670  0.2172 -0.1582  0.0872
 7998W        W26852  12.880   3.025  15.889 -0.0471  0.3844 -0.0472
 7999W        W26853   9.631   4.971   2.662 -0.2223 -0.0647 -0.1643
 8000W        W26854   0.960   0.764   3.512 -0.1786  0.2310  0.0653
 8001W        W26855   1.190  11.278  15.648  0.1962 -0.1280 -0.0160
 8002W        W26856  15.091   0.964  15.505  0.2105  0.0547  0.0039
 8003W        W26857   1.912   9.408  15.523 -0.2114 -0.0616 -0.0961
 8004W        W26858   6.808   9.072   4.881 -0.1785 -0.2353 -0.2035
 8005W        W26859  15.434   3.616   4.652  0.0152 -0.1314 -0.3562
 8006W        W26860   6.996   6.734   0.741  0.0631 -0.0470 -0.0395
 8007W        W26861  10.681  15.207   0.799 -0.1748 -0.0690  0.0414
 8008W        W26862   4.698  10.696   2.783 -0.2061  0.1697 -0.0678
 8009W        W26863  11.539  15.353   3.433  0.1473 -0.0381  0.1000
 8010W        W26864  16.312  12.847  14.776 -0.2368  0.1671 -0.0698
 8011W        W26865  11.440   9.938   1.093  0.3724 -0.4340 -0.0168
 8012W        W26866   5.062  15.005  17.356  0.1851  0.0686 -0.0303
 8013W        W26867   5.862  12.933  14.844 -0.1126  0.0870 -0.2803
 8014W        W26868   1.212   0.237  15.139 -0.1281  0.0046  0.0648
 8015W        W26869   9.827  10.192   4.529  0.1131  0.1865  0.1796
 8016W        W26870   0.379  16.803  13.703 -0.2371 -0.1711  0.0972
 8017W        W26871   5.411  13.055   4.806 -0.1864 -0.2298 -0.0305
 8018W        W26872  10.033   3.801   1.328  0.1837  0.0167 -0.3186
 8019W        W26873   9.100   2.879  17.085  0.0358  0.0723 -0.0169
 8020W        W26874  15.881   9.968  16.144  0.1085 -0.2906  0.2406
 8021W        W26875  14.217  10.909  17.422 -0.0277  0.1008 -0.0718
 8022W        W26876  11.988   2.339   1.374 -0.2372  0.1211  0.0461
 8023W        W26877  13.389   8.044   2.359 -0.2069  0.0728  0.4637
 8024W        W26878  13.667   2.510   0.601 -0.1435  0.0720  0.0069
 8025W        W26879  10.565   2.800  17.106 -0.5375  0.2714  0.0412
 8026W        W26880  13.167   1.964   2.613  0.1520 -0.0302  0.2611
 8027W        W26881   0.842   1.054   0.661  0.0388  0.0525  0.1437
 8028W        W26882  15.683   0.343  13.502  0.0823  0.2233 -0.0024
 8029W        W26883  14.467  11.800  13.616  0.1249 -0.3032  0.0471
 8030W        W26884  12.062  13.626   2.113  0.2068 -0.0095  0.2718
 8031W        W26885  14.289   7.186  17.196 -0.2631 -0.0051 -0.0609
 8032W        W26886  11.763  15.438  14.101  0.0554  0.1114 -0.3208
 8033W        W26887  15.709  16.277  12.782  0.0009  0.0526  0.2840
 8034W        W26888  13.712  15.413   5.444  0.1310  0.2860  0.0691
 8035W        W26889  13.541   0.077   4.280 -0.3851 -0.1973  0.2775
 8036W        W26890   6.115  16.199  17.337 -0.0213  0.1223 -0.1597
 8037W        W26891  14.818  14.750  17.371 -0.1639 -0.0131  0.2699
 8038W        W26892   2.499  12.603   0.169 -0.0612  0.0289  0.1031
 8039W        W26893   5.197  16.001   3.273 -0.0555  0.0499  0.1196
 8040W        W26894  13.679  16.232   0.477  0.1771  0.0140 -0.0690
 8041W        W26895   2.094  10.690   4.283  0.1311 -0.1206 -0.1077
 8042W        W26896   6.592   3.227   0.754  0.1106  0.3202  0.0090
 8043W        W26897  10.027   2.887  17.263 -0.1190  0.1153 -0.0987
 8044W        W26898   8.147   5.686  13.494  0.0192  0.2901  0.0635
 8045W        W26899  17.110   9.103  13.196 -0.0906 -0.1647 -0.1200
 8046W        W26900   0.086   0.860  13.189  0.1371  0.0553  0.0295
 8047W        W26901   2.548  11.358   2.569  0.0513 -0.0629 -0.0660
 8048W        W26902   3.451   6.810   0.816  0.0412  0.0148 -0.0187
 8049W        W26903   4.601   8.672  16.856  0.2403 -0.0012 -0.0631
 8050W        W26904  16.959   0.434  13.111  0.1989 -0.2972 -0.2256
 8051W        W26905   8.089  12.044   4.124 -0.0207 -0.0634  0.4263
 8052W        W26906  15.897   1.081  13.212 -0.0058  0.1061  0.1025
 8053W        W26907   8.924   2.495  12.463  0.0806 -0.1935 -0.5287
 8054W        W26908  17.060  10.836  14.663  0.1706 -0.0486 -0.2304
 8055W        W26909   9.862   2.354  17.008 -0.1022  0.1112 -0.1197
 8056W        W26910   6.509   5.660   3.265  0.0297  0.1523 -0.2687
 8057W        W26911   5.641  12.167   2.921  0.0305  0.1097  0.1625
 8058W        W26912   2.491   4.390   3.365  0.0550  0.2420 -0.0461
 8059W        W26913  11.178  16.537  16.602  0.1797 -0.2053 -0.0288
 8060W        W26914   9.511   1.372   1.253  0.1008  0.0957  0.0125
 8061W        W26915  13.596  17.142  12.244 -0.0738 -0.3880 -0.2134
 8062W        W26916   3.211   2.628   4.912  0.0272 -0.1587  0.4115
 8063W        W26917  16.331  16.480   0.842 -0.0410  0.3469  0.2090
 8064W        W26918   3.523  10.161   3.546 -0.1281  0.3060  0.5419
 8065W        W26919  14.294   3.425   2.484 -0.1290  0.1462 -0.3460
 8066W        W26920  11.074   0.059  12.695 -0.0312 -0.0573  0.1166
 8067W        W26921   3.021   6.195   0.234  0.2293 -0.0240 -0.1918
 8068W        W26922   9.474  12.484  15.280 -0.1009 -0.1778 -0.4620
 8069W        W26923   9.447   1.185   1.804  0.2607 -0.1352  0.0289
 8070W        W26924  14.504   0.971  14.272  0.1533 -0.1100  0.2116
 8071W        W26925   5.328   8.924   1.930  0.0979 -0.0508 -0.2221
 8072W        W26926  14.756  15.760   2.764 -0.2433  0.1978  0.1897
 8073W        W26927  14.729  14.344   1.155  0.0214 -0.1851 -0.0356
 8074W        W26928  11.492   4.250  15.032 -0.1977  0.1031 -0.0982
 8075W        W26929  16.408  12.125   3.941 -0.1921  0.0002 -0.2498
 8076W        W26930   8.691  11.584  14.198 -0.3117  0.0661 -0.2353
 8077W        W26931  16.876   2.701  14.240  0.1494 -0.0638  0.1021
 8078W        W26932   2.323   3.936  14.175 -0.1155 -0.2741 -0.1986
 8079W        W26933   7.692  16.744   3.640  0.0587 -0.1048  0.3942
 8080W        W26934   3.709   7.764   2.827 -0.5744 -0.0970 -0.0076
 8081W        W26935  15.608  11.234  16.319 -0.0595 -0.1811  0.1853
 8082W        W26936   2.617  15.708   1.750  0.0644 -0.0690  0.3380
 8083W        W26937   2.524  13.223  13.929  0.1172  0.0367 -0.0476
 8084W        W26938   0.687  14.144   0.883  0.2070  0.1458  0.0965
 8085W        W26939  12.393   1.349   2.853  0.0231 -0.2757  0.3410
 8086W        W26940  16.393   6.798   0.587  0.0192  0.1215 -0.0974
 8087W        W26941  16.379  10.044   4.749  0.0375 -0.0568 -0.3034
 8088W        W26942  12.433   9.135   1.929  0.2807 -0.4599  0.1049
 8089W        W26943  12.821  14.338  14.950  0.1033 -0.1067 -0.2362
 8090W        W26944   8.559   8.638  13.908 -0.2745  0.3540  0.0171
 8091W        W26945   6.645   6.377  17.138  0.2372 -0.1129 -0.0039
 8092W        W26946   9.431  14.531  12.658  0.1783 -0.0059  0.0376
 8093W        W26947   1.307  17.113  13.820  0.1022 -0.1347  0.0771
 8094W        W26948  11.589  10.848   2.550 -0.0068  0.1030 -0.1024
 8095W        W26949   6.378  11.051  16.575 -0.1619  0.3338  0.0801
 8096W        W26950  14.620   2.184   4.259 -0.0064  0.1195 -0.1308
 8097W        W26951   4.294  17.030   3.989 -0.2503 -0.0209 -0.2529
 8098W        W26952   3.728   9.529   0.410 -0.0844 -0.1670  0.1507
 8099W        W26953   3.061   3.300   3.186 -0.0802  0.0713 -0.0101
 8100W        W26954   1.270  11.899   2.895  0.0193 -0.1257 -0.0526
 8101W        W26955  13.867   1.208   4.759  0.0490  0.1800  0.3378
 8102W        W26956   7.278  10.019  13.654  0.3123  0.1548  0.2071
 8103W        W26957  11.708  11.253   0.793  0.3278 -0.0399  0.3746
 8104W        W26958  14.623  17.246   3.182  0.1051 -0.0290  0.0542
 8105W        W26959  16.614   0.311   1.535 -0.2801 -0.0277  0.1302
 8106W        W26960  14.926  11.880  13.708 -0.2074  0.1014  0.2532
 8107W        W26961  17.313   5.309   4.252  0.2364  0.1482 -0.2201
 8108W        W26962   6.958  11.687   1.431  0.0997 -0.0356 -0.1829
 8109W        W26963  10.260   5.272   5.364  0.0168 -0.1232 -0.0351
 8110W        W26964   2.784   6.941   0.817  0.2436  0.2863  0.1649
 8111W        W26965   7.087   1.363   1.606 -0.1947  0.1112 -0.2357
 8112W        W26966   0.215   5.302  16.814 -0.0380  0.0729  0.0804
 8113W        W26967  13.891  11.614   2.986  0.1419  0.4198  0.1282
 8114W        W26968  11.476   9.904   0.510  0.1746  0.0890 -0.1500
 8115W        W26969   9.846   1.927  14.049  0.1427 -0.0207  0.1005
 8116W        W26970   2.557  13.320  14.405  0.0876  0.1354  0.0805
 8117W        W26971  15.039  11.351   3.779  0.1447 -0.1523  0.3761
 8118W        W26972   3.874  10.062   4.524 -0.3417 -0.0304  0.4781
 8119W        W26973   1.526  11.696  15.726  0.1257  0.0746 -0.1300
 8120W        W26974  15.109  13.522   3.959  0.1212 -0.0918  0.2539
 8121W        W26975   6.477  14.174   0.928 -0.2217 -0.1806 -0.2269
 8122W        W26976   1.856  10.602  15.039 -0.0085 -0.4628 -0.1123
 8123W        W26977  11.912   8.471  13.471 -0.0818  0.0784  0.4180
 8124W        W26978   1.128  17.053   0.273 -0.1969  0.2851 -0.0253
 8125W        W26979  10.487  12.476  12.553 -0.3427 -0.3164 -0.1942
 8126W        W26980  14.169  14.958   2.673  0.0373 -0.2830 -0.0820
 8127W        W26981   8.252  17.034  14.684  0.0812 -0.1680 -0.1554
 8128W        W26982  12.504  11.019   4.521 -0.1831 -0.1346 -0.1656
 8129W        W26983  10.722  11.109  12.852  0.0337  0.0463  0.0347
 8130W        W26984   3.411  10.208   5.747  0.1357 -0.1093 -0.1678
 8131W        W26985   8.032  12.599   0.131 -0.0624 -0.2252 -0.0977
 8132W        W26986   7.095   6.826  13.544 -0.0927 -0.2317  0.1348
 8133W        W26987   5.696   5.956   3.935  0.2985 -0.0520 -0.1231
 8134W        W26988  13.883  16.167  12.459  0.0896  0.1465 -0.0400
 8135W        W26989  12.027  15.219   3.530  0.0724 -0.0527  0.2012
 8136W        W26990   1.338   1.840   4.478 -0.1973  0.0928 -0.0641
 8137W        W26991   9.251  12.160  12.914 -0.2206  0.1685 -0.0239
 8138W        W26992   7.756  10.417   2.301  0.1199 -0.0170  0.2506
 8139W        W26993   0.827   4.197   4.166 -0.2081 -0.3075 -0.0341
 8140W        W26994  12.312  12.274  16.096  0.2416  0.2808 -0.0658
 8141W        W26995  15.218   2.125  15.540  0.0850  0.2328  0.0222
 8142W        W26996   6.442   9.335  17.017 -0.1528  0.0257 -0.2485
 8143W        W26997   7.079   8.771   4.567  0.0845 -0.3357  0.1597
 8144W        W26998  14.652  11.944  14.983  0.1028  0.1839 -0.1041
 8145W        W26999  16.562  11.007  17.426  0.0641  0.1385 -0.0464
 8146W        W27000   7.724  10.842  14.960 -0.2063 -0.1102  0.0990
 8147W        W27001   9.088   1.234  12.490 -0.1211  0.2440  0.1293
 8148W        W27002  16.201  12.185  12.657 -0.0312 -0.1499 -0.0297
 8149W        W27003   3.204   3.465   0.693  0.1542 -0.0662 -0.1823
 8150W        W27004  10.257  13.463  15.763  0.0255  0.2077  0.0554
 8151W        W27005   7.591   0.057  17.370 -0.0660 -0.0329 -0.1271
 8152W        W27006   1.531   4.318   2.773  0.1851 -0.0069  0.1278
 8153W        W27007   8.432   7.703  15.816 -0.2038  0.3487  0.0071
 8154W        W27008   7.850   9.663   0.260  0.3997  0.2670 -0.3415
 8155W        W27009   3.668   2.233  11.759 -0.2078 -0.1259 -0.1868
 8156W        W27010  17.335  13.779  14.220 -0.0429  0.1762  0.1362
 8157W        W27011  16.759  15.475   1.255 -0.1295  0.0026  0.1684
 8158W        W27012   0.493   9.311   3.588 -0.1574 -0.2738 -0.1246
 8159W        W27013   1.161  12.393   0.420 -0.0389 -0.1405  0.0407
 8160W        W27014  17.292  16.723   0.746  0.0284  0.4328  0.2147
 8161W        W27015   7.870   5.643  15.257 -0.0386 -0.0127  0.3921
 8162W        W27016  14.492   6.340   3.494 -0.0795 -0.1540 -0.3165
 8163W        W27017   0.682  10.538   3.856 -0.1211 -0.0892  0.3223
 8164W        W27018  14.087   1.612  12.254  0.1184 -0.1006 -0.1769
 8165W        W27019   8.013   5.582  17.307  0.2385  0.1380 -0.1616
 8166W        W27020   5.863   0.931  14.089 -0.0596 -0.1494 -0.0401
 8167W        W27021   9.199   2.844  16.041  0.2535  0.3507 -0.1535
 8168W        W27022  13.645  13.882  12.771  0.0621  0.1993 -0.0441
 8169W        W27023   0.564   9.740   3.325  0.0456  0.1088  0.0705
 8170W        W27024   8.238   4.274   1.951 -0.1674  0.1017 -0.0685
 8171W        W27025   7.115   9.854  16.024  0.0560 -0.2025  0.0767
 8172W        W27026  14.358  15.547   2.565 -0.0065 -0.0499  0.1618
 8173W        W27027   3.483   2.132  16.131  0.1729  0.0706 -0.3026
 8174W        W27028   6.163  13.765   4.448 -0.1594  0.1423 -0.0816
 8175W        W27029  12.789   5.909   1.191  0.2469  0.1120  0.0713
 8176W        W27030   9.783  17.162  14.797  0.1191  0.3118  0.4694
 8177W        W27031  12.297   2.380  16.383  0.0177  0.0060  0.4207
 8178W        W27032  13.282   6.838   1.045  0.0228  0.1978 -0.1439
 8179W        W27033  10.153   7.066  14.076 -0.0483 -0.0309  0.1935
 8180W        W27034   2.880  14.758  12.539 -0.0594  0.3418 -0.0543
 8181W        W27035   3.049   4.409   4.119  0.1981  0.2385  0.1322
 8182W        W27036  15.304   1.800  16.730 -0.2427 -0.1269 -0.0964
 8183W        W27037   3.382  16.197  13.276 -0.1537 -0.0477 -0.6023
 8184W        W27038  11.304  13.948   4.347 -0.0430  0.2472  0.4361
 8185W        W27039   8.429  14.175  16.967  0.4190 -0.0711  0.1582
 8186W        W27040   3.679  14.020  17.081 -0.2361 -0.0653 -0.0251
 8187W        W27041   5.536  12.127  15.026  0.0878  0.3644 -0.1041
 8188W        W27042   8.888  10.096  16.085  0.0230  0.3171  0.0153
 8189W        W27043   7.809  12.164   2.499  0.0129  0.1822 -0.2794
 8190W        W27044   9.950  13.310  16.149  0.1253  0.0819  0.1615
 8191W        W27045   5.191   8.136  16.533 -0.0207 -0.2795  0.1178
 8192W        W27046   9.048   3.646  15.819 -0.0481  0.0632  0.2458
 8193W        W27047   5.988  13.387   4.073  0.0336  0.3514 -0.0312
 8194W        W27048   7.332   7.054   1.023 -0.0488 -0.2205  0.1616
 8195W        W27049   1.621   4.513   3.572  0.1810 -0.2782 -0.1717
 8196W        W27050   5.932   0.063  15.319  0.3379  0.1906 -0.0113
 8197W        W27051   5.644  13.800   2.133 -0.2811 -0.0643 -0.0594
 8198W        W27052  12.445   2.640  13.314 -0.0949 -0.0723  0.0543
 8199W        W27053   7.766   7.807   4.184  0.2514  0.0398  0.0847
 8200W        W27054  14.206  11.081   4.298  0.0324  0.1672 -0.0226
 8201W        W27055  15.409   4.641   0.568 -0.1952 -0.1267  0.1943
 8202W        W27056   9.631   1.755   2.557 -0.2937 -0.2293  0.1482
 8203W        W27057  14.015  12.862   1.320 -0.0571  0.0687  0.2070
 8204W        W27058   2.938   3.449  13.746 -0.0035 -0.1195 -0.4292
 8205W        W27059  12.836   6.386  13.826  0.3294 -0.0224 -0.1417
 8206W        W27060  12.203   1.823  13.805 -0.0261  0.1239 -0.0003
 8207W        W27061   1.478   2.212   4.098  0.1924  0.2263 -0.1554
 8208W        W27062  13.887   0.673  15.845  0.1044  0.0066 -0.0180
 8209W        W27063  12.135   7.756  16.285 -0.0204 -0.1687  0.2739
 8210W        W27064   6.620  10.689  12.759 -0.0282 -0.2178  0.1099
 8211W        W27065  12.756  14.721   2.925  0.0210  0.2492  0.4264
 8212W        W27066   8.225   4.354  15.971  0.1549  0.1535  0.1524
 8213W        W27067   2.829   5.452  17.050 -0.0320 -0.1731  0.0123
 8214W        W27068   7.767  12.706  13.862 -0.2231 -0.1085  0.2439
 8215W        W27069   1.581  13.133  12.526 -0.2692  0.1609  0.2507
 8216W        W27070   1.976   4.799  13.914  0.1148 -0.1456  0.4844
 8217W        W27071   4.727   9.699  13.450  0.1008 -0.2175  0.0893
 8218W        W27072  10.001  15.068  13.155  0.1993  0.2297 -0.1807
 8219W        W27073   2.034   0.717   2.436 -0.1408 -0.1706 -0.2585
 8220W        W27074  13.283  11.640  11.585  0.0891 -0.0779 -0.2537
 8221W        W27075   2.434   3.437  13.434 -0.0740 -0.1355 -0.0353
 8222W        W27076   3.741  11.529   4.285  0.3474 -0.0634  0.0290
 8223W        W27077   3.024  13.435  14.487 -0.0920 -0.2025  0.2979
 8224W        W27078  15.139  11.005   4.181 -0.0032  0.1152 -0.0674
 8225W        W27079   8.835   9.751   3.739  0.0717  0.2898 -0.1200
 8226W        W27080  12.941  16.962   2.823 -0.1390 -0.3050 -0.3345
 8227W        W27081   5.115  10.224   2.453 -0.0384 -0.0556  0.0739
 8228W        W27082   8.081  13.963  15.937 -0.0480 -0.1645 -0.1591
 8229W        W27083   9.954  16.377   1.472 -0.4697  0.0618 -0.0039
 8230W        W27084  13.010   6.549  12.809  0.0682 -0.0787  0.1292
 8231W        W27085   0.589   8.741   0.949 -0.4606 -0.0221  0.1374
 8232W        W27086   8.059  11.130  13.419  0.1606  0.1959  0.2821
 8233W        W27087   5.633  17.005   1.999 -0.2083  0.1868  0.1898
 8234W        W27088   8.170  13.365   3.361 -0.1367  0.0383 -0.3685
 8235W        W27089  17.008   8.880   5.472 -0.0943  0.1545 -0.1469
 8236W        W27090  16.926  13.878  12.344 -0.1954 -0.3115  0.1348
 8237W        W27091  10.339   4.428  16.139 -0.0802 -0.2063  0.0054
 8238W        W27092   1.690   0.147   1.426  0.0299 -0.0163 -0.0249
 8239W        W27093  11.992  14.166  12.344  0.0292  0.0804  0.0554
 8240W        W27094   1.846   0.415  14.506  0.1597  0.0556  0.0291
 8241W        W27095  10.407   8.087   5.189 -0.1041 -0.2175 -0.1719
 8242W        W27096   4.063   4.757   2.870  0.0241 -0.0403 -0.2646
 8243W        W27097   5.628   9.015  15.553  0.0890  0.0271  0.3492
 8244W        W27098   7.080   3.637   1.366 -0.0607 -0.1129 -0.0305
 8245W        W27099  13.442   7.264   1.275 -0.0250 -0.0635 -0.4665
 8246W        W27100  13.710  12.491   0.568  0.2489  0.2282 -0.2676
 8247W        W27101  13.675   1.356   2.293 -0.3049  0.4521  0.2203
 8248W        W27102  13.651   5.414   3.858  0.0653 -0.0726 -0.1493
 8249W        W27103   2.230   1.741  14.331  0.2236 -0.1455 -0.4579
 8250W        W27104   3.511   1.160   4.312 -0.2511 -0.0215 -0.1423
 8251W        W27105   9.444  10.981   0.774  0.2344  0.0056 -0.0080
 8252W        W27106  17.336   0.477   3.626 -0.0100  0.0513 -0.1359
 8253W        W27107   0.369  10.983  13.605  0.0654 -0.0490 -0.1036
 8254W        W27108  15.726   5.178   2.799 -0.0596  0.1977 -0.1626
 8255W        W27109  11.815   9.011  13.345 -0.1507  0.1304  0.1875
 8256W        W27110   8.531  15.145  15.659  0.1816 -0.5108  0.0729
 8257W        W27111  12.543   7.664  13.235  0.3282  0.0890 -0.1258
 8258W        W27112  12.328   4.463  14.148 -0.1575 -0.1680  0.2419
 8259W        W27113   5.918   0.761   4.709 -0.1753 -0.1584  0.0508
 8260W        W27114  15.210  10.391   2.641  0.0285 -0.2552  0.0678
 8261W        W27115   8.716   4.104   0.074  0.1539 -0.0088 -0.1754
 8262W        W27116   3.669   7.475   5.314 -0.0053  0.1254 -0.1428
 8263W        W27117  12.153  16.335  14.334 -0.3951  0.1140 -0.1808
 8264W        W27118   4.259   8.819  15.546  0.0319  0.0520  0.1196
 8265W        W27119   9.329   8.143  15.278 -0.1113 -0.1363 -0.0254
 8266W        W27120   3.936   7.508  14.210  0.3366  0.1699  0.0147
 8267W        W27121   9.211  13.686  17.351  0.0896 -0.0493  0.0222
 8268W        W27122   1.099   9.362  14.852  0.0853 -0.0230  0.1061
 8269W        W27123  15.784  16.901  16.349  0.1348  0.3634  0.0972
 8270W        W27124   9.027   7.753   0.756 -0.0994 -0.0819 -0.0600
 8271W        W27125  15.763  14.858   2.072  0.0863 -0.1386  0.4691
 8272W        W27126   4.909   1.557  14.165 -0.4460  0.0461 -0.2869
 8273W        W27127   5.509  14.189  17.309  0.0590  0.0879 -0.0803
 8274W        W27128   6.226  12.082  13.970 -0.1232 -0.1497  0.0606
 8275W        W27129   7.815  16.182  13.496 -0.0092  0.4171  0.0819
 8276W        W27130  14.241   8.196  13.872  0.1636 -0.2377  0.2169
 8277W        W27131   0.871   2.156   2.144  0.2395  0.0811  0.1759
 8278W        W27132   5.080   0.048  13.860  0.4176  0.3015 -0.3578
 8279W        W27133   3.749   3.905  12.185 -0.1010 -0.0498  0.0924
 8280W        W27134   0.103  14.701   1.208 -0.1641 -0.0608 -0.2294
 8281W        W27135   8.939  16.454   2.202  0.0608 -0.0760  0.0458
 8282W        W27136   1.189  13.807  17.357  0.2895  0.0063  0.0316
 8283W        W27137   8.474   2.831  14.955 -0.1069  0.0017 -0.2606
 8284W        W27138   7.734   6.771  13.720 -0.1572  0.3103  0.1355
 8285W        W27139  13.592  13.004  14.796 -0.0621  0.1653  0.1765
 8286W        W27140  10.773   6.289   3.031 -0.0929  0.0096 -0.0499
 8287W        W27141   9.345  17.184   3.794 -0.2089  0.0661 -0.4164
 8288W        W27142   3.940  10.816  15.128 -0.0272  0.0225  0.0939
 8289W        W27143   2.121   8.926   3.194 -0.2739 -0.0977 -0.3109
 8290W        W27144  10.964   8.690  14.383  0.1412 -0.1260 -0.0085
 8291W        W27145  14.470  16.170  14.539  0.1710  0.2067  0.0882
 8292W        W27146  13.523   6.976  16.821  0.2250 -0.0304 -0.0716
 8293W        W27147  13.075   7.548  13.043 -0.1053 -0.2653  0.1897
 8294W        W27148  13.962   1.741  12.961 -0.0067  0.2618  0.0596
 8295W        W27149   0.680   3.494  13.535 -0.0063  0.0389  0.0804
 8296W        W27150   6.200   5.501   1.194  0.0805  0.0733 -0.1814
 8297W        W27151   5.976   0.555  13.530  0.1397  0.0714 -0.2489
 8298W        W27152   5.076  13.341   5.100 -0.0953 -0.1254  0.1194
 8299W        W27153   0.116  14.503  12.637 -0.4391  0.1373  0.1612
 8300W        W27154  13.639  11.073  15.300 -0.0274 -0.0126  0.0372
 8301W        W27155  16.299   7.340   0.697  0.0610 -0.2993  0.2369
 8302W        W27156   9.253   0.658  14.724 -0.1347  0.1131 -0.1704
 8303W        W27157  14.867  14.078  15.595  0.0691  0.0489  0.0496
 8304W        W27158  11.581   9.400  14.082 -0.0804  0.1864  0.0043
 8305W        W27159   9.565   7.729   1.062  0.3177 -0.0664 -0.0047
 8306W        W27160   5.180   3.666  13.017  0.1591 -0.1043  0.0643
 8307W        W27161   7.920  10.676   4.045 -0.0480  0.2838 -0.0580
 8308W        W27162  14.506   9.377  12.619 -0.1238  0.1330 -0.0987
 8309W        W27163   0.895  11.590   3.315  0.1177  0.0999  0.2257
 8310W        W27164   5.590   7.122  13.687  0.0233  0.1586  0.1142
 8311W        W27165   1.764   5.598   2.324 -0.0737  0.1688  0.3017
 8312W        W27166   4.977   5.850  14.767 -0.0640 -0.3361  0.3279
 8313W        W27167   4.509   7.374   0.301  0.0872 -0.1070 -0.1748
 8314W        W27168  14.579  12.082  16.705 -0.2435  0.0015 -0.1942
 8315W        W27169   3.904   2.236  15.001 -0.1608 -0.1656 -0.1060
 8316W        W27170   3.524   0.459   5.502  0.2065 -0.3326 -0.0943
 8317W        W27171  16.230   4.680  14.334 -0.2679 -0.3219  0.1300
 8318W        W27172  12.475  13.801  13.892  0.0281 -0.0848  0.0331
 8319W        W27173  17.043  14.542   1.444  0.0120 -0.0722  0.2962
 8320W        W27174  15.531   4.939  15.811  0.0589  0.3257  0.0660
 8321W        W27175   7.492   5.520  17.208  0.1765 -0.0934 -0.1718
 8322W        W27176   2.646   6.274  12.968 -0.1549  0.3664  0.1703
 8323W        W27177  11.519   7.448  15.140 -0.0578  0.0745  0.1893
 8324W        W27178   3.346  10.884   1.896  0.0527  0.2305  0.1550
 8325W        W27179  12.856  16.184   6.386 -0.2634 -0.1362 -0.0796
 8326W        W27180   0.295  13.852  14.641 -0.0774  0.0201 -0.3376
 8327W        W27181   6.823   8.482  16.117 -0.1933  0.1135  0.1326
 8328W        W27182  17.000  11.715   0.908 -0.1113  0.0913 -0.0643
 8329W        W27183  14.511   3.008  13.972 -0.2652 -0.1133  0.1164
 8330W        W27184  17.227  12.791  15.893 -0.0931 -0.0262 -0.1504
 8331W        W27185   4.900   4.055   4.083 -0.2626 -0.1241 -0.1315
 8332W        W27186  12.119  15.361  12.396  0.0537 -0.0085  0.0981
 8333W        W27187  17.103   8.290   1.907  0.2358  0.0041  0.0507
 8334W        W27188   2.677  11.974   1.553  0.1435 -0.0365 -0.2212
 8335W        W27189  14.337  13.588   0.192  0.1732 -0.0346  0.0260
 8336W        W27190   3.166  13.639   2.383  0.0174 -0.0677 -0.0215
 8337W        W27191  12.253   3.128   4.155 -0.2765 -0.1573 -0.0126
 8338W        W27192  14.260   4.407   0.807 -0.4180 -0.0107  0.1421
 8339W        W27193   8.017   7.806   2.877  0.0016  0.1083  0.1561
 8340W        W27194   6.624  12.100  15.985 -0.0657  0.0073 -0.3096
 8341W        W27195   8.503  12.834  16.391 -0.0439  0.3673 -0.0687
 8342W        W27196   6.663   1.351  14.899  0.1683  0.2963 -0.1232
 8343W        W27197   5.063   7.710  12.422  0.0773 -0.0748  0.1706
 8344W        W27198   8.734   3.211  13.549  0.1432  0.2219  0.1551
 8345W        W27199   6.262   7.976   3.114 -0.0175 -0.1873 -0.3956
 8346W        W27200   6.944  15.131  16.840 -0.0252 -0.1347  0.0809
 8347W        W27201   6.602  13.126  12.610 -0.2939 -0.1425  0.0158
 8348W        W27202   6.692   5.215  16.336  0.2566 -0.0070 -0.0436
 8349W        W27203   4.703   5.974   1.630  0.0442  0.0808 -0.1535
 8350W        W27204   5.305   9.842   2.721  0.2054 -0.0190 -0.2075
 8351W        W27205   9.799   4.876   3.446  0.0213 -0.2105  0.2087
 8352W        W27206   3.840  15.508  15.933 -0.0055  0.0222 -0.2575
 8353W        W27207   9.599   4.359   3.203 -0.0741  0.3100 -0.1823
 8354W        W27208  16.698   2.672  11.869 -0.1195 -0.3688  0.3026
 8355W        W27209  17.172  10.223  15.184  0.3188 -0.1026  0.0931
 8356W        W27210   4.106   7.389  16.932  0.0378 -0.2453 -0.0837
 8357W        W27211  12.656   1.319   2.372 -0.1678  0.3263 -0.0491
 8358W        W27212   6.387   5.076  16.970  0.1554 -0.0387 -0.0646
 8359W        W27213  11.637   1.445  17.277  0.0864  0.0066 -0.2310
 8360W        W27214   5.930   3.606   4.906 -0.0446  0.1090  0.0346
 8361W        W27215  11.107  14.378  12.661 -0.2465  0.0105  0.1788
 8362W        W27216  15.126  11.026   1.762  0.2911  0.0761 -0.0824
 8363W        W27217   5.450  12.992   0.547  0.1485 -0.1650  0.2175
 8364W        W27218   2.915   2.493   2.135  0.0786 -0.1454  0.0576
 8365W        W27219  17.251  10.959   2.173  0.1200 -0.2167  0.3012
 8366W        W27220   8.998  16.175  17.392 -0.1939 -0.1587 -0.2025
 8367W        W27221  12.460  13.978   0.435 -0.0188 -0.1624 -0.0859
 8368W        W27222  10.539   5.804  14.666  0.0740  0.0523  0.3770
 8369W        W27223   8.266  11.283   1.878  0.0304  0.0768 -0.0846
 8370W        W27224   9.631  16.148  14.504  0.0364 -0.1577  0.3843
 8371W        W27225   4.223   3.092  16.504 -0.2535 -0.1574 -0.0454
 8372W        W27226   7.828   0.316   4.803 -0.0984 -0.1274 -0.0920
 8373W        W27227  12.678  17.009   4.636 -0.1587 -0.0897  0.1770
 8374W        W27228  12.491  15.290   3.192 -0.3640 -0.4670  0.0415
 8375W        W27229   5.111   4.330  14.782 -0.1792 -0.0107  0.2233
 8376W        W27230   5.040  10.950   1.013 -0.1106  0.0068  0.2743
 8377W        W27231   8.342   0.304   3.390  0.2322  0.0873  0.2375
 8378W        W27232   6.519  10.068  17.371 -0.1144  0.0958  0.0194
 8379W        W27233   3.787  14.502   4.585  0.0384 -0.0208  0.0893
 8380W        W27234  17.003   2.933  13.776  0.1108 -0.1995 -0.0427
 8381W        W27235  15.920  12.052   4.081 -0.0702 -0.0744 -0.2355
 8382W        W27236   6.607  10.262  12.463 -0.2071  0.0678  0.1558
 8383W        W27237  14.395   7.209  14.232 -0.2354  0.0448 -0.1495
 8384W        W27238   6.883   2.184   3.775  0.2947 -0.1111  0.4114
 8385W        W27239   1.795   7.939  15.562 -0.2368 -0.0139 -0.3301
 8386W        W27240  12.488   6.769  13.865 -0.1624 -0.1978 -0.6034
 8387W        W27241   0.416  16.359  17.071 -0.1028 -0.0152  0.0703
 8388W        W27242   1.033  10.723  16.912  0.0255  0.1953 -0.2111
 8389W        W27243   0.351   3.450   0.509 -0.0658  0.0773  0.0298
 8390W        W27244   3.157   0.674  16.802 -0.1221  0.0761  0.0799
 8391W        W27245  16.582  15.592   1.951 -0.0781 -0.1056 -0.0624
 8392W        W27246   2.913   1.604   0.482 -0.2973  0.1182 -0.5168
 8393W        W27247   0.608  11.021   3.728 -0.0028  0.0836 -0.0209
 8394W        W27248  15.457  12.033   4.224 -0.0276 -0.1245 -0.0337
 8395W        W27249   3.084   2.626   4.258  0.0123 -0.0596  0.0152
 8396W        W27250   6.573  13.592   1.748  0.1891 -0.1651 -0.1775
 8397W        W27251  15.390   0.383   1.036  0.1901  0.2695  0.0128
 8398W        W27252  14.015  14.460   4.744 -0.1310 -0.0405 -0.1029
 8399W        W27253  11.660   7.541   4.389  0.1264  0.0499 -0.0190
 8400W        W27254  13.298   8.835  13.261  0.4638  0.1015 -0.1678
 8401W        W27255  10.670  13.236   0.650 -0.1747  0.0716 -0.0889
 8402W        W27256   3.180   7.465  16.760  0.0146  0.2956  0.2290
 8403W        W27257   9.140   7.528  15.768 -0.1045  0.2196 -0.3162
 8404W        W27258   7.335  13.751   2.877 -0.1373  0.1391 -0.2356
 8405W        W27259   8.281   5.313   3.675 -0.0148  0.4646  0.0294
 8406W        W27260   0.845  10.861   0.329 -0.0939 -0.0954  0.0591
 8407W        W27261  10.676  10.319   4.271  0.0431 -0.3227 -0.2949
 8408W        W27262  16.096   6.795   4.583  0.1825  0.0436 -0.1344
 8409W        W27263  15.172  10.698   3.000 -0.1993 -0.1839  0.0744
 8410W        W27264   9.180  16.027  13.335  0.2367  0.0927 -0.1007
 8411W        W27265  15.457  10.187   2.176 -0.1414  0.0305 -0.1159
 8412W        W27266  10.675   9.014  12.300 -0.0899 -0.2814  0.2784
 8413W        W27267   4.704   1.596  16.716 -0.1556 -0.3095 -0.1003
 8414W        W27268  15.687   5.362  14.045 -0.0609  0.1967 -0.3151
 8415W        W27269  11.375  13.254   0.043  0.4974  0.0039 -0.0414
 8416W        W27270  15.414   1.940   2.638 -0.0448  0.0605 -0.3100
 8417W        W27271  14.871  15.637   5.119 -0.3206 -0.1456  0.1130
 8418W        W27272   4.425   8.347  15.311 -0.1189  0.0740 -0.0796
 8419W        W27273  16.674  14.943   0.071 -0.1827  0.3191  0.0211
 8420W        W27274   4.020   8.701   4.544  0.0689 -0.2047  0.0817
 8421W        W27275  10.175   8.359  15.526 -0.1492 -0.2004  0.0317
 8422W        W27276  11.347  12.668  14.725 -0.0311  0.2064  0.1889
 8423W        W27277   0.529   5.437   0.963  0.2218 -0.1455 -0.1121
 8424W        W27278   7.669   5.478  16.637  0.2911 -0.0970 -0.0235
 8425W        W27279   6.249   5.940  15.297 -0.2134  0.1951  0.1058
 8426W        W27280  13.189   0.462   0.077 -0.1158  0.2229  0.2074
 8427W        W27281  13.840   3.623   1.148 -0.2299 -0.0592 -0.3172
 8428W        W27282   2.959   3.711   1.630 -0.2015 -0.0031 -0.0250
 8429W        W27283  13.213  10.702   1.627  0.1092  0.1680  0.0993
 8430W        W27284  13.685  14.584   4.399  0.1136 -0.2036 -0.2560
 8431W        W27285   2.589   7.481  15.490 -0.1942 -0.0454  0.1069
 8432W        W27286   7.342   9.351   0.323  0.2497  0.0343  0.0215
 8433W        W27287   0.977   3.804   2.335 -0.0286 -0.2091  0.0930
 8434W        W27288   9.925  10.881   0.795 -0.0622  0.1797 -0.1168
 8435W        W27289  16.478   9.099   1.822  0.1122  0.1735 -0.0502
 8436W        W27290   5.462   5.658   3.560 -0.2007 -0.1068  0.0157
 8437W        W27291   7.059  13.119   4.597 -0.1695  0.0046  0.0154
 8438W        W27292  16.949   2.989  15.342 -0.1200 -0.1283  0.0362
 8439W        W27293  12.487  15.239  15.814 -0.0443  0.0841 -0.2218
 8440W        W27294  14.621  15.052   3.296 -0.0892 -0.3131  0.0090
 8441W        W27295  12.091   4.393  13.657  0.0684  0.0025 -0.0024
 8442W        W27296  17.289   8.189   0.007  0.0069  0.2873 -0.2504
 8443W        W27297  15.956  14.655   1.174 -0.0812 -0.4695 -0.1339
 8444W        W27298   1.118  15.964   2.493  0.0923  0.0075 -0.0435
 8445W        W27299  16.090   0.480  17.394  0.2110  0.0219  0.0295
 8446W        W27300   2.648   5.180  13.921 -0.1029  0.1337  0.5069
 8447W        W27301   6.623  13.868   2.254 -0.0376  0.3864  0.2264
 8448W        W27302   9.509   8.616  13.793 -0.3307 -0.0558  0.1302
 8449W        W27303   7.331  16.273  13.995  0.0214 -0.0771  0.2244
 8450W        W27304  10.330   9.682   5.381  0.1394  0.2412 -0.0996
 8451W        W27305  16.232   3.654   3.935  0.0225 -0.2840 -0.2765
 8452W        W27306  11.407   8.303  16.087  0.1974 -0.2380  0.0528
 8453W        W27307   1.998   0.578  12.873 -0.0221 -0.1493  0.1724
 8454W        W27308   5.811   5.292   5.376 -0.1498  0.2006 -0.2473
 8455W        W27309  12.648  16.596   3.394 -0.2747 -0.1350 -0.0147
 8456W        W27310  14.311   4.517  17.090 -0.0495 -0.0676  0.1066
 8457W        W27311   7.662   9.372  12.374 -0.0402  0.4859  0.1685
 8458W        W27312   8.002   4.407   5.477 -0.1274 -0.0086 -0.0867
 8459W        W27313  16.147   7.342  12.632 -0.0521 -0.0522 -0.0637
 8460W        W27314  16.495   4.236  15.560  0.0191  0.1862  0.0858
 8461W        W27315   4.255   7.455   5.337 -0.0722 -0.0424  0.0576
 8462W        W27316  10.551  17.129  17.263 -0.1118  0.2011 -0.0957
 8463W        W27317   6.786   3.759  15.367  0.0883  0.2067  0.0940
 8464W        W27318  16.614   4.614   0.894 -0.2356  0.2541 -0.0635
 8465W        W27319   2.241  14.231   2.227  0.1332  0.1561 -0.0445
 8466W        W27320  13.450   3.963   4.484  0.3617  0.4747  0.0319
 8467W        W27321   6.105   3.410  12.720 -0.2741  0.2178 -0.1311
 8468W        W27322  10.738  14.178  12.162  0.1166 -0.0820 -0.2541
 8469W        W27323  16.268  10.350   3.788 -0.0330  0.0928 -0.2186
 8470W        W27324   4.822  15.423   0.841  0.1366 -0.1100 -0.1200
 8471W        W27325   0.070   2.425   0.805 -0.0802  0.1279  0.0931
 8472W        W27326   0.078  10.373  16.248 -0.1351  0.0743 -0.0244
 8473W        W27327   7.515   4.269   4.088  0.0743  0.1012  0.1970
 8474W        W27328   7.929  16.170  13.969 -0.0052  0.0314  0.0774
 8475W        W27329   3.096  14.024   3.660  0.0147  0.1333 -0.1168
 8476W        W27330   9.177  11.989   0.642 -0.2227  0.3870  0.3031
 8477W        W27331   7.107   7.231  15.314  0.0390 -0.0270  0.1890
 8478W        W27332  10.834   7.199  14.088 -0.1534 -0.1725 -0.3318
 8479W        W27333   4.294  13.790   1.465  0.2217 -0.1222 -0.1742
 8480W        W27334   5.239   5.826   1.877  0.0963 -0.3624  0.1813
 8481W        W27335  13.453   7.713  13.284  0.0085 -0.0935  0.0136
 8482W        W27336  16.778  14.061  15.860  0.1041  0.0100 -0.1146
 8483W        W27337  17.087  15.835   4.098  0.1209  0.2763 -0.0875
 8484W        W27338   9.110   5.379   1.062 -0.0941  0.1597  0.2514
 8485W        W27339  15.582   1.890  12.127  0.2601 -0.0256 -0.0179
 8486W        W27340   9.726  10.161   1.786  0.0359 -0.1102  0.2427
 8487W        W27341   4.091  14.215  12.344 -0.1084 -0.0080  0.1000
 8488W        W27342  15.300   5.892  12.903  0.2247 -0.0611 -0.1351
 8489W        W27343   0.272  16.117  14.535 -0.1207 -0.1300  0.1598
 8490W        W27344   9.519  15.547   3.784 -0.0636 -0.0070  0.0192
 8491W        W27345   7.488   7.646  13.442 -0.0697 -0.0944  0.3047
 8492W        W27346   5.874  13.466   3.571 -0.1643  0.2274 -0.0588
 8493W        W27347  14.542  14.930  16.980  0.0262  0.0087  0.0574
 8494W        W27348   5.310  14.339   2.928  0.1903 -0.0846  0.1536
 8495W        W27349   4.483   0.988   0.114  0.0198 -0.0633 -0.3497
 8496W        W27350  16.285  14.644  16.792  0.0942 -0.1414 -0.0492
 8497W        W27351   3.889   7.417   0.903  0.4051  0.1288 -0.3471
 8498W        W27352  16.373   0.360   0.759 -0.0397  0.1437 -0.2786
 8499W        W27353   0.623   1.030   1.082  0.1693 -0.1831  0.1198
 8500W        W27354   0.446   8.463   1.411 -0.0155 -0.1063  0.0282
 8501W        W27355  15.314  11.605  16.126 -0.2961 -0.1453  0.0628
 8502W        W27356  10.438  14.360   3.159  0.1927  0.1831  0.1013
 8503W        W27357  12.162   4.380  16.379  0.0099  0.0475 -0.1375
 8504W        W27358  17.095   2.815   4.119 -0.1789 -0.1925  0.1293
 8505W        W27359   0.371  16.211  15.063 -0.2705 -0.3477 -0.1161
 8506W        W27360   5.286   1.826  16.069  0.2059 -0.0100  0.1120
 8507W        W27361   3.514   2.570  16.501 -0.0302 -0.0229  0.0585
 8508W        W27362  17.042  10.672  14.181  0.0681 -0.1067  0.1108
 8509W        W27363  10.308  15.111  15.403  0.3049 -0.3099  0.2533
 8510W        W27364  11.156   1.666  17.264 -0.4057 -0.0319 -0.2231
 8511W        W27365  12.030   1.228   3.128 -0.0034  0.0044 -0.1231
 8512W        W27366   6.573   9.476   4.504  0.2192 -0.0855  0.3171
 8513W        W27367   1.681   7.418  14.029 -0.0537  0.2605 -0.1066
 8514W        W27368  13.118   5.719  15.341  0.2401  0.0343 -0.0617
 8515W        W27369  11.055   0.233  15.449  0.2201 -0.0871  0.1200
 8516W        W27370  10.855  14.890  14.183  0.0506 -0.2340  0.0189
 8517W        W27371   2.512   5.455   3.693 -0.3919 -0.1828 -0.0161
 8518W        W27372  14.236   4.077   1.201 -0.1647 -0.1301 -0.2124
 8519W        W27373   3.037  14.561   5.514 -0.0900 -0.1487 -0.0432
 8520W        W27374   1.886   4.076   0.208  0.0571 -0.0968  0.1815
 8521W        W27375  16.113  13.401  17.218  0.0217 -0.1074  0.1285
 8522W        W27376   8.786   9.467  13.228 -0.4866 -0.1923 -0.2167
 8523W        W27377  15.145  17.030  15.227 -0.1363 -0.2005 -0.0255
 8524W        W27378  12.033   6.457   2.223  0.5249  0.2656 -0.0079
 8525W        W27379  15.441   4.033  14.216  0.0034 -0.0184  0.1093
 8526W        W27380   0.023   8.678   3.881 -0.1058 -0.0065  0.1635
 8527W        W27381  14.254   4.089   3.856 -0.2457 -0.2898  0.1002
 8528W        W27382   9.754  13.333  15.616 -0.2611  0.4119 -0.0601
 8529W        W27383   3.378  15.371   3.186 -0.1467 -0.1334  0.1614
 8530W        W27384  16.811   3.834  15.481  0.0576  0.0604 -0.0715
 8531W        W27385   4.044   2.175   0.606  0.1331 -0.0446  0.0051
 8532W        W27386  15.762   1.545  12.933  0.0596  0.0071 -0.0788
 8533W        W27387   1.345  13.333  17.162  0.2971 -0.1265 -0.0965
 8534W        W27388   1.742  12.109  13.203  0.0407  0.3377  0.0998
 8535W        W27389  15.257  15.534   2.626  0.0572  0.0908  0.1059
 8536W        W27390  10.268   8.101  17.184  0.2741 -0.0265 -0.1992
 8537W        W27391  14.360  13.912  15.427 -0.0399  0.1317 -0.1679
 8538W        W27392   9.254  10.922   0.061  0.1777  0.0007  0.1867
 8539W        W27393   8.853   2.964   4.701 -0.0513  0.1030 -0.0688
 8540W        W27394   7.224   0.563   3.714  0.0083  0.0494  0.1665
 8541W        W27395   7.351   5.985  17.431  0.0344 -0.1546 -0.0741
 8542W        W27396  13.303   0.023  15.319  0.1307  0.1776 -0.2436
 8543W        W27397  17.160  12.617  14.255 -0.0142 -0.0369 -0.1458
 8544W        W27398   4.741   8.972   2.842  0.0334  0.1664 -0.1437
 8545W        W27399   1.124   8.716   4.397  0.2586  0.0162 -0.1071
 8546W        W27400  13.728   3.241   0.292 -0.0944  0.1770  0.2626
 8547W        W27401  15.659   0.007   1.318  0.0373 -0.1165  0.1222
 8548W        W27402  15.313   2.938   4.542 -0.1270 -0.0040 -0.0607
 8549W        W27403   0.217   5.310  15.409  0.0967 -0.2704  0.2088
 8550W        W27404  16.319  14.640   0.804 -0.1526 -0.1095 -0.0362
 8551W        W27405  11.562  13.798   1.348  0.1356 -0.0336 -0.0522
 8552W        W27406   5.750   0.278   3.722 -0.0276 -0.1543 -0.0182
 8553W        W27407   6.739  12.756   2.338  0.1363  0.1302  0.0381
 8554W        W27408  14.923   4.708  14.070  0.1246 -0.0930  0.2021
 8555W        W27409  15.537  15.808   3.451 -0.1348 -0.2238 -0.1503
 8556W        W27410  13.550   3.421  16.783 -0.1212  0.0453  0.1312
 8557W        W27411   5.237   6.411   4.666 -0.2030  0.3349 -0.1042
 8558W        W27412   6.955   1.705   4.759  0.1728  0.2174  0.0278
 8559W        W27413   2.891   5.448  14.689  0.1049  0.0763  0.1367
 8560W        W27414  13.140   2.403  16.938  0.0084  0.1284 -0.0077
 8561W        W27415  15.444  12.958  14.552 -0.2007 -0.1572  0.0481
 8562W        W27416  11.414  17.072  14.580  0.0434 -0.1937  0.2171
 8563W        W27417  14.845  16.531  15.880 -0.1203 -0.1233  0.0171
 8564W        W27418  14.398   5.484  15.614 -0.0055 -0.1568 -0.0517
 8565W        W27419   1.169  12.478  17.398  0.2009  0.0928  0.1328
 8566W        W27420  16.170   1.719   1.935  0.1350  0.3328 -0.1411
 8567W        W27421  16.236   6.759   1.440 -0.0874 -0.1798 -0.3879
 8568W        W27422   8.289   3.177   3.325  0.1483  0.3323  0.0408
 8569W        W27423  15.467   4.466   1.424  0.1367  0.1251  0.1183
 8570W        W27424  14.994  15.108   4.939 -0.0402 -0.1501 -0.3612
 8571W        W27425  14.487  10.762  17.007 -0.3566 -0.1204 -0.3265
 8572W        W27426   2.557   8.564   1.037 -0.1644  0.2618  0.0453
 8573W        W27427   1.451  15.232   0.944  0.0382  0.2445 -0.1823
 8574W        W27428   4.680  15.901  15.892 -0.3125  0.1686 -0.1032
 8575W        W27429   3.909   0.844   0.418  0.2817 -0.1549 -0.0387
 8576W        W27430   5.486  15.604  12.402  0.1475 -0.2171 -0.0690
 8577W        W27431   4.901  15.718   2.711  0.0631 -0.1112  0.0637
 8578W        W27432   3.296   0.936   2.719  0.0128 -0.1092  0.0511
 8579W        W27433   6.452  16.523   0.003  0.0030  0.2169 -0.2528
 8580W        W27434   8.148  15.949   0.550 -0.3021 -0.0632 -0.1724
 8581W        W27435   0.961  10.796   2.281 -0.2776  0.1648  0.0870
 8582W        W27436   4.065  13.699  17.039  0.2590  0.1478 -0.3386
 8583W        W27437  16.658   6.223   5.124  0.1759  0.0518 -0.0987
 8584W        W27438   5.836   5.079  14.865  0.0363  0.0049  0.2456
 8585W        W27439   7.707  13.574   3.199  0.1478 -0.1242 -0.2189
 8586W        W27440  10.859   1.759   4.297  0.1558  0.1736  0.1895
 8587W        W27441   5.683   5.109  15.460 -0.2134  0.4574 -0.3269
 8588W        W27442   5.157   7.751  16.219  0.1631  0.0695 -0.1845
 8589W        W27443   7.833   7.411  13.745 -0.0036  0.2225  0.0894
 8590W        W27444   0.301  13.435  15.352  0.2966 -0.1930 -0.1090
 8591W        W27445  15.011  13.128  12.568 -0.3785  0.0704  0.1210
 8592W        W27446   1.044  12.308  15.451 -0.1548  0.2568  0.1840
 8593W        W27447   6.099   1.314  12.564  0.0326 -0.3150  0.2553
 8594W        W27448  11.487  16.920   1.854 -0.0282 -0.0674 -0.0938
 8595W        W27449  11.912   9.344   5.232 -0.1269 -0.1501  0.4285
 8596W        W27450   2.996  14.313  15.914  0.0033  0.1640 -0.0358
 8597W        W27451   3.724   4.333  12.475  0.1185  0.0018 -0.0683
 8598W        W27452   9.789   2.150   2.886  0.0880 -0.0509 -0.2270
 8599W        W27453  16.591   1.815  12.987  0.2256  0.0725  0.1519
 8600W        W27454   4.115   9.628   1.943 -0.0150 -0.1952  0.0836
 8601W        W27455  13.513   5.500   2.858 -0.2904 -0.1884  0.1909
 8602W        W27456  15.086   9.792   0.337 -0.1987 -0.1214  0.1798
 8603W        W27457   7.375   9.419  13.251 -0.4103  0.1554 -0.1572
 8604W        W27458   0.109   7.345  12.800 -0.1262 -0.3130  0.0902
 8605W        W27459   2.914   1.824  12.624  0.2080  0.1101 -0.0815
 8606W        W27460   2.003   7.782   1.574 -0.2155  0.0688 -0.0593
 8607W        W27461  13.756  14.841   2.190 -0.3242 -0.0242 -0.1772
 8608W        W27462   3.849  15.005  12.697 -0.3152 -0.0578  0.0850
 8609W        W27463  15.416  15.639  11.701  0.1580 -0.0945  0.0551
 8610W        W27464  10.540  10.550   2.082  0.0364 -0.0045 -0.2019
 8611W        W27465   1.525   5.842  16.857 -0.5473  0.0629 -0.0141
 8612W        W27466   0.995   2.382  13.111  0.0202  0.1280  0.0590
 8613W        W27467  16.273  12.102   1.366 -0.1125  0.2580  0.3511
 8614W        W27468   1.784  16.411  13.559  0.3167  0.3514  0.1186
 8615W        W27469   6.728  15.122   2.491 -0.1597  0.3372  0.1353
 8616W        W27470  16.017  13.265  14.670  0.1082  0.0941 -0.1248
 8617W        W27471   3.824   9.085   3.811  0.1463 -0.1396 -0.1992
 8618W        W27472  14.130  13.972   4.898  0.0470  0.2524 -0.4518
 8619W        W27473  14.262  15.363   3.125  0.1631  0.0401 -0.0939
 8620W        W27474  13.822   7.300   1.592  0.0444 -0.0728 -0.4092
 8621W        W27475   5.566   2.618  13.744 -0.2793 -0.4365  0.1478
 8622W        W27476   3.342  16.434  14.121  0.0241 -0.0353 -0.0016
 8623W        W27477   6.974   0.554  12.597 -0.0540  0.5979 -0.2372
 8624W        W27478   8.093   3.568   2.425 -0.0225  0.3491 -0.0231
 8625W        W27479   8.271  10.058  14.378 -0.2357 -0.0236 -0.0105
 8626W        W27480   8.108  15.708   2.738  0.0884 -0.1861  0.3068
 8627W        W27481  13.973   1.885  16.633  0.0911 -0.3490  0.2350
 8628W        W27482   1.355  12.853   4.701 -0.3213  0.3328 -0.1012
 8629W        W27483   3.550  12.095   2.679 -0.2537 -0.0955  0.0392
 8630W        W27484  14.915   6.865   2.282  0.2676 -0.0023  0.3710
 8631W        W27485   1.932  14.000  15.242  0.0240  0.2714  0.1694
 8632W        W27486   0.776   3.399  14.608 -0.3832  0.1501 -0.0864
 8633W        W27487  16.607  17.143  14.945  0.0432  0.1409  0.1378
 8634W        W27488   2.507   7.847  13.732  0.0419  0.3170  0.3404
 8635W        W27489   0.813   5.228  12.363 -0.0150  0.2514  0.2362
 8636W        W27490   8.870  14.833   0.505 -0.2910 -0.3272 -0.0035
 8637W        W27491   2.875  15.667   3.954  0.0680 -0.0339 -0.3152
 8638W        W27492  11.298   2.283  15.575  0.0809 -0.0580  0.2424
 8639W        W27493   2.994  15.692   3.422  0.1013  0.4626 -0.1625
 8640W        W27494  14.006   9.517  16.671 -0.0710  0.2660 -0.0683
 8641W        W27495  15.487  13.749  16.071 -0.0651 -0.0153 -0.0747
 8642W        W27496   9.486  10.206   2.796  0.0200  0.0852  0.1871
 8643W        W27497   1.324  11.791   3.677  0.0396 -0.1027 -0.0363
 8644W        W27498   8.972  10.285  13.968 -0.1352  0.0174 -0.1721
 8645W        W27499   0.914   7.008  16.145  0.1895 -0.0330  0.2811
 8646W        W27500   6.336   8.971  13.567 -0.3583 -0.2437  0.0087
 8647W        W27501   7.615  14.559  13.666  0.0851 -0.3354  0.1133
 8648W        W27502   7.154   5.837   0.447 -0.5033  0.1308 -0.1864
 8649W        W27503   9.486   8.999  15.252 -0.1642  0.0418  0.2916
 8650W        W27504   3.110  10.209   3.043 -0.0505  0.1285 -0.2379
 8651W        W27505   9.845  11.594  16.901  0.2942  0.0094  0.3194
 8652W        W27506   3.091   5.742   0.464  0.2282  0.0345 -0.1149
 8653W        W27507   0.886  15.793  17.150  0.1448  0.0675  0.1445
 8654W        W27508  10.508   8.486   3.771  0.1026 -0.0798 -0.1097
 8655W        W27509   5.965  16.324   0.922 -0.3669  0.2611  0.1775
 8656W        W27510  13.351  13.825  13.638  0.0593 -0.0459  0.0268
 8657W        W27511  12.762   6.245   4.981 -0.0713 -0.4261  0.0224
 8658W        W27512   6.622   1.780   2.767 -0.0625 -0.0152 -0.1132
 8659W        W27513   1.744   1.690  17.262  0.1072  0.2544  0.3586
 8660W        W27514   5.094   8.540  16.834  0.1732  0.0537 -0.1505
 8661W        W27515  10.204   2.147  15.528  0.2269 -0.0954  0.1192
 8662W        W27516  14.656  14.823  15.682  0.0658  0.1688 -0.0311
 8663W        W27517   0.602  13.077  15.558 -0.0095  0.1779  0.0246
 8664W        W27518   7.730   3.918   1.153  0.1122 -0.0959  0.0054
 8665W        W27519  12.204   0.084  13.025 -0.1425  0.2099  0.0442
 8666W        W27520  14.854   3.477  13.546 -0.0252  0.0468  0.0400
 8667W        W27521  16.425  16.908   3.005 -0.1543 -0.1338 -0.1944
 8668W        W27522   7.326   0.919   1.294  0.2280  0.0664  0.1842
 8669W        W27523  14.899   9.135   4.859 -0.2272  0.0198 -0.1104
 8670W        W27524  12.522  14.516  14.462  0.0866 -0.0525  0.0562
 8671W        W27525   0.234  11.707  15.481 -0.1002  0.0525 -0.1324
 8672W        W27526   5.224   8.994  16.520  0.3558  0.1675  0.0221
 8673W        W27527   5.353   5.902  15.175  0.0972  0.0897  0.0668
 8674W        W27528   5.092   8.624   3.462  0.2971 -0.2213  0.2267
 8675W        W27529   9.227  12.078   4.733 -0.0698 -0.0748  0.0209
 8676W        W27530   2.117   8.225  17.245  0.1103 -0.1770 -0.0189
 8677W        W27531   8.312  15.471  12.303 -0.3743  0.0870  0.2800
 8678W        W27532   9.452   0.211   4.708 -0.0596 -0.1708  0.3831
 8679W        W27533   8.908   4.738  16.704  0.0808  0.0144 -0.2334
 8680W        W27534  15.743   2.769   4.756  0.2035  0.1458 -0.0683
 8681W        W27535   5.619  15.940   4.680  0.2248  0.1863 -0.2377
 8682W        W27536  11.648  15.962   1.551 -0.6127  0.0715 -0.2534
 8683W        W27537  13.211  12.253   3.324 -0.1270  0.2000  0.1098
 8684W        W27538   0.343   8.498  17.333 -0.1811 -0.1560 -0.4157
 8685W        W27539   8.661  10.245   1.029  0.2630 -0.1672 -0.0153
 8686W        W27540   7.829  12.550   5.124  0.0158 -0.1113 -0.0918
 8687W        W27541  14.603   0.532  15.147  0.0010 -0.1093  0.2824
 8688W        W27542   8.392   0.056  14.978  0.2280  0.2079 -0.2305
 8689W        W27543  10.740  13.100  16.042 -0.1313 -0.1469  0.0081
 8690W        W27544   3.602   5.184  12.658 -0.2768  0.0708 -0.0051
 8691W        W27545   5.189   6.591  12.559 -0.1072  0.0617  0.1152
 8692W        W27546   4.899  13.352   4.619  0.2482 -0.0403 -0.0472
 8693W        W27547  16.997   5.999  15.607 -0.0685 -0.0838  0.1678
 8694W        W27548   0.508  15.133  14.650  0.2652  0.1333 -0.1634
 8695W        W27549   5.399  16.050   0.320 -0.3149  0.0749 -0.0269
 8696W        W27550   3.263  16.802   0.908 -0.2878  0.1346  0.4166
 8697W        W27551  13.620   9.004  13.677 -0.0683  0.0084  0.1801
 8698W        W27552  12.036   3.605  17.404 -0.1320  0.3517  0.1325
 8699W        W27553   6.230  17.070  12.958 -0.0695  0.1439  0.0010
 8700W        W27554  14.523  16.974   5.101  0.1199  0.0066 -0.2576
 8701W        W27555   8.343  16.168   3.575 -0.2143 -0.0150  0.1727
 8702W        W27556  15.047   4.568   0.209 -0.1842 -0.0842  0.1239
 8703W        W27557   1.464  13.454  12.208 -0.2136 -0.1124 -0.2974
 8704W        W27558  11.590  15.493   1.820 -0.0783  0.2771  0.0852
 8705W        W27559   3.226   9.459   4.733 -0.2945  0.2516  0.1779
 8706W        W27560   4.718  17.120   2.292 -0.0887 -0.1794 -0.2188
 8707W        W27561  13.587   9.986  15.188  0.3091  0.2638  0.1977
 8708W        W27562  16.381   0.254  14.186  0.3667  0.1135  0.0696
 8709W        W27563  16.522   0.037  12.315 -0.0578 -0.1970  0.1098
 8710W        W27564  10.341  10.986  14.319  0.1032  0.1483  0.0974
 8711W        W27565   8.634   4.352  12.954 -0.0203  0.2434 -0.0815
 8712W        W27566   8.217   1.860   3.002 -0.4737  0.0820 -0.1224
 8713W        W27567   7.744  12.405   4.566  0.0448 -0.0184  0.0148
 8714W        W27568  14.734   8.546   0.600 -0.1461  0.0208 -0.0759
 8715W        W27569   8.367  13.980  14.808  0.0360  0.1746  0.1490
 8716W        W27570   6.761   6.678  13.164  0.1505 -0.2354  0.1251
 8717W        W27571  12.022  15.391  15.800  0.2876  0.0741  0.2064
 8718W        W27572  11.064   8.422   1.695 -0.3126 -0.0359 -0.3225
 8719W        W27573  13.001  12.435  13.080 -0.0840 -0.1642 -0.0039
 8720W        W27574   3.691  15.882  11.700  0.0019 -0.1302 -0.0847
 8721W        W27575   8.204   1.375  14.465 -0.0256 -0.3248  0.1654
 8722W        W27576  10.327  14.286   1.535  0.3944 -0.1744 -0.3235
 8723W        W27577   0.185   3.263   0.066  0.3728  0.0487  0.0643
 8724W        W27578   2.284  14.571   0.550  0.0346  0.1126 -0.4148
 8725W        W27579  11.118   1.055  17.133  0.0912 -0.1190  0.1952
 8726W        W27580  14.230   2.108   2.807  0.2734 -0.0714 -0.2519
 8727W        W27581   1.944   0.238   4.496 -0.2937  0.3990  0.0297
 8728W        W27582   4.526   5.796   5.339  0.1161  0.0967  0.1640
 8729W        W27583   6.517   7.574  15.760 -0.0484  0.2479  0.1428
 8730W        W27584   3.254  13.472   3.148  0.0418 -0.0268  0.0096
 8731W        W27585   9.531  11.033  16.440  0.0408  0.2775  0.0546
 8732W        W27586  14.899  11.488  15.906  0.1865  0.3204  0.0808
 8733W        W27587  11.692   2.232  13.236 -0.0721  0.1095  0.0556
 8734W        W27588   1.568  12.248  15.715 -0.0372  0.0882 -0.2126
 8735W        W27589   3.474  16.935  14.260  0.1846  0.1757  0.0085
 8736W        W27590  15.069   5.646   1.339 -0.0124 -0.0453  0.1313
 8737W        W27591   4.107   9.076   0.275 -0.0849 -0.2664  0.0517
 8738W        W27592   0.060   9.899  16.105  0.0206 -0.1735 -0.0315
 8739W        W27593  17.094  15.824  12.749  0.1073 -0.1892  0.0287
 8740W        W27594   7.862  14.257   0.849  0.3317  0.1416  0.2387
 8741W        W27595   9.396  16.916  13.365  0.0447 -0.0530 -0.2888
 8742W        W27596   4.066  15.525   2.130 -0.1288  0.0592 -0.1233
 8743W        W27597  15.113   3.535   0.170  0.2164 -0.2252  0.2111
 8744W        W27598   2.139  14.306   5.051  0.2485  0.0880 -0.0429
 8745W        W27599   7.930  13.596  14.137 -0.1247  0.0982 -0.0808
 8746W        W27600   9.559  10.168  13.148 -0.1206 -0.0420 -0.1576
 8747W        W27601  14.224   3.108  14.357  0.0447  0.1751  0.0325
 8748W        W27602   7.836   7.885   4.700 -0.3061 -0.1371 -0.0419
 8749W        W27603  10.391  14.137   4.532 -0.1601 -0.2111 -0.0049
 8750W        W27604  10.726   2.332  15.422  0.1234  0.1148 -0.1365
 8751W        W27605   3.214   1.401  14.466  0.0760  0.1311 -0.0751
 8752W        W27606  13.498  10.858  13.703  0.2468  0.1330 -0.0521
 8753W        W27607   3.291  15.451  12.346 -0.1115 -0.1052  0.0974
 8754W        W27608   5.814  11.795   4.739  0.2259 -0.3136 -0.1791
 8755W        W27609   9.224   1.364  15.934 -0.1281  0.0410 -0.1141
 8756W        W27610  15.947  10.955   3.028  0.1583 -0.3656 -0.0379
 8757W        W27611  12.199  13.197   1.825  0.0435 -0.0459  0.0399
 8758W        W27612   8.670   6.052   4.728 -0.1086 -0.2692 -0.1534
 8759W        W27613  15.158  10.181  14.451  0.2639 -0.2196  0.0553
 8760W        W27614   0.848  13.938  15.319  0.1294  0.0969  0.2077
 8761W        W27615   9.886   5.227   3.044  0.0339 -0.1349  0.1958
 8762W        W27616  12.329   2.869  16.583 -0.2408  0.0285  0.0317
 8763W        W27617   6.479   8.877   4.583  0.1075  0.1374 -0.0174
 8764W        W27618  14.497  14.269  13.179 -0.1513  0.1088  0.1639
 8765W        W27619   8.501   3.757   2.662  0.1610  0.1784 -0.2411
 8766W        W27620  11.410   4.692  14.202 -0.0706 -0.2899 -0.0283
 8767W        W27621   7.572  11.363  12.131 -0.1304 -0.1181  0.0298
 8768W        W27622   6.978  17.181  14.835 -0.0129  0.0371  0.0028
 8769W        W27623  12.834   9.943   0.044 -0.0753  0.1295 -0.1159
 8770W        W27624   3.853   1.541   3.419 -0.2206  0.2433 -0.3660
 8771W        W27625  14.195   4.930   5.030 -0.2350 -0.2928  0.1483
 8772W        W27626   1.606  12.885   1.218  0.2415 -0.0876 -0.1328
 8773W        W27627   1.442   6.332   3.170 -0.1209 -0.0685 -0.1978
 8774W        W27628   4.373   1.200  16.657  0.0688  0.2962 -0.2439
 8775W        W27629  17.129   3.318   2.114  0.3423  0.1890  0.3669
 8776W        W27630   5.046  16.891  15.269 -0.1460  0.1560  0.0231
 8777W        W27631   0.239  15.633   0.956  0.0725  0.2097  0.1043
 8778W        W27632   5.572  10.367  16.561  0.1534  0.0034 -0.0893
 8779W        W27633   6.254   5.665   4.678 -0.1703 -0.2321  0.1119
 8780W        W27634   3.180  14.502   2.229  0.0656 -0.1418 -0.1816
 8781W        W27635   2.575  12.023   3.169  0.0640 -0.1049  0.1897
 8782W        W27636  11.390  12.630   4.046  0.0414 -0.5871 -0.2656
 8783W        W27637   5.165   6.965  16.587 -0.1293 -0.3145  0.0906
 8784W        W27638   1.137  10.182  14.002 -0.3935  0.1819  0.1185
 8785W        W27639  14.941  15.964  16.586  0.1148  0.3959 -0.0118
 8786W        W27640  10.375   0.252   1.987  0.2663 -0.1016  0.0882
 8787W        W27641   4.505   2.374   4.185 -0.0618 -0.0028 -0.1767
 8788W        W27642   9.403   5.013   0.864 -0.1102 -0.0601 -0.1782
 8789W        W27643  11.273   9.087  17.437 -0.0082 -0.0433 -0.1547
 8790W        W27644   3.331  11.342   2.106  0.1608  0.4433  0.0505
 8791W        W27645   6.788   8.401  11.896 -0.1909  0.5696 -0.0353
 8792W        W27646   6.546  17.113   4.986  0.1727 -0.2837 -0.3964
 8793W        W27647  13.802   3.265   5.099  0.5070  0.3698  0.1369
 8794W        W27648  11.858   6.578   0.555  0.1534  0.0793  0.0223
 8795W        W27649   2.781   2.485   4.664  0.1018 -0.1925 -0.0867
 8796W        W27650   9.429  10.656  12.298  0.1656  0.1686  0.0434
 8797W        W27651   4.507  16.017  15.425  0.2326 -0.0037  0.2083
 8798W        W27652  11.673  12.317  11.367 -0.0390 -0.1692  0.0641
 8799W        W27653  12.382   6.375  17.022  0.1586 -0.1982 -0.5030
 8800W        W27654   2.607   2.903   4.324 -0.0701  0.0196 -0.1533
 8801W        W27655   7.210  15.710  16.025  0.2679 -0.0731 -0.1340
 8802W        W27656   8.860  12.079  14.265  0.0643  0.0577 -0.2343
 8803W        W27657  14.544  14.721   2.853 -0.1681  0.0977 -0.0006
 8804W        W27658  11.520   3.067   2.646 -0.1882  0.2449  0.1981
 8805W        W27659   2.410  10.748   3.467 -0.1103  0.0447 -0.0906
 8806W        W27660  16.590  12.485   0.775  0.1836 -0.2287  0.3842
 8807W        W27661   0.121   5.086  14.334  0.0705  0.3853  0.0290
 8808W        W27662   9.103   6.418   3.599  0.1033  0.1757  0.1742
 8809W        W27663   6.678  10.027   1.807 -0.0408 -0.0253 -0.0803
 8810W        W27664   3.339  14.147  15.610  0.1071 -0.0543  0.1429
 8811W        W27665  13.989   3.791   5.141  0.1947  0.1201  0.0401
 8812W        W27666  12.112  13.873  17.334  0.0038  0.3342  0.1179
 8813W        W27667   5.335   3.535   4.831 -0.1264 -0.0527 -0.0325
 8814W        W27668  13.610  12.140   6.295 -0.1222 -0.0004 -0.1598
 8815W        W27669   1.624   2.664   3.921  0.0055 -0.0934 -0.1280
 8816W        W27670   8.390   0.168   2.882 -0.0185 -0.1232  0.0592
 8817W        W27671   9.105   4.664   3.575 -0.2563  0.1284  0.0781
 8818W        W27672  12.385   5.466   3.342  0.0614 -0.0043 -0.0540
 8819W        W27673   9.226  14.037  12.585 -0.0772 -0.0756 -0.1755
 8820W        W27674   8.648   7.272  13.231 -0.3417  0.0059 -0.0235
 8821W        W27675   8.359  10.977   3.103 -0.0390 -0.0443  0.1681
 8822W        W27676   2.392   9.104  17.372  0.2386 -0.2791  0.1378
 8823W        W27677  16.140   9.090  12.927 -0.0494 -0.3418 -0.2247
 8824W        W27678   7.755  12.945   0.516 -0.0913  0.3860 -0.0196
 8825W        W27679   3.122  11.862  16.403 -0.0724 -0.1908  0.0385
 8826W        W27680  11.354  16.815   0.082 -0.1612  0.0456  0.2103
 8827W        W27681  14.982   4.468  12.400 -0.0128 -0.1370 -0.1135
 8828W        W27682   1.265   6.200  14.203  0.0446  0.1203  0.0049
 8829W        W27683   9.240  16.665   0.085  0.0966 -0.5512  0.1447
 8830W        W27684   4.206  13.193  17.316  0.1805  0.0094 -0.0705
 8831W        W27685  13.159   5.697   0.917 -0.0782 -0.3354  0.0113
 8832W        W27686   8.055  17.030   5.013 -0.1140  0.0985 -0.2423
 8833W        W27687   1.279   5.522  12.219  0.1838 -0.0786  0.0713
 8834W        W27688   9.420   5.064   0.025 -0.1010 -0.0709 -0.2427
 8835W        W27689   1.772   9.525   1.120  0.1398 -0.3996  0.1493
 8836W        W27690   4.654  13.384   0.463  0.0847 -0.1322 -0.2929
 8837W        W27691  12.467   8.797  12.016 -0.0808 -0.0663 -0.0474
 8838W        W27692   1.199   9.372  12.110  0.4115 -0.1498 -0.2534
 8839W        W27693  17.169   4.005  15.188  0.2112 -0.1298  0.3580
 8840W        W27694   3.610   5.847   4.024 -0.0609  0.0735 -0.2316
 8841W        W27695  11.797  14.436   4.474 -0.1405 -0.0369  0.0930
 8842W        W27696   5.114  16.498  17.198 -0.1508 -0.0440  0.1594
 8843W        W27697   0.953  13.508   5.511 -0.0410  0.2883 -0.1565
 8844W        W27698  17.187  15.182   4.756 -0.2321  0.0811  0.0286
 8845W        W27699   6.162  16.595  12.624  0.6427  0.1313 -0.2543
 8846W        W27700   3.795   6.790  12.935  0.0993  0.3187  0.3528
 8847W        W27701  10.050   9.492   4.603  0.0865 -0.2378  0.2140
 8848W        W27702   0.730   3.714  14.262  0.1342  0.0056 -0.2515
 8849W        W27703   2.085   8.150  15.949  0.2228  0.0728  0.1013
 8850W        W27704  17.300   4.635  15.709  0.4103 -0.0578  0.1254
 8851W        W27705   9.679  14.197   1.490  0.2100  0.0211  0.1313
 8852W        W27706   4.844   0.536  14.128 -0.1329  0.1134  0.0474
 8853W        W27707   8.779  10.439  13.540 -0.1082 -0.2042  0.0543
 8854W        W27708  11.564   9.753   1.728  0.0007  0.3799 -0.1552
 8855W        W27709  10.625   6.205   1.519 -0.0581 -0.3511 -0.1443
 8856W        W27710   4.525   2.588   0.269  0.0089  0.2326  0.1985
 8857W        W27711   8.085   3.782   4.906  0.3053  0.5484  0.1428
 8858W        W27712   6.917   7.596  16.574  0.0464  0.1053 -0.1672
 8859W        W27713   2.634  16.558   5.016  0.2795  0.0225  0.0295
 8860W        W27714  10.433  12.174   2.080 -0.2148  0.1777 -0.1095
 8861W        W27715   8.564  17.222  17.313  0.3728  0.0217 -0.0357
 8862W        W27716   1.253  11.502  13.395 -0.0612  0.0583  0.2486
 8863W        W27717  11.077   9.980  15.770  0.5133 -0.1036  0.1832
 8864W        W27718   3.538   9.353  14.610 -0.2698  0.0442  0.0918
 8865W        W27719  10.625  14.847   2.681 -0.0797 -0.2326  0.2538
 8866W        W27720   3.943  11.108  16.497  0.3760 -0.1228 -0.2524
 8867W        W27721  11.548   7.815  17.322 -0.0034 -0.3053  0.0537
 8868W        W27722  16.802  16.963  12.268 -0.1217  0.1443 -0.1673
 8869W        W27723  14.850   0.683  12.841 -0.1087 -0.0349  0.2736
 8870W        W27724   0.483   7.532  14.365  0.4391  0.1332  0.1382
 8871W        W27725   2.773  14.555  17.231  0.2992 -0.0779  0.1122
 8872W        W27726  14.974   5.525   4.168  0.2635  0.0377 -0.1932
 8873W        W27727   3.074   0.058   0.706  0.0134 -0.3761  0.0400
 8874W        W27728  11.620  14.221  13.851  0.1253 -0.2066 -0.0860
 8875W        W27729   1.981   3.578  14.392  0.3813 -0.1708  0.0177
 8876W        W27730  12.350   5.332   5.208  0.1592  0.0825 -0.1568
 8877W        W27731   6.100  15.196  16.587 -0.0393  0.1515  0.2448
 8878W        W27732   5.522   0.339   5.397  0.0039  0.2258  0.0907
 8879W        W27733   1.165  11.230   6.352 -0.1678  0.1769 -0.3241
 8880W        W27734  17.086  15.870   4.623 -0.0948  0.2780  0.0873
 8881W        W27735   7.261   2.999  16.857 -0.0534  0.0553 -0.0144
 8882W        W27736   3.637  12.644  16.660 -0.0934  0.1710 -0.1630
 8883W        W27737   8.486   7.776   3.086 -0.1961 -0.1115  0.1601
 8884W        W27738   0.851  10.949  13.776 -0.1532 -0.0937 -0.2041
 8885W        W27739   0.187   3.741   2.599  0.1746  0.3061  0.0112
 8886W        W27740   2.033  16.970  17.332 -0.0652  0.1492  0.1919
 8887W        W27741  11.279  14.828   3.952 -0.0157 -0.1858 -0.0486
 8888W        W27742   6.116  10.165   2.004  0.1245 -0.0901 -0.1933
 8889W        W27743  14.343  14.634  14.746  0.2423 -0.1962  0.1958
 8890W        W27744  14.344   2.410  11.727  0.0025 -0.1170 -0.2323
 8891W        W27745   3.910   1.704  12.717 -0.3020  0.0363 -0.2362
 8892W        W27746   4.069  13.291  16.759  0.1274  0.0641  0.1468
 8893W        W27747   0.337   8.412  13.347 -0.1719  0.2557  0.1801
 8894W        W27748   5.992  14.573  12.657 -0.0138 -0.2133 -0.0204
 8895W        W27749   3.651   1.701   0.021  0.0318 -0.0427  0.2536
 8896W        W27750  10.405  15.283  13.932  0.1711  0.0568 -0.0902
 8897W        W27751  17.037  13.648  17.258  0.0428 -0.0505  0.1788
 8898W        W27752   5.379   7.949   2.060  0.1238 -0.0858 -0.0662
 8899W        W27753   8.496   0.073  12.504  0.1750  0.1765  0.0742
 8900W        W27754   5.177  11.122   4.957 -0.0254  0.2715 -0.0426
 8901W        W27755   6.369   4.970   0.464 -0.3246 -0.5285 -0.0786
 8902W        W27756   5.541  16.390   3.260 -0.0210 -0.0646 -0.2649
 8903W        W27757   1.006   5.525   0.899 -0.3644 -0.2500  0.2638
 8904W        W27758   3.366  16.624   2.404 -0.0081 -0.0818 -0.0993
 8905W        W27759   8.763  12.111   1.390  0.0739  0.2708 -0.4070
 8906W        W27760  11.261  11.159  13.868 -0.1415 -0.1037  0.4459
 8907W        W27761  15.026  12.396  13.467 -0.0423  0.1452  0.0817
 8908W        W27762   9.767   4.925   2.148  0.2453  0.2439  0.1936
 8909W        W27763   6.876   8.100  14.460 -0.2081 -0.1219 -0.1582
 8910W        W27764   2.889   1.800   4.592 -0.2320 -0.1394  0.1388
 8911W        W27765  10.880   9.295   1.638  0.1587 -0.3170  0.0635
 8912W        W27766  15.832   5.192   3.627  0.2657  0.2011 -0.1712
 8913W        W27767   6.164  12.201  12.787 -0.1425 -0.1626  0.0831
 8914W        W27768   4.259   0.822  15.317  0.0832 -0.2017  0.2510
 8915W        W27769   7.085   7.281   3.949  0.2220 -0.0270 -0.0255
 8916W        W27770   1.032   1.673   4.806 -0.1782  0.0121  0.1368
 8917W        W27771   7.523  15.191  12.824  0.2733  0.0752  0.0434
 8918W        W27772  16.388   3.349  17.269 -0.1240  0.0627 -0.0811
 8919W        W27773  17.331   0.035   2.719 -0.1172 -0.1976 -0.0233
 8920W        W27774   2.693  16.562   2.900  0.0998  0.1631 -0.1530
 8921W        W27775  13.129  10.441  14.104  0.0923  0.0399 -0.0260
 8922W        W27776   3.695  11.948  17.328 -0.0565 -0.0221  0.1790
 8923W        W27777   1.309   4.301   2.347  0.2458 -0.1421 -0.2212
 8924W        W27778  16.377  15.328  15.620 -0.2765  0.0039  0.1850
 8925W        W27779  17.123   8.883   2.008 -0.0653 -0.1004  0.0663
 8926W        W27780   8.539  14.990  12.494 -0.2689  0.0367  0.1035
 8927W        W27781   6.532   1.788   3.858  0.0686  0.0868 -0.3644
 8928W        W27782   6.621   9.655   1.359 -0.1577  0.1273 -0.3575
 8929W        W27783   4.700   2.267  13.943  0.0918  0.1917 -0.0015
 8930W        W27784   4.439   0.680  14.707  0.1061 -0.0227 -0.0146
 8931W        W27785   8.894  10.857  17.067  0.0805  0.0523 -0.0085
 8932W        W27786   5.377   1.716  14.585  0.0218  0.2326  0.1621
 8933W        W27787  16.096   5.003  13.458  0.0658  0.2043  0.3042
 8934W        W27788   4.357   5.976   2.019  0.0464  0.0725 -0.1888
 8935W        W27789   0.362   8.566  16.731  0.1429 -0.0097  0.0280
 8936W        W27790   2.003  14.654  14.732 -0.2148  0.0127  0.1958
 8937W        W27791   2.829   9.443   3.495  0.3036 -0.1345  0.1609
 8938W        W27792   0.887   0.579   2.932  0.2021 -0.0928 -0.0686
 8939W        W27793   6.818   1.727  13.646 -0.0189  0.1314  0.0589
 8940W        W27794  11.911  12.028  13.432 -0.5110  0.0470  0.0773
 8941W        W27795   4.533   3.841   3.259  0.0222  0.2858  0.0905
 8942W        W27796  15.058  12.067  16.161 -0.0451 -0.0969 -0.0037
 8943W        W27797   8.436   3.200   4.524 -0.2106  0.1903 -0.0704
 8944W        W27798   4.095   3.963   0.437  0.0712  0.1952 -0.0572
 8945W        W27799   3.707   7.188  16.124  0.0281 -0.2298  0.3882
 8946W        W27800   9.218  10.120   3.775 -0.0616  0.0182 -0.0788
 8947W        W27801   8.715   4.482   3.776 -0.1340  0.3214 -0.3323
 8948W        W27802   8.722   5.268  13.250  0.0700  0.1262  0.0195
 8949W        W27803   7.278  11.572  13.371 -0.0134  0.0664 -0.0434
 8950W        W27804   5.308  12.652   4.125 -0.0679  0.2012  0.2144
 8951W        W27805  11.049  14.095  17.058  0.1579  0.0849 -0.1475
 8952W        W27806   9.068   3.463   1.055  0.2411 -0.0253 -0.0138
 8953W        W27807  16.846   4.481  16.045 -0.0592 -0.1920  0.0297
 8954W        W27808   2.024  16.058   1.108  0.0971 -0.1908 -0.0032
 8955W        W27809   5.454   2.144   0.082 -0.0935  0.0532 -0.0787
 8956W        W27810  14.881  10.357   2.255 -0.1753 -0.1785  0.0100
 8957W        W27811  15.555  11.369   3.441  0.0557 -0.1312 -0.3318
 8958W        W27812   2.095   2.829   0.669  0.1077  0.1008 -0.0791
 8959W        W27813  11.831  15.799  15.134  0.0339  0.3287  0.1203
 8960W        W27814   1.476  15.403  14.879 -0.0318 -0.2359  0.2156
 8961W        W27815   8.715   6.374   5.251  0.0087 -0.2860  0.0415
 8962W        W27816   7.875  11.334  16.189 -0.2010  0.0397 -0.0710
 8963W        W27817   0.687  12.977   1.733 -0.0033  0.1695  0.0734
 8964W        W27818   3.287  10.817  17.010  0.2994  0.1249 -0.2528
 8965W        W27819   0.812  14.893  13.835  0.0735 -0.0062  0.0654
 8966W        W27820  15.988   8.552   1.113 -0.1420 -0.1359 -0.0754
 8967W        W27821   8.701   1.090  15.385 -0.3386  0.1347  0.1194
 8968W        W27822  15.825   5.082   5.128  0.3557  0.0859 -0.0955
 8969W        W27823   1.900  14.322   0.264  0.1217  0.0757  0.1675
 8970W        W27824   7.803  11.894  14.928 -0.0676 -0.1368  0.0145
 8971W        W27825   1.138  16.268  14.377  0.0104  0.2951  0.1698
 8972W        W27826   8.533   5.845  17.016 -0.1770 -0.0946  0.1329
 8973W        W27827   8.273  10.789   1.663 -0.0458 -0.1211  0.1384
 8974W        W27828   5.505   8.112   5.939 -0.2321  0.1667 -0.2428
 8975W        W27829  12.036  14.248   2.376 -0.2333 -0.0409 -0.1534
 8976W        W27830  14.743   6.579   4.874 -0.2427  0.0200 -0.2535
 8977W        W27831  10.238  14.860  14.220 -0.3458  0.1861 -0.0458
 8978W        W27832  12.180  14.957   4.051 -0.1277  0.0099 -0.2750
 8979W        W27833   2.330   8.152   1.359 -0.0645 -0.4169  0.0599
 8980W        W27834  16.109   1.043  14.095  0.0951 -0.2509  0.0700
 8981W        W27835  13.677   2.776   2.321  0.1788  0.0595 -0.1416
 8982W        W27836   3.526   3.300   1.079  0.1679  0.2499  0.0371
 8983W        W27837   7.282   0.861  13.918  0.0647  0.0099 -0.0796
 8984W        W27838   2.130   0.742   3.758 -0.2540  0.1876  0.1712
 8985W        W27839  12.732   8.233  16.861  0.2462  0.1166 -0.0261
 8986W        W27840  12.675   1.552   0.563  0.2287  0.0098 -0.0185
 8987W        W27841   8.437   2.286   3.088 -0.0073 -0.0215 -0.1541
 8988W        W27842   8.177   9.364  15.025  0.1793  0.0542  0.0487
 8989W        W27843  10.136   6.836   5.034  0.1516 -0.2192  0.0523
 8990W        W27844  13.204   5.547  12.364 -0.2809 -0.0773  0.0607
 8991W        W27845   2.915   1.263   2.647  0.1494  0.2346  0.0957
 8992W        W27846   7.562   2.397  15.466  0.4317 -0.1633  0.0781
 8993W        W27847  13.441  14.609  15.584  0.0464 -0.0399  0.2418
 8994W        W27848  12.750   9.461  15.346 -0.0480 -0.1161  0.0993
 8995W        W27849   7.682   3.956   2.449  0.1692 -0.0143 -0.3051
 8996W        W27850   4.559   1.166   3.195 -0.0976 -0.3051  0.1055
 8997W        W27851   3.118   9.028   2.686  0.0401 -0.1368 -0.1941
 8998W        W27852   8.104  15.102  14.341 -0.1193  0.2525 -0.0579
 8999W        W27853  12.389  11.197  14.507  0.1108  0.1532 -0.1168
 9000W        W27854  17.054   0.728  12.723 -0.1190 -0.1949 -0.1721
 9001W        W27855   4.895   8.923   4.299 -0.0930  0.0833 -0.0596
 9002W        W27856  10.552   9.575   2.670 -0.1444 -0.2514 -0.1485
 9003W        W27857  15.345  16.444  15.749  0.1312 -0.0164  0.2352
 9004W        W27858   5.652   3.797   1.149  0.1713 -0.2774  0.1237
 9005W        W27859  12.618  10.491  12.928  0.2210 -0.1128 -0.1372
 9006W        W27860  12.927  11.585  17.165 -0.0516  0.0102 -0.1664
 9007W        W27861  16.169  13.460  11.893 -0.0834  0.0431 -0.1305
 9008W        W27862  12.371  10.885  15.221 -0.1148 -0.0952 -0.0801
 9009W        W27863   1.427  10.657   2.775 -0.5736  0.1185  0.2178
 9010W        W27864  14.618   8.964   3.095  0.1045 -0.0779 -0.1446
 9011W        W27865   1.752   7.129  17.392  0.2552  0.2624  0.1085
 9012W        W27866   4.206  16.255   3.376  0.0697  0.1010  0.0151
 9013W        W27867  10.872   9.081  15.123 -0.0369  0.0212 -0.3352
 9014W        W27868  13.915   0.355  12.884  0.0211  0.1269 -0.1744
 9015W        W27869  14.655  10.837  16.442 -0.1886 -0.4342 -0.0908
 9016W        W27870  15.250   5.986  14.915 -0.0033  0.1684 -0.0598
 9017W        W27871   1.419   6.018  12.923 -0.4617  0.1770  0.2619
 9018W        W27872  15.012   3.244  13.085  0.1952 -0.2523  0.1855
 9019W        W27873   7.076   3.308   0.879 -0.4128  0.0738  0.0705
 9020W        W27874  14.926   8.126  12.405  0.2019 -0.2578  0.2107
 9021W        W27875   6.418   1.881   0.176  0.1131 -0.0928  0.1069
 9022W        W27876  13.420  16.065  14.416  0.1749 -0.4856 -0.1188
 9023W        W27877  14.404   8.228  14.527 -0.0053 -0.1162  0.3220
 9024W        W27878  13.820   5.382   2.433 -0.0145  0.1356  0.1348
 9025W        W27879   6.697  11.650  15.651  0.1877  0.1255  0.0804
 9026W        W27880   1.292  12.642  16.915 -0.1846 -0.2061 -0.0881
 9027W        W27881   0.130   2.141  14.510 -0.0504  0.3736 -0.1207
 9028W        W27882   8.439  14.684   3.224  0.2242  0.0766  0.0621
 9029W        W27883   9.314   4.071   4.090 -0.0317  0.2249  0.1421
 9030W        W27884   5.131   0.008   3.232  0.1035  0.0741  0.0208
 9031W        W27885   9.401   3.714  13.221 -0.0111 -0.2065  0.0604
 9032W        W27886  14.586   0.099   4.252  0.0527 -0.1590 -0.1790
 9033W        W27887  17.110   5.506  14.419  0.0621 -0.1304  0.1782
 9034W        W27888  15.637  13.230  15.969  0.0894  0.0684  0.0384
 9035W        W27889   5.819  14.765   0.390 -0.0206  0.1802  0.0813
 9036W        W27890   6.944  17.090   4.113 -0.3062  0.0710  0.0047
 9037W        W27891  13.376  12.736   2.059  0.0836 -0.0421 -0.0986
 9038W        W27892   7.566  16.643  15.920 -0.1453  0.3658 -0.0109
 9039W        W27893  14.980   1.134  14.230  0.0033 -0.1397 -0.3282
 9040W        W27894   5.305  12.882   3.472  0.0456 -0.2185  0.2655
 9041W        W27895   9.810   4.618   0.890  0.2076 -0.1356  0.1775
 9042W        W27896   3.580  13.272  16.669 -0.2970  0.1320  0.0770
 9043W        W27897   8.786  15.734  17.390 -0.2726  0.1382  0.1807
 9044W        W27898  12.473   2.702  17.255  0.4917  0.2903  0.3250
 9045W        W27899   8.227   3.256  14.351 -0.2723  0.1563  0.0161
 9046W        W27900  13.708   8.618  13.354  0.4719 -0.0638  0.1221
 9047W        W27901  11.174   9.484  15.796 -0.1313 -0.1632 -0.3475
 9048W        W27902   8.282  14.867  12.990  0.0464  0.0649  0.0012
 9049W        W27903  10.126   5.605  13.308 -0.0538 -0.0253 -0.1889
 9050W        W27904   8.725  12.812  13.576 -0.0258  0.1151 -0.1482
 9051W        W27905  11.032  15.886   0.350 -0.0906 -0.0749  0.0110
 9052W        W27906   4.826   5.933   2.220  0.2227  0.1021  0.3667
 9053W        W27907   1.601  13.451   2.188 -0.0323  0.2157  0.0140
 9054W        W27908  11.285   6.089  15.441  0.0313  0.3139 -0.1534
 9055W        W27909  13.124   5.935  16.253 -0.2707 -0.3470 -0.0930
 9056W        W27910   5.754   3.686  13.904  0.2109  0.4448 -0.0383
 9057W        W27911   7.900   2.969   1.947 -0.1456 -0.0383 -0.1567
 9058W        W27912  12.752   8.669   2.862  0.1419  0.0474 -0.1530
 9059W        W27913  13.606  16.662   4.783  0.1575  0.1380  0.1087
 9060W        W27914  15.383  17.085  17.266  0.4112 -0.0020  0.0884
 9061W        W27915   5.086   3.452  14.469 -0.0073  0.0548  0.0177
 9062W        W27916   6.084  11.866  12.407 -0.0980 -0.0309  0.3284
 9063W        W27917   3.472  10.590  17.453  0.0923 -0.1685 -0.2063
 9064W        W27918  15.392  13.661  16.829  0.1748  0.0649 -0.2091
 9065W        W27919   3.863  16.247   0.463  0.0434 -0.2177  0.2311
 9066W        W27920   7.661  10.468  12.410  0.1341 -0.1052  0.2138
 9067W        W27921  14.174   0.496  14.866 -0.2104  0.0108  0.0357
 9068W        W27922   2.705   8.134  12.838  0.0743  0.1864 -0.1319
 9069W        W27923  12.871   5.581  13.593  0.1799  0.0235  0.0940
 9070W        W27924   7.084  15.134  14.395 -0.2887 -0.2351 -0.1648
 9071W        W27925  17.123   0.203  15.482  0.2667 -0.1134 -0.1041
 9072W        W27926  12.790   0.623  16.647  0.3942 -0.0801  0.0061
 9073W        W27927   9.533   0.383   4.179 -0.3140 -0.1260  0.0364
 9074W        W27928   9.381  15.452  12.605  0.0782 -0.0918 -0.0387
 9075W        W27929   4.567   5.683  16.236  0.3828 -0.1228  0.1126
 9076W        W27930  13.699   4.358  13.858  0.0303  0.2931 -0.0616
 9077W        W27931  14.075  11.235   1.997 -0.1933 -0.1127  0.0012
 9078W        W27932  14.961  15.898   0.983 -0.0865  0.0026  0.0127
 9079W        W27933   7.416  14.674  13.159 -0.0490  0.2879  0.0279
 9080W        W27934   8.259  16.412   4.335  0.2696  0.2087  0.1494
 9081W        W27935  14.128  11.210  15.263 -0.0088 -0.3032 -0.0651
 9082W        W27936   1.162   6.799  14.760  0.0895  0.0454  0.4019
 9083W        W27937  11.910   7.379  15.445  0.2000 -0.0530 -0.0682
 9084W        W27938   3.869   5.745   2.174  0.1915 -0.1689  0.0351
 9085W        W27939   2.750  11.596  13.713 -0.0094  0.0745  0.0713
 9086W        W27940   1.391   9.294  13.565  0.1269 -0.0682  0.2254
 9087W        W27941   3.173   7.961  14.550 -0.0908 -0.0429 -0.4611
 9088W        W27942  14.919   6.194  15.861 -0.3213  0.3498 -0.0011
 9089W        W27943   9.248  11.250   5.232  0.0418 -0.2147  0.2853
 9090W        W27944   0.291   8.421   3.083  0.0710 -0.0818  0.1815
 9091W        W27945   5.388   3.121   3.240 -0.3755 -0.1276  0.2790
 9092W        W27946  14.562   6.375  11.021 -0.2468 -0.1105  0.1414
 9093W        W27947   0.801   2.332   0.207 -0.0264 -0.3033 -0.1712
 9094W        W27948   2.255  13.254   1.050  0.2133  0.0113 -0.1083
 9095W        W27949  12.924  17.026   3.316 -0.1869 -0.3056  0.1144
 9096W        W27950  12.240   9.099  16.948  0.1333 -0.2082  0.0394
 9097W        W27951  14.427   0.684  16.900  0.1852 -0.3284  0.0473
 9098W        W27952  12.612   9.420  14.428  0.1550 -0.0896 -0.0510
 9099W        W27953   8.268  13.886  13.311  0.1139 -0.1292  0.3941
 9100W        W27954   1.882  11.520   1.726 -0.1850 -0.1403  0.0370
 9101W        W27955   6.909   1.421  12.141  0.0869 -0.0577  0.2108
 9102W        W27956  11.209  13.600  13.363  0.1062  0.1408  0.0927
 9103W        W27957   6.044   0.546   1.865 -0.0355  0.0824  0.0214
 9104W        W27958  16.683  14.351   0.148 -0.1595 -0.0918 -0.1283
 9105W        W27959   7.186   5.562   2.763 -0.2800 -0.4492 -0.2218
 9106W        W27960   9.673  14.987  12.735 -0.0209  0.0123 -0.2065
 9107W        W27961   9.216   7.423   5.443  0.1466 -0.3807  0.0576
 9108W        W27962  14.371   1.033   3.968 -0.1390 -0.0475 -0.0548
 9109W        W27963   0.131  10.206   3.697  0.0259  0.3942 -0.3573
 9110W        W27964   6.948  13.334   2.758  0.1599  0.0562  0.0834
 9111W        W27965   6.152  15.088   1.081 -0.1301  0.0477 -0.1632
 9112W        W27966  13.768  14.675  16.842  0.0378  0.0313  0.0099
 9113W        W27967   8.336   8.548  17.180 -0.0654  0.2636  0.1908
 9114W        W27968  14.186   4.229   5.230 -0.0882  0.1997 -0.1390
 9115W        W27969  11.999   4.317  12.727  0.1001  0.1880  0.1909
 9116W        W27970  16.112   0.494  15.982  0.1301  0.0942  0.0825
 9117W        W27971   9.077   8.151   4.189 -0.0873 -0.0465 -0.0003
 9118W        W27972  12.311   6.550  15.701  0.0884  0.2009 -0.0533
 9119W        W27973   9.886  12.281   3.857  0.0333  0.1309  0.2749
 9120W        W27974   9.275  12.032  13.889  0.0561 -0.0396 -0.1441
 9121W        W27975  11.135   0.509  13.574 -0.0834 -0.3229  0.0555
 9122W        W27976   0.748  17.141  13.769  0.0742 -0.0539 -0.0888
 9123W        W27977   0.947  10.260  17.327  0.3154  0.0747 -0.0454
 9124W        W27978  16.379   2.318  12.195 -0.2311  0.1534  0.3037
 9125W        W27979  13.772  13.508   0.743  0.1195  0.0812 -0.2642
 9126W        W27980   8.536  13.125   1.459 -0.0268  0.0112 -0.1925
 9127W        W27981  10.240   4.860  17.093 -0.1543  0.2326 -0.2025
 9128W        W27982   6.442   4.903  13.339 -0.1436 -0.1006 -0.1788
 9129W        W27983   8.477  14.446  16.224  0.0941  0.0746 -0.0168
 9130W        W27984  11.763  15.715   4.233  0.2086  0.2378 -0.0795
 9131W        W27985  10.811   0.731   0.037  0.0279 -0.0810  0.2048
 9132W        W27986   8.928   4.095   2.542 -0.0568  0.3656  0.0529
 9133W        W27987  15.107  12.549   2.365 -0.2214 -0.1415 -0.0711
 9134W        W27988   5.519   2.186  15.674 -0.2443  0.3745 -0.1751
 9135W        W27989  10.511  16.785  15.339  0.0083  0.0477 -0.1606
 9136W        W27990  11.124  14.638   1.610 -0.1964 -0.3351 -0.1961
 9137W        W27991  16.339  11.136  12.355 -0.0303  0.1050  0.0995
 9138W        W27992  16.000  14.998   2.578 -0.0997  0.0497  0.1549
 9139W        W27993  16.354   5.467  12.383 -0.0794  0.0189 -0.0078
 9140W        W27994   8.206   3.339  15.728 -0.2198  0.1180  0.2106
 9141W        W27995  15.728   5.856  14.777 -0.2500 -0.1396 -0.1276
 9142W        W27996   9.031   3.600   3.317 -0.1235 -0.1944 -0.1507
 9143W        W27997  14.633   4.559   1.147 -0.2160  0.0110 -0.2382
 9144W        W27998  16.569   6.305   2.013 -0.4275 -0.1012 -0.2915
 9145W        W27999   2.106   3.738   1.587  0.0783 -0.1201  0.1278
 9146W        W28000   5.937  15.735  15.880 -0.1275  0.0990  0.0348
 9147W        W28001  15.083   6.776   0.925 -0.2519  0.2693 -0.2487
 9148W        W28002  11.814   8.147   3.412 -0.2065  0.0927 -0.3465
 9149W        W28003  11.406  15.913  15.337  0.0323  0.2621 -0.0704
 9150W        W28004   8.753  13.823   4.629  0.5067  0.0140  0.0249
 9151W        W28005   5.882   5.629  12.443  0.1147  0.1985 -0.0647
 9152W        W28006  16.912  10.176  14.166  0.0633  0.0760  0.1430
 9153W        W28007  16.972   0.554  11.831 -0.2312  0.3949  0.2329
 9154W        W28008  11.494  13.174   3.975  0.1353 -0.1848 -0.0215
 9155W        W28009  11.303   4.655   0.777  0.0039 -0.2732 -0.1152
 9156W        W28010  10.433  15.846  16.548  0.1506  0.1449  0.2818
 9157W        W28011   8.941   9.804   4.215 -0.0820  0.1509 -0.0515
 9158W        W28012   2.576   9.986   1.568  0.1262  0.0250 -0.2974
 9159W        W28013  11.995   8.202  14.340 -0.1546  0.0449 -0.0549
 9160W        W28014  12.375   4.053   4.713 -0.0024 -0.0117 -0.0065
 9161W        W28015  11.137   0.212   5.098 -0.0330 -0.0838 -0.3361
 9162W        W28016   8.229  16.016  12.625  0.0465  0.1543  0.0487
 9163W        W28017   0.204  13.510  13.505  0.0730  0.1600 -0.1047
 9164W        W28018   3.135   1.071   3.134  0.1297 -0.2239  0.2101
 9165W        W28019   0.112   0.338  16.705  0.2138  0.0631 -0.1858
 9166W        W28020  14.827   8.116   0.181  0.2273  0.2156  0.2185
 9167W        W28021   3.223  16.154  12.386 -0.3392  0.3523 -0.0439
 9168W        W28022  11.453  10.820  16.717 -0.0914 -0.0379  0.0154
 9169W        W28023  11.246   9.432   1.298 -0.2666  0.0417  0.2091
 9170W        W28024  13.738  10.594  15.713  0.0088 -0.4049 -0.0884
 9171W        W28025  10.487  12.112   4.884  0.0559 -0.2144 -0.0673
 9172W        W28026   0.593  14.135  13.603  0.0565 -0.0648  0.0403
 9173W        W28027  16.904  14.514  15.626 -0.0595  0.0622 -0.0015
 9174W        W28028  10.909   3.483   4.823 -0.0420  0.1089 -0.3210
 9175W        W28029  11.975  12.374  12.638 -0.2294 -0.2914 -0.0657
 9176W        W28030   6.084   3.618   0.175  0.3497 -0.1669 -0.1487
 9177W        W28031   5.373   7.410   2.107  0.1401 -0.2140  0.1572
 9178W        W28032   9.416   5.655  16.209  0.0525 -0.0206 -0.1648
 9179W        W28033   7.876  14.185  13.483  0.3777  0.0814 -0.1332
 9180W        W28034   2.560   0.450   4.692 -0.1080 -0.0323 -0.0952
 9181W        W28035   0.130  13.420   4.686  0.1192 -0.1236  0.1883
 9182W        W28036   4.181   7.915   5.063  0.1460 -0.2844  0.0724
 9183W        W28037   7.474  11.249   1.265 -0.0391 -0.1468 -0.2722
 9184W        W28038   4.300   1.008   5.227  0.0430  0.0103  0.0154
 9185W        W28039  12.911   1.871   3.109  0.2191 -0.1468 -0.1083
 9186W        W28040  10.404   6.323  15.596  0.0398  0.0222 -0.1372
 9187W        W28041  12.351   1.799   4.764  0.1535 -0.2226 -0.0375
 9188W        W28042   2.095   9.223   1.299  0.1149 -0.0510 -0.0359
 9189W        W28043  12.652  15.468   5.166 -0.1533  0.1806  0.2146
 9190W        W28044   5.634  15.470  16.144 -0.1064  0.4586 -0.0512
 9191W        W28045   0.883   2.766  12.133 -0.0149  0.1394 -0.0973
 9192W        W28046  10.958   2.854  14.788 -0.0038 -0.0473 -0.1016
 9193W        W28047   9.576  13.252   4.575 -0.1862 -0.0579  0.0272
 9194W        W28048  17.340   4.282  17.379 -0.0717  0.2427 -0.0909
 9195W        W28049  14.325  11.257   1.151  0.0783  0.4894  0.1674
 9196W        W28050  12.860   9.154   3.010 -0.3076  0.0732  0.0318
 9197W        W28051  10.804   9.618  16.574 -0.3232 -0.0590 -0.2593
 9198W        W28052  11.294  12.741  17.398 -0.0978 -0.0452  0.2440
 9199W        W28053  16.739   9.828  14.759  0.0804 -0.3080  0.0154
 9200W        W28054  11.046  12.689  14.250  0.0134  0.2773 -0.0649
 9201W        W28055   3.488  11.547   0.183 -0.3296  0.2506  0.1060
 9202W        W28056  16.410  11.923  15.225 -0.0164  0.1252 -0.0680
 9203W        W28057   4.766   2.499   3.265 -0.3711 -0.0936  0.1181
 9204W        W28058   4.757  16.007   3.096 -0.0839 -0.0388  0.1950
 9205W        W28059   4.756   8.427  13.978 -0.3897 -0.2123 -0.1381
 9206W        W28060   1.133   3.780   1.457  0.1153 -0.1416 -0.2672
 9207W        W28061   0.883   2.011   0.790  0.1248  0.1641 -0.3065
 9208W        W28062   2.865   3.716   3.311  0.1592  0.2923 -0.0255
 9209W        W28063   5.959  13.414   1.101 -0.0260 -0.0352 -0.1412
 9210W        W28064   5.433   9.780  12.738  0.3754 -0.1861 -0.1025
 9211W        W28065   2.697  15.718  14.798  0.1940 -0.2240  0.0081
 9212W        W28066  13.549  11.574  13.111  0.0419  0.0409 -0.0114
 9213W        W28067  11.389   3.157  15.633  0.1258  0.2837 -0.2924
 9214W        W28068  10.096   9.721   2.398 -0.2694 -0.0831 -0.2434
 9215W        W28069  12.812   4.604   5.177  0.0105  0.1787  0.0054
 9216W        W28070   1.367   1.906   2.972  0.1257  0.2005 -0.1030
 9217W        W28071  10.530  14.072   4.010 -0.1173 -0.0574 -0.3421
 9218W        W28072   5.087  15.024  15.552 -0.0536 -0.3106 -0.2822
 9219W        W28073  17.052  10.846   1.204 -0.2629  0.1320  0.0201
 9220W        W28074  14.359   7.176   4.235 -0.0481  0.2511  0.0494
 9221W        W28075   9.082  11.216   1.031  0.2226  0.0963 -0.2495
 9222W        W28076   3.640   4.229  15.767 -0.0964  0.0050 -0.2169
 9223W        W28077  13.021   1.814  13.381 -0.1599 -0.0350  0.2478
 9224W        W28078   8.928   8.902   3.193 -0.2955 -0.0556 -0.2045
 9225W        W28079  16.991  10.108   3.328 -0.0177  0.1031 -0.0187
 9226W        W28080   6.394  14.940  12.687  0.3335  0.2383  0.0436
 9227W        W28081   8.610   2.003  17.017  0.2301  0.1046  0.2744
 9228W        W28082  13.977   8.066  15.698  0.0536  0.3457  0.0492
 9229W        W28083   4.038   7.801  12.730 -0.1498  0.2801 -0.0906
 9230W        W28084   8.501   4.687  13.292 -0.0778  0.0915  0.0927
 9231W        W28085   5.592   7.975   4.846  0.0710 -0.0689 -0.2353
 9232W        W28086  14.681   4.304   3.620 -0.0803 -0.0710  0.0419
 9233W        W28087  11.614   1.438   1.501 -0.0637  0.0359 -0.1290
 9234W        W28088   9.824   5.498   6.567  0.2463 -0.1000 -0.0830
 9235W        W28089   1.628   9.866   1.575 -0.0854  0.3777 -0.0761
 9236W        W28090   4.120   1.885  17.435  0.3171 -0.0040  0.1123
 9237W        W28091  11.666   9.324  15.779 -0.0766  0.2106 -0.1053
 9238W        W28092  12.032   9.760   4.801  0.1810  0.0706 -0.3184
 9239W        W28093   6.953   2.796   1.021 -0.0703 -0.0247 -0.1407
 9240W        W28094   7.866  11.965   5.058  0.4217 -0.0022 -0.0156
 9241W        W28095  16.400   9.980  12.416  0.1046  0.2936 -0.0428
 9242W        W28096  15.888   3.677   1.700  0.0335 -0.3878 -0.0172
 9243W        W28097   8.707   2.412   4.920 -0.2289  0.0918 -0.0417
 9244W        W28098  11.291   0.049  13.141  0.1967 -0.1082 -0.1701
 9245W        W28099  12.641  17.039  17.148 -0.3942 -0.1708  0.0978
 9246W        W28100   5.936  12.910  16.535  0.1424 -0.0256 -0.0793
 9247W        W28101   6.404   3.547   1.455 -0.0632 -0.2340 -0.0837
 9248W        W28102   0.394  14.482  13.043  0.1254  0.6346 -0.0499
 9249W        W28103  16.480   0.475   2.585 -0.0860 -0.0358  0.0013
 9250W        W28104  15.739  13.082   3.426 -0.0515  0.0282 -0.1440
 9251W        W28105  10.298   3.709  17.355 -0.1469  0.0935  0.0126
 9252W        W28106   6.832   9.507   2.461 -0.1481  0.1899  0.1263
 9253W        W28107  10.460  12.506  13.643  0.0546  0.1708  0.4310
 9254W        W28108   6.982   9.038   2.452 -0.3395 -0.1384  0.1398
 9255W        W28109  14.791   7.054   3.926 -0.1758  0.0567  0.1185
 9256W        W28110   8.171   0.638   0.282  0.3425 -0.0309 -0.0009
 9257W        W28111   0.481   8.714  16.263 -0.1917 -0.3018  0.1757
 9258W        W28112   2.250  16.278  13.326 -0.1026 -0.1687  0.0853
 9259W        W28113   1.306  13.711   5.189  0.2340  0.1197 -0.2993
 9260W        W28114   5.549   1.648   0.149 -0.2191  0.0461  0.3122
 9261W        W28115  16.030   1.026  15.885 -0.1344  0.2723 -0.1099
 9262W        W28116   4.823   3.383  13.908  0.2877 -0.0369  0.1433
 9263W        W28117   1.675  13.614  16.499  0.1766 -0.0949 -0.0109
 9264W        W28118   1.676   5.422  17.075  0.1887  0.0626  0.1679
 9265W        W28119   8.363   5.188   2.038 -0.0700 -0.0021 -0.4563
 9266W        W28120  12.064  11.307  14.974 -0.3130  0.0775 -0.0827
 9267W        W28121  10.083  11.377   2.569  0.0314  0.0979 -0.0900
 9268W        W28122   8.320  16.954   0.186  0.0630 -0.2587  0.2639
 9269W        W28123   6.853  17.303   0.406 -0.0833 -0.0339 -0.0449
 9270W        W28124   3.595  14.926   4.341 -0.0130 -0.1393 -0.0546
 9271W        W28125  13.934  10.859  14.893 -0.4082  0.0706  0.1087
 9272W        W28126   0.307   7.842   4.899 -0.3001 -0.3259 -0.2159
 9273W        W28127   2.378   7.859   4.784  0.0941 -0.0340 -0.1982
 9274W        W28128  13.189   8.212  16.590 -0.0351 -0.2309 -0.2170
 9275W        W28129   2.402   8.403  12.221  0.0935  0.2511 -0.1639
 9276W        W28130   7.253   1.916   1.274 -0.0596  0.2246  0.1435
 9277W        W28131  11.413   4.759   4.791 -0.0098 -0.0973  0.2744
 9278W        W28132   3.970   7.649  13.271 -0.1183 -0.0685  0.1340
 9279W        W28133   7.952   3.352   3.005  0.0605 -0.1455  0.0425
 9280W        W28134  13.559  14.640   3.688 -0.1449  0.0128  0.0947
 9281W        W28135  16.871   7.063  12.127 -0.0356  0.1488 -0.0382
 9282W        W28136  15.182   1.038   2.403 -0.0629  0.0490  0.3364
 9283W        W28137  13.217   3.057  14.530  0.1973  0.0926 -0.0331
 9284W        W28138   3.624   7.657   1.227  0.2620 -0.0021 -0.0844
 9285W        W28139   8.722   9.168   2.011  0.2225 -0.0305  0.1316
 9286W        W28140  11.750  14.608   3.998  0.0596 -0.1229 -0.0970
 9287W        W28141   9.834   9.392  16.357  0.0643  0.2257  0.1712
 9288W        W28142  12.073  10.521  16.009 -0.2832 -0.0913  0.0909
 9289W        W28143  15.919  13.508  15.078  0.1759  0.0140 -0.0454
 9290W        W28144  14.345  13.326   2.623  0.2628  0.1861 -0.1253
 9291W        W28145  15.998   2.868  13.939  0.2541 -0.0326  0.0410
 9292W        W28146   0.105  12.838  14.588 -0.1407 -0.0834  0.0702
 9293W        W28147  11.095  13.678  15.215 -0.2821 -0.0429 -0.0585
 9294W        W28148  14.763  13.308   4.204 -0.1550  0.1232  0.2271
 9295W        W28149   9.815  16.881   5.420  0.1189  0.0030 -0.0805
 9296W        W28150  17.265  17.156  13.013 -0.1377  0.1365  0.0071
 9297W        W28151  15.435  13.148  16.763  0.0037  0.2764 -0.2450
 9298W        W28152   5.624  11.504  16.393  0.0767  0.1328 -0.0986
 9299W        W28153  12.219   5.487   2.537  0.0267  0.2077 -0.1604
 9300W        W28154  11.419  10.798  13.496  0.0163  0.0904 -0.1213
 9301W        W28155   4.205   4.446  14.301  0.0049  0.1519  0.0079
 9302W        W28156   0.233  11.164  17.260 -0.1706  0.0074  0.0646
 9303W        W28157   5.356  12.434  12.561  0.2736  0.0523  0.1379
 9304W        W28158   1.259  14.907  12.166  0.0532  0.0973  0.0003
 9305W        W28159  15.607  14.780  15.458 -0.0479 -0.0506 -0.0595
 9306W        W28160  12.304   7.002  15.408 -0.0711  0.1312 -0.1938
 9307W        W28161   3.105  11.244  13.676 -0.3117 -0.1509 -0.3485
 9308W        W28162   5.006  11.667  14.992 -0.0514  0.1973 -0.3283
 9309W        W28163  15.735   2.098  14.083 -0.0752 -0.0816  0.0549
 9310W        W28164  15.434  12.753  15.425 -0.1084  0.0170  0.1052
 9311W        W28165  14.548   5.248  12.663  0.3057 -0.0986 -0.1617
 9312W        W28166   2.381   5.947  15.342 -0.1871 -0.0626  0.1684
 9313W        W28167   6.583   0.230  12.446  0.1113 -0.1161  0.1328
 9314W        W28168  15.089  11.135   1.061 -0.0440  0.0031  0.0026
 9315W        W28169  14.913   2.054   1.464 -0.3653 -0.0399 -0.1187
 9316W        W28170   0.733  14.778   4.730  0.2204  0.2121  0.2331
 9317W        W28171   9.767   1.884  15.495  0.0758  0.0040  0.3590
 9318W        W28172   4.854   0.327  15.372 -0.1761  0.1893  0.2202
 9319W        W28173  10.311  16.928   5.510  0.1462 -0.0935 -0.0647
 9320W        W28174  12.108   2.940   1.854  0.3157  0.0053 -0.0523
 9321W        W28175   0.048  15.378   0.430  0.1629 -0.1388  0.1247
 9322W        W28176   7.069  14.946  14.929  0.1265 -0.1735  0.1951
 9323W        W28177   2.836  13.982  15.472 -0.1244 -0.0781  0.2533
 9324W        W28178   4.392   6.870   0.358 -0.3302  0.3906 -0.1341
 9325W        W28179  14.457  16.160   3.404  0.2691  0.3436 -0.1857
 9326W        W28180   1.080   1.885  11.781 -0.0433 -0.1013 -0.1347
 9327W        W28181  14.232   1.190  16.284  0.0823 -0.0720 -0.1985
 9328W        W28182   4.181   2.102  13.601 -0.2063 -0.0826 -0.2308
 9329W        W28183  12.760   0.609  15.605 -0.0657 -0.1335 -0.1569
 9330W        W28184   0.020   7.316   3.666 -0.1552  0.3038  0.0404
 9331W        W28185   5.987  11.922   0.976 -0.2670 -0.0667 -0.1366
 9332W        W28186  12.848  16.883  12.219  0.2877  0.1303  0.3219
 9333W        W28187   5.278  13.525   2.316 -0.0570  0.1431 -0.0769
 9334W        W28188  10.150  16.521   5.255 -0.2419  0.2308  0.2390
 9335W        W28189   6.229   1.218   2.923 -0.0903  0.1185 -0.0240
 9336W        W28190  12.312  12.321  17.079 -0.0522 -0.1128  0.2396
 9337W        W28191   7.117   7.717   0.411 -0.2042  0.0782  0.0053
 9338W        W28192   8.454  14.126   3.108 -0.1455 -0.0814  0.1213
 9339W        W28193  12.670   0.593   0.787 -0.1344 -0.0184 -0.2317
 9340W        W28194  13.856  15.742   0.356  0.1521 -0.0656 -0.3545
 9341W        W28195   4.680  13.506   1.274 -0.1185  0.1879 -0.0809
 9342W        W28196  15.602  14.098  14.712  0.1067 -0.4763 -0.0716
 9343W        W28197  16.664  10.150   2.223  0.1939  0.4405  0.0364
 9344W        W28198   2.176  12.294   3.316 -0.3195 -0.1549  0.2168
 9345W        W28199  12.873   0.184  15.906 -0.1667  0.0079  0.2282
 9346W        W28200   5.525   9.482   4.484  0.0411 -0.0064 -0.0319
 9347W        W28201   5.836  14.856   3.507  0.1293 -0.4450 -0.1383
 9348W        W28202  15.408   9.130   4.917  0.2116 -0.0313  0.0052
 9349W        W28203   9.775  14.404  12.349  0.0776 -0.0101  0.0446
 9350W        W28204  11.726   1.912   1.235 -0.0561 -0.2213 -0.2907
 9351W        W28205  11.164  13.125   2.905  0.0638  0.0549  0.0769
 9352W        W28206   4.921   1.553  15.895 -0.2962 -0.0577  0.2500
 9353W        W28207   7.096  13.724  14.602 -0.1486  0.2164  0.0675
 9354W        W28208   5.174  12.009  15.829 -0.3434 -0.0555  0.0569
 9355W        W28209   2.791  11.220   2.043 -0.0581  0.0575  0.0934
 9356W        W28210  17.148  10.778   2.709  0.1620  0.0381  0.2945
 9357W        W28211   5.214  12.713  13.543 -0.1912 -0.2840 -0.0667
 9358W        W28212   5.006   2.641  11.941 -0.0844 -0.1259  0.1035
 9359W        W28213   7.061   9.526   0.663 -0.1334 -0.0095 -0.2356
 9360W        W28214  12.249   8.864   2.681  0.4644  0.1202 -0.2486
 9361W        W28215  10.834   3.756  15.151  0.0913 -0.0223  0.4597
 9362W        W28216  14.220   2.694  13.467  0.0602 -0.0655 -0.2944
 9363W        W28217  14.963   7.155   1.722  0.0768  0.0350  0.0170
 9364W        W28218  12.408  10.901  16.348  0.1322 -0.1016 -0.1493
 9365W        W28219  11.421   9.127   4.165 -0.1704  0.0805  0.1348
 9366W        W28220   6.022   3.980   4.241 -0.4211  0.2245  0.1723
 9367W        W28221   4.700   1.088  14.505 -0.0683 -0.1825 -0.0074
 9368W        W28222  13.888  10.705  13.445  0.0022 -0.0631 -0.0809
 9369W        W28223  16.330   2.285   4.170  0.0468 -0.2371 -0.0048
 9370W        W28224   3.203  16.284   0.980  0.1470  0.0637 -0.2005
 9371W        W28225   6.629   6.338   0.760  0.1519 -0.0524  0.1598
 9372W        W28226   3.842  16.853  12.056  0.1522  0.0523 -0.0641
 9373W        W28227   2.583  11.083  16.254  0.3208 -0.1745 -0.0185
 9374W        W28228   1.028  13.688   2.977  0.3296  0.2269  0.0579
 9375W        W28229  15.455   1.320  15.629 -0.0156  0.3398 -0.0878
 9376W        W28230   8.917   1.165  13.279  0.0640  0.2234  0.1120
 9377W        W28231  14.323  14.088   5.409 -0.0935 -0.1061 -0.1968
 9378W        W28232   1.695   6.107  16.010  0.0324 -0.4312  0.0480
 9379W        W28233   6.070  17.196   3.735  0.0707 -0.1801  0.1152
 9380W        W28234  15.403   7.663  16.416 -0.2088 -0.1068 -0.0305
 9381W        W28235   9.467   3.544  13.850 -0.0004 -0.1323 -0.0344
 9382W        W28236  13.910  12.004   2.088  0.0567  0.1036 -0.0678
 9383W        W28237   2.001  13.705   3.081  0.0112 -0.0684 -0.4254
 9384W        W28238   8.390  16.384   0.938 -0.1098  0.2614 -0.1357
 9385W        W28239  16.007  16.482   1.726  0.2337  0.1604 -0.3645
 9386W        W28240   0.870   7.035   4.203 -0.0201 -0.0664  0.0479
 9387W        W28241  16.653  13.358  17.405  0.2249  0.0347  0.1553
 9388W        W28242  12.006   8.587  16.448 -0.1521  0.0273 -0.0654
 9389W        W28243   1.858  14.540  13.822  0.2810  0.2875  0.0811
 9390W        W28244   5.846   0.382   3.239 -0.4720 -0.0559 -0.3984
 9391W        W28245   1.890   8.314  14.592  0.1682  0.2486  0.1260
 9392W        W28246   9.939   9.570  15.034 -0.1161  0.1830 -0.4221
 9393W        W28247   9.618  13.639   0.106  0.0270  0.0023  0.2907
 9394W        W28248   3.799   6.219   3.659  0.0046 -0.3306  0.1446
 9395W        W28249   9.647   9.946  12.685  0.2840  0.1273  0.0663
 9396W        W28250  15.479   2.506  15.373 -0.2644 -0.0467 -0.1797
 9397W        W28251   1.876  14.611   2.297 -0.0238 -0.0579  0.1281
 9398W        W28252  10.105  10.577   4.241  0.1071  0.3179  0.2186
 9399W        W28253   2.264  12.180   3.941  0.0508 -0.2209  0.3107
 9400W        W28254   7.324   7.922  12.494  0.0498 -0.1914  0.0960
 9401W        W28255   8.952   5.567  16.064 -0.1244  0.1642 -0.3595
 9402W        W28256   0.115   6.199   1.683  0.2264  0.0410 -0.2159
 9403W        W28257  12.012  16.911   1.733 -0.0898  0.0812 -0.0278
 9404W        W28258   8.022  13.945  15.428 -0.0900  0.0071 -0.0903
 9405W        W28259   2.405   7.518  14.968 -0.0296  0.2145 -0.0584
 9406W        W28260   8.019   0.238  17.103  0.1417  0.2852 -0.0351
 9407W        W28261  14.381   5.245   5.997  0.1941 -0.1656 -0.0188
 9408W        W28262   5.313  16.918   1.574 -0.1990  0.2812  0.3032
 9409W        W28263  15.971   4.730   0.232 -0.0193  0.0832  0.0971
 9410W        W28264  10.733  14.462   2.265 -0.1149  0.3936  0.1273
 9411W        W28265  11.074  17.256   4.691  0.1042 -0.3558  0.1401
 9412W        W28266  12.769   0.701   4.450  0.1239  0.0730  0.2344
 9413W        W28267  10.619  17.334   3.802  0.0472  0.1444 -0.0560
 9414W        W28268   0.797  10.609   0.718  0.0661 -0.1036  0.4706
 9415W        W28269  14.770   9.539  17.072  0.0667 -0.0306 -0.2640
 9416W        W28270   4.113   0.382   4.643  0.0575 -0.0666  0.1431
 9417W        W28271   8.843  16.738   2.694  0.1199  0.0216  0.1814
 9418W        W28272   6.256   2.951   4.314 -0.2442  0.0382  0.0022
 9419W        W28273  15.330  16.920  14.784  0.0004  0.1922 -0.0145
 9420W        W28274   5.984  13.989   3.280 -0.2827  0.1105  0.3812
 9421W        W28275   9.505   0.477   0.930 -0.1473  0.4337  0.0375
 9422W        W28276  14.131  16.100  16.383 -0.1900 -0.1170 -0.0301
 9423W        W28277   9.244   6.970  16.112  0.1421  0.1998 -0.1431
 9424W        W28278   3.359  12.491  14.216 -0.0086  0.0388  0.1009
 9425W        W28279   4.706  11.400  16.475 -0.0388 -0.1111 -0.3143
 9426W        W28280  14.510  15.764  16.561  0.2593 -0.0386 -0.1967
 9427W        W28281   2.906   0.464  15.914 -0.0847  0.2203  0.3235
 9428W        W28282   1.932   6.866  13.249 -0.1285 -0.1555 -0.2240
 9429W        W28283   8.775   3.406   2.431 -0.0516  0.3817 -0.0302
 9430W        W28284  16.281   5.179   3.886 -0.2197  0.0039  0.0503
 9431W        W28285   4.737  13.783   1.781  0.1267  0.3718 -0.0262
 9432W        W28286  17.058   7.423   1.755 -0.1146 -0.3522  0.0039
 9433W        W28287   6.898   2.987  14.482  0.0160  0.0847  0.2044
 9434W        W28288   2.931   8.787  14.366  0.0854 -0.1972 -0.4254
 9435W        W28289   5.957  12.433   5.218  0.1980  0.0402 -0.1232
 9436W        W28290  10.753  14.508  16.672 -0.3040 -0.2228  0.1364
 9437W        W28291  16.838   4.957  11.637 -0.0699 -0.1885  0.0523
 9438W        W28292  13.579  10.093   3.995 -0.1330  0.1536  0.1849
 9439W        W28293   2.604  16.162   5.636  0.2759  0.5901 -0.0998
 9440W        W28294   0.661  12.830  13.002 -0.4674  0.4748  0.1657
 9441W        W28295  14.676   6.358  14.287  0.0800 -0.1475 -0.1955
 9442W        W28296  13.791   3.562  17.206 -0.1118 -0.0928 -0.3888
 9443W        W28297  13.282  15.593   3.882  0.2067 -0.0123  0.0302
 9444W        W28298  13.628   1.969  14.959  0.0733 -0.1415 -0.0837
 9445W        W28299  12.786   3.219   4.998 -0.1154 -0.0656 -0.2316
 9446W        W28300   7.651   9.175  16.150 -0.1628 -0.0384  0.2036
 9447W        W28301   9.034  13.508   3.071 -0.1089 -0.1506 -0.0779
 9448W        W28302   7.063  12.277   2.944  0.1576  0.0789 -0.0983
 9449W        W28303  16.189   8.072  15.411  0.0687 -0.1395 -0.0425
 9450W        W28304   8.138   0.857  14.513 -0.0749  0.3263 -0.0184
 9451W        W28305  10.236   6.683   2.970  0.0453 -0.0857 -0.0754
 9452W        W28306   8.139  13.403   1.208 -0.0339 -0.0205 -0.0538
 9453W        W28307   5.338  11.677   4.892 -0.0418  0.0231 -0.0182
 9454W        W28308   9.091   4.240  14.594 -0.1995 -0.0655  0.0258
 9455W        W28309  13.070   9.463  16.041 -0.0091 -0.4252  0.2350
 9456W        W28310  12.323   6.854   0.630 -0.0144 -0.2020  0.0052
 9457W        W28311   1.289   7.839   4.611 -0.0614 -0.1843  0.1660
 9458W        W28312  12.951  14.875  12.243 -0.0420 -0.1625 -0.3556
 9459W        W28313   8.385   7.714  16.856 -0.0487  0.0549 -0.2294
 9460W        W28314   7.557   5.975  13.974 -0.0677  0.2103  0.0991
 9461W        W28315  11.669   6.174  12.203 -0.1736  0.0067  0.0867
 9462W        W28316   0.798  12.417   5.309  0.1936  0.0938  0.0266
 9463W        W28317  17.200  10.804  13.371 -0.1044 -0.3458  0.1860
 9464W        W28318   7.999  15.855   3.724  0.1086  0.1470  0.0763
 9465W        W28319  15.356   6.351  15.935 -0.0808  0.0807 -0.2681
 9466W        W28320   1.221  11.155   2.568  0.1730 -0.1179 -0.1897
 9467W        W28321   5.381   6.302  14.235 -0.0774  0.1523  0.2557
 9468W        W28322   7.698   2.851   5.199 -0.0328  0.2300 -0.1874
 9469W        W28323   4.198   9.455  17.352 -0.3143 -0.2776 -0.0203
 9470W        W28324  12.154   7.600   4.127  0.0730  0.2255 -0.0546
 9471W        W28325   0.869  11.534   0.967  0.1790 -0.1865  0.3224
 9472W        W28326  10.796  11.705   0.522 -0.0370 -0.1722 -0.3637
 9473W        W28327   4.608   2.380   1.268 -0.1377  0.2404  0.2492
 9474W        W28328   3.729   4.509   4.524  0.2729 -0.1572 -0.0343
 9475W        W28329   5.249   9.153   1.451  0.0735 -0.1853 -0.1438
 9476W        W28330  16.521  12.383  15.058  0.3197 -0.0400  0.1072
 9477W        W28331  15.057   9.061  16.576 -0.1253 -0.1624  0.0210
 9478W        W28332   9.855   6.017  16.340 -0.0506  0.1878 -0.0622
 9479W        W28333  15.780   3.887   0.258 -0.2693 -0.1962  0.0898
 9480W        W28334  10.792   5.719  16.762 -0.5030 -0.0372  0.1413
 9481W        W28335  17.246  16.278  12.424 -0.0602  0.1376 -0.0734
 9482W        W28336  16.377   0.108   4.251  0.0749 -0.1163  0.0127
 9483W        W28337   5.155   5.512  16.855 -0.0524  0.0903 -0.1570
 9484W        W28338   8.660  12.238  15.226 -0.0623 -0.2062 -0.3083
 9485W        W28339   3.042  12.072   2.459  0.0083  0.0230 -0.0785
 9486W        W28340  11.127   4.445  16.011  0.2452  0.1284  0.4277
 9487W        W28341  16.087  15.267  14.573  0.1077 -0.0980  0.2591
 9488W        W28342   5.194   5.994   3.742 -0.1083  0.0874 -0.0495
 9489W        W28343   9.835   5.397  12.886 -0.0974  0.1708  0.2745
 9490W        W28344  15.894   7.140  17.055  0.0083 -0.2557 -0.0366
 9491W        W28345  11.450   2.005   2.742  0.0637  0.0031  0.1905
 9492W        W28346  11.485  17.216  14.079  0.0784 -0.2650 -0.2001
 9493W        W28347  14.112  10.423   4.958 -0.0024  0.2224  0.1643
 9494W        W28348  13.655  17.109   0.903 -0.2826  0.3164 -0.0260
 9495W        W28349   3.094  13.343   3.722 -0.1075 -0.1317  0.1692
 9496W        W28350  13.838   0.849   5.129 -0.2082  0.0302 -0.2208
 9497W        W28351  15.462   6.893   5.386 -0.0151  0.0416 -0.2195
 9498W        W28352  12.320  12.898   3.653 -0.2233 -0.2365 -0.1017
 9499W        W28353   7.862  10.074   0.628  0.1183  0.2582 -0.2057
 9500W        W28354  10.949  13.441  15.689  0.0493  0.0650  0.0005
 9501W        W28355   8.671   4.846  14.528 -0.1338 -0.0426  0.1361
 9502W        W28356  13.943   2.074   4.999 -0.0629 -0.0497  0.2362
 9503W        W28357   6.449  12.961  16.586 -0.1496 -0.1918  0.0947
 9504W        W28358   6.482   5.981   2.428 -0.0885  0.0792  0.1052
 9505W        W28359  12.409   0.334  12.376  0.0391  0.0157 -0.0989
 9506W        W28360  11.185   9.832  14.761 -0.0369 -0.1806  0.1678
 9507W        W28361   2.130  15.774   4.896  0.0863  0.1365 -0.2159
 9508W        W28362  15.885  12.731  15.122 -0.0343 -0.1272 -0.0445
 9509W        W28363   8.196   6.852   4.491  0.0056 -0.0311  0.1352
 9510W        W28364   6.105   2.763  17.062  0.1176  0.1952  0.1528
 9511W        W28365   9.105  14.086   2.085 -0.1356 -0.0777  0.1803
 9512W        W28366   0.936  10.621  14.977  0.2126  0.1348 -0.1419
 9513W        W28367  15.686   6.111   1.835  0.0963  0.3472  0.0065
 9514W        W28368   1.828   9.949  14.788 -0.1595 -0.0305 -0.0224
 9515W        W28369  17.301   4.342   4.380  0.0849  0.2174  0.2220
 9516W        W28370   2.855  16.945  15.447  0.0085 -0.3477  0.3871
 9517W        W28371  15.094  12.471   1.080  0.2593  0.1621  0.3164
 9518W        W28372  11.249  10.962   1.086  0.0650 -0.2066  0.0042
 9519W        W28373   0.804   4.859   4.615  0.6324  0.0746  0.1046
 9520W        W28374  13.528  12.807  16.006  0.0079 -0.2130  0.1639
 9521W        W28375  11.304  14.400  16.805  0.0508 -0.0035 -0.1414
 9522W        W28376   1.320   6.732  17.358 -0.1468 -0.1615 -0.3887
 9523W        W28377  17.001   7.181   4.946 -0.0879  0.2083  0.0758
 9524W        W28378   3.036  13.244  16.080 -0.2210  0.2716 -0.2398
 9525W        W28379   1.891   6.904   2.581 -0.2305 -0.1388 -0.0451
 9526W        W28380  13.070  16.297  13.851 -0.3395  0.1127 -0.2982
 9527W        W28381   5.815  10.282  14.794 -0.2722 -0.2606 -0.3520
 9528W        W28382  12.289   8.211  17.116 -0.1044  0.1165  0.1303
 9529W        W28383   6.576   9.406   0.822 -0.2067 -0.2134 -0.0482
 9530W        W28384   1.137  16.404   1.412 -0.1063  0.1495 -0.0431
 9531W        W28385  10.068   1.293  16.115 -0.0947  0.1373 -0.3811
 9532W        W28386  15.310   9.179  14.493 -0.1009  0.0739  0.0341
 9533W        W28387  12.194   3.276   4.670 -0.0309  0.2750  0.1309
 9534W        W28388   0.903  14.140   2.810 -0.0130  0.1903  0.0744
 9535W        W28389   0.629   7.496   1.336 -0.0812 -0.1889  0.1112
 9536W        W28390   7.411  14.399   4.428  0.0523 -0.1150 -0.1216
 9537W        W28391   8.717   6.849   4.531 -0.1550  0.0154  0.1274
 9538W        W28392   3.441   8.486   1.300 -0.2729  0.0686 -0.2204
 9539W        W28393   2.903  16.081  14.366 -0.3587  0.0500  0.1131
 9540W        W28394  14.918   8.930   2.694  0.1822 -0.0791 -0.2309
 9541W        W28395  12.180   7.680   4.796  0.1816 -0.1868 -0.0157
 9542W        W28396   1.171  15.982   5.204  0.2192 -0.0749  0.2451
 9543W        W28397   2.369  13.720  14.009 -0.1497  0.1734 -0.2739
 9544W        W28398   2.061  15.725   1.567 -0.0635  0.1814  0.0991
 9545W        W28399  13.098   7.908  16.222 -0.0059  0.0869  0.1592
 9546W        W28400   3.931   8.300  14.948  0.0402  0.1756 -0.1972
 9547W        W28401  10.090   7.038   5.484 -0.1656  0.0095 -0.1279
 9548W        W28402   9.866  13.379   4.169  0.3451 -0.0783  0.0455
 9549W        W28403   7.429  10.050   3.426 -0.3528 -0.0179  0.1016
 9550W        W28404   6.590   6.736  12.687 -0.0250 -0.1795 -0.1875
 9551W        W28405   7.600   9.906   2.945  0.1546  0.0701 -0.1052
 9552W        W28406   4.549   0.298  16.085  0.0761  0.0721  0.0240
 9553W        W28407   1.131   7.567  16.285 -0.0155  0.2128 -0.0060
 9554W        W28408  15.063   0.630   0.650 -0.0883  0.0063 -0.2202
 9555W        W28409   8.000  16.669   1.875 -0.1179  0.0593  0.1611
 9556W        W28410   3.310   9.217   3.156  0.0253 -0.0589  0.1663
 9557W        W28411  13.710   6.951   3.785 -0.0905 -0.0589  0.1924
 9558W        W28412   0.318  16.241   2.555 -0.3129 -0.0885  0.0458
 9559W        W28413  12.860   5.696   3.376  0.1766  0.0659  0.1111
 9560W        W28414  16.618  17.188   5.137  0.1438 -0.0301 -0.2280
 9561W        W28415   1.449   6.813   2.881 -0.0269 -0.1897  0.0826
 9562W        W28416  12.068   6.443  12.450  0.2774 -0.1529 -0.0180
 9563W        W28417   0.523  14.239   4.099  0.1873 -0.0875  0.0833
 9564W        W28418  15.646   6.070  12.420 -0.0603 -0.0242  0.0226
 9565W        W28419   4.270   3.407  17.303  0.1505  0.2148 -0.1518
 9566W        W28420  14.452   1.486   2.538 -0.1516 -0.0684 -0.3385
 9567W        W28421   2.979  14.932  12.998 -0.1451  0.2061  0.0343
 9568W        W28422   2.148   0.988   1.996  0.1359  0.2526  0.0275
 9569W        W28423   8.990   6.632  17.025  0.0175 -0.0756  0.1628
 9570W        W28424  14.545   8.813  14.656 -0.0256  0.0453  0.0397
 9571W        W28425   7.349  11.577   2.315  0.1784  0.0972  0.3034
 9572W        W28426  15.623   5.428   0.531 -0.2667  0.2162 -0.0780
 9573W        W28427   2.323   6.486   2.656 -0.3338  0.2424 -0.0562
 9574W        W28428  11.528   9.606   4.975  0.0062  0.0887 -0.0722
 9575W        W28429   3.359  14.974   2.136 -0.0549 -0.1435 -0.2019
 9576W        W28430   4.850  13.433  13.398 -0.2842 -0.0542  0.2224
 9577W        W28431   0.142  14.004  13.801  0.0882  0.0452 -0.2022
 9578W        W28432   9.713  14.595  13.222  0.1697  0.2400  0.0969
 9579W        W28433  16.145   3.100   1.140  0.0087 -0.0710  0.1865
 9580W        W28434   3.537  10.324   5.272 -0.0059 -0.0836  0.1949
 9581W        W28435   8.671  12.558   5.182 -0.1346  0.1017 -0.3380
 9582W        W28436  10.756   3.063   5.015  0.0238 -0.0583 -0.0389
 9583W        W28437  14.316  13.369  15.430  0.0769 -0.0562 -0.0157
 9584W        W28438   2.715   9.161   3.949  0.0306  0.2160  0.1059
 9585W        W28439   3.971   6.829   3.806  0.1252  0.0035  0.0409
 9586W        W28440   3.397   5.769  14.090 -0.0603 -0.3136  0.2721
 9587W        W28441   8.943   5.436   2.859 -0.0471  0.0638  0.1633
 9588W        W28442  15.024   1.200   4.985  0.2690 -0.0835 -0.0619
 9589W        W28443  16.429   8.951  17.103 -0.2158 -0.2240  0.2882
 9590W        W28444  16.358  14.721  13.493  0.4238 -0.0512  0.2355
 9591W        W28445   4.997   3.099   1.661 -0.1045 -0.1055  0.2929
 9592W        W28446  17.096   2.172   2.825  0.1193 -0.0437  0.2605
 9593W        W28447  14.113   9.675  13.571 -0.2167 -0.0357 -0.3313
 9594W        W28448   0.030   7.760   1.975  0.1902 -0.2215 -0.1731
 9595W        W28449   7.128  16.903   3.626  0.0565  0.1609 -0.1663
 9596W        W28450   3.191  15.711  15.506 -0.0227  0.1275  0.0391
 9597W        W28451  16.597  15.923  13.766  0.0101  0.0661  0.4171
 9598W        W28452  17.286   2.746   0.229  0.0241 -0.0685  0.0308
 9599W        W28453   7.981   2.642  15.083  0.0946 -0.2136  0.1008
 9600W        W28454   9.942  14.520   3.537  0.2316 -0.3957  0.0262
 9601W        W28455   1.433   1.320   2.949 -0.2663 -0.2660  0.2495
 9602W        W28456   5.796  11.398  12.584  0.0727  0.2318 -0.2098
 9603W        W28457   7.228   4.542   0.945 -0.3046 -0.0984  0.1863
 9604W        W28458   4.655   5.381  14.955  0.0260 -0.1517  0.1483
 9605W        W28459   3.945   8.544   1.403 -0.0955 -0.2884 -0.0432
 9606W        W28460   6.520  16.195  14.894  0.2597  0.3687  0.1273
 9607W        W28461   6.408   7.246   2.819 -0.0327  0.0110  0.0588
 9608W        W28462   4.381   1.510  14.595  0.2013  0.2595 -0.2296
 9609W        W28463  12.991  15.174  14.510  0.3010 -0.1171 -0.1192
 9610W        W28464  14.165  10.713  16.585 -0.0204 -0.1947 -0.0192
 9611W        W28465   5.733  15.191   2.442 -0.2314 -0.0311 -0.0465
 9612W        W28466   5.124  15.075   1.287  0.0506 -0.1221  0.0998
 9613W        W28467  16.032   3.363  14.140  0.4370  0.1674 -0.2024
 9614W        W28468   0.534  15.273  13.635 -0.0947 -0.1718  0.4089
 9615W        W28469  15.451   7.446   0.263 -0.0223 -0.0841  0.0908
 9616W        W28470  13.777   4.984  15.028 -0.1300 -0.1468 -0.1825
 9617W        W28471   8.203   6.963   0.553  0.0097  0.0535  0.0804
 9618W        W28472  10.040  12.987  15.340 -0.0209 -0.0063  0.0516
 9619W        W28473   5.931   9.267   2.374 -0.2786 -0.0204  0.1584
 9620W        W28474   4.913   4.803  12.744  0.0912  0.1538  0.0009
 9621W        W28475  12.190  15.468  14.403  0.0183 -0.2086 -0.4147
 9622W        W28476  12.443  15.372   4.164  0.0889  0.0038 -0.0992
 9623W        W28477  12.096   7.341   1.210  0.1146 -0.2388 -0.1216
 9624W        W28478  16.994  11.246  15.206  0.1078  0.2570  0.2081
 9625W        W28479   9.415   3.082   1.688  0.1128 -0.0131 -0.0574
 9626W        W28480   6.926   5.178   4.898  0.1391  0.0257  0.1279
 9627W        W28481  12.608   5.232   2.361  0.3526 -0.2564 -0.2073
 9628W        W28482  10.733  13.226  14.399  0.0833 -0.2005 -0.0206
 9629W        W28483  11.824  10.429  12.704 -0.1115  0.1086  0.1006
 9630W        W28484  16.897   0.763  14.074 -0.2090 -0.2057 -0.0783
 9631W        W28485   9.906  11.335  12.969  0.1368 -0.2388  0.2598
 9632W        W28486  11.812  12.750   3.829 -0.1900  0.2682  0.2247
 9633W        W28487   7.291   2.503  13.105  0.0288  0.1089  0.1172
 9634W        W28488   4.900  11.161  12.377  0.0935 -0.1992 -0.2410
 9635W        W28489  13.855  11.971  15.276  0.0998 -0.3293  0.2505
 9636W        W28490   8.152  12.112   1.536 -0.1189 -0.0052 -0.1361
 9637W        W28491   8.035   7.044  13.985  0.0269  0.0824  0.2029
 9638W        W28492   8.162   4.722   5.164 -0.4160 -0.0073 -0.0867
 9639W        W28493   1.482   6.593   0.862 -0.0170 -0.0583  0.1162
 9640W        W28494   4.729  15.218  13.405  0.0844 -0.0554 -0.1129
 9641W        W28495  16.386  11.411   4.634 -0.3127  0.0055  0.2255
 9642W        W28496  16.242   0.616   1.254  0.1763  0.0282 -0.0093
 9643W        W28497   4.863   5.627  13.759  0.1256 -0.1986  0.3133
 9644W        W28498   0.851   1.001  14.161  0.2401 -0.3132 -0.1862
 9645W        W28499   1.973   0.776   1.516  0.0298 -0.0152  0.0837
 9646W        W28500  13.236   6.882  15.237 -0.0611  0.4483 -0.0134
 9647W        W28501   8.180  12.995   1.938  0.1577  0.2554 -0.0289
 9648W        W28502   7.826  17.278  14.894 -0.0522  0.3016  0.0808
 9649W        W28503   8.277  10.307   2.432  0.1514  0.0027  0.1328
 9650W        W28504   9.957  15.362   3.518 -0.0841 -0.1399  0.1504
 9651W        W28505   5.034  16.802  15.751  0.0338 -0.1806 -0.1360
 9652W        W28506  14.631   8.424  16.399 -0.1246  0.2492 -0.1004
 9653W        W28507   3.610   8.923  13.866 -0.0465  0.2920 -0.2681
 9654W        W28508  16.359  15.589  17.089 -0.3761  0.0499 -0.2287
 9655W        W28509   5.025   7.976   2.813  0.0861  0.0578  0.0051
 9656W        W28510   8.926   3.553  13.142 -0.1443 -0.0053  0.0046
 9657W        W28511  16.242  16.232   0.356  0.1368 -0.0271  0.1678
 9658W        W28512  14.977  15.631   0.523  0.1519 -0.0052  0.2337
 9659W        W28513  11.810   6.067  15.258 -0.2893 -0.3867 -0.0033
 9660W        W28514  11.339   5.803   1.203  0.0266  0.1439 -0.2611
 9661W        W28515   3.062  16.582  14.507  0.2381  0.3760  0.0940
 9662W        W28516  10.979  16.008  15.774 -0.1192  0.0258  0.0759
 9663W        W28517   8.569  16.197  17.153  0.2219 -0.2175  0.0211
 9664W        W28518   6.597   1.637  15.979  0.1121 -0.2366  0.1749
 9665W        W28519  16.116  12.085   0.026  0.0679  0.0170 -0.4745
 9666W        W28520  16.118  12.972   1.439 -0.1211 -0.0808  0.0929
 9667W        W28521   9.047   0.157  14.415 -0.0155 -0.1577 -0.2055
 9668W        W28522  14.074   7.647   4.004 -0.0769  0.0176  0.0166
 9669W        W28523   2.379   1.132   0.001  0.2360  0.0930  0.1106
 9670W        W28524   9.195  15.853   0.893  0.0574  0.2629  0.0500
 9671W        W28525  12.585   8.093   1.707 -0.0915 -0.0450  0.3328
 9672W        W28526   1.394  15.222  12.665  0.3003 -0.0979  0.1647
 9673W        W28527   9.356   2.709  14.476  0.0652  0.1442 -0.1944
 9674W        W28528   4.738  15.581   3.317 -0.1300 -0.2941 -0.0890
 9675W        W28529   8.538  11.285  15.805  0.0771  0.1213  0.0088
 9676W        W28530   5.904   0.400   5.101 -0.0325 -0.2217  0.0948
 9677W        W28531  15.751   0.033   0.777  0.3262 -0.0691  0.2573
 9678W        W28532  15.978   6.629  13.199  0.3578  0.2745 -0.1884
 9679W        W28533  14.646   2.653  12.492  0.3153 -0.2605  0.0783
 9680W        W28534  16.812   8.987   0.042 -0.0032 -0.0858  0.1546
 9681W        W28535  14.637   9.664   4.965 -0.2283  0.2359  0.0226
 9682W        W28536   4.665   9.120  15.666 -0.0621 -0.0327  0.2280
 9683W        W28537   6.055  16.380   3.527  0.1550 -0.0230  0.0700
 9684W        W28538   0.312   0.014   0.142  0.0699  0.0292  0.1177
 9685W        W28539  13.422  11.074   4.079  0.1327 -0.1095 -0.2997
 9686W        W28540   0.740   6.497   5.146 -0.0992  0.0729  0.2210
 9687W        W28541   2.547  11.286  14.056 -0.0205  0.4208 -0.0533
 9688W        W28542   7.829   4.219  13.487  0.1645  0.0673  0.0216
 9689W        W28543   2.081   9.159   6.410  0.1591 -0.1587  0.1061
 9690W        W28544  14.772   2.460  16.335 -0.0995  0.2019 -0.0300
 9691W        W28545   0.816   1.108   2.655 -0.0203 -0.0891 -0.2292
 9692W        W28546   6.379   4.469  15.456  0.1590 -0.1150 -0.2823
 9693W        W28547  15.872   0.734   0.817  0.1237 -0.0812  0.4057
 9694W        W28548   8.779   1.442   4.665  0.1431 -0.0044  0.2644
 9695W        W28549  12.116   6.597  14.203 -0.0005 -0.1495  0.1194
 9696W        W28550  10.104   3.535  14.693  0.0821 -0.0125 -0.0990
 9697W        W28551   5.598   7.154   4.426  0.0178  0.0213  0.2097
 9698W        W28552  16.929   5.111  13.256 -0.2452  0.2165 -0.3406
 9699W        W28553   3.501   9.022  15.995  0.0351  0.2247 -0.1527
 9700W        W28554   9.592   0.722  14.307 -0.0547 -0.0270 -0.2300
 9701W        W28555   3.771  15.187   5.087 -0.1515  0.0736  0.1034
 9702W        W28556  13.404   8.680  15.903 -0.0953 -0.0579  0.2437
 9703W        W28557   2.220  16.223   3.731 -0.0166 -0.1888  0.1815
 9704W        W28558   0.196  10.630   1.980  0.3801  0.0272 -0.1940
 9705W        W28559  10.508   2.064  14.954  0.3212 -0.2470  0.0656
 9706W        W28560   8.425   6.197   0.887 -0.0275 -0.2497 -0.1032
 9707W        W28561   9.152   8.170  14.669  0.2934 -0.1083  0.3392
 9708W        W28562  17.253   0.778  13.715 -0.0477  0.0120 -0.1003
 9709W        W28563   5.746  17.285   5.215 -0.0301 -0.0876  0.1306
 9710W        W28564  10.636   0.393  12.148 -0.0806  0.1558  0.0206
 9711W        W28565   2.989  16.192   3.652 -0.1626  0.2995 -0.3128
 9712W        W28566  12.801   8.178   4.252 -0.0734 -0.0008 -0.3945
 9713W        W28567  14.529   1.852  12.176 -0.0027 -0.0810  0.0505
 9714W        W28568   1.627  15.996  14.467  0.2097  0.1802  0.0402
 9715W        W28569   4.433   1.573   2.341 -0.2361 -0.2332 -0.0196
 9716W        W28570  10.911   9.837   0.376  0.1380  0.0862  0.2821
 9717W        W28571   4.765  14.311  13.469  0.1543 -0.2426 -0.0856
 9718W        W28572   5.221   4.417   3.158 -0.0420 -0.2535 -0.0257
 9719W        W28573   4.522   2.849  14.641 -0.0156  0.1568 -0.2591
 9720W        W28574   9.430  16.272   0.783 -0.2363 -0.0687  0.0059
 9721W        W28575   3.930  13.897   1.129 -0.0298 -0.2386  0.3508
 9722W        W28576  12.413  11.053   0.397  0.1840 -0.0191  0.3182
 9723W        W28577   1.045   9.262  14.069 -0.2180 -0.1200  0.0144
 9724W        W28578  13.724  10.644   0.926  0.0408 -0.3262  0.2482
 9725W        W28579  15.000  12.789  16.847  0.0548 -0.2943  0.1232
 9726W        W28580  13.600  15.608   4.790 -0.0267  0.0678  0.2651
 9727W        W28581   1.108   4.636  14.792 -0.1743 -0.2645 -0.0589
 9728W        W28582   4.248   0.706   2.522  0.3880 -0.1045  0.0738
 9729W        W28583  15.110   0.580   0.158  0.0358 -0.0989 -0.1635
 9730W        W28584   4.341  14.574  17.266  0.1209 -0.1114 -0.0226
 9731W        W28585   1.566  14.260  14.794 -0.1176 -0.2250  0.3753
 9732W        W28586  16.966   1.693  11.121  0.0288 -0.1752  0.1320
 9733W        W28587   6.365   0.242   4.849  0.5101  0.0349 -0.1721
 9734W        W28588   5.360   2.804  11.617 -0.0246  0.1459  0.0998
 9735W        W28589  10.855  11.049   4.842  0.2060  0.0633 -0.2068
 9736W        W28590  17.271   0.227  13.729 -0.0101  0.0967  0.0774
 9737W        W28591   8.077  15.494   5.283  0.3116 -0.0605  0.3431
 9738W        W28592   5.892   9.114  12.163  0.2863 -0.3096 -0.1048
 9739W        W28593   8.002   7.341  12.747 -0.0119 -0.1788 -0.1254
 9740W        W28594   9.643  14.584  14.862 -0.0127  0.3025  0.1031
 9741W        W28595   3.983   3.896  13.713  0.0382 -0.0580 -0.2226
 9742W        W28596   3.296   6.845   3.152  0.0563  0.1211  0.3117
 9743W        W28597  12.585  10.565   1.702 -0.1478  0.0082  0.1291
 9744W        W28598   7.463   1.051   0.038  0.0080 -0.1387 -0.0711
 9745W        W28599  10.929   6.511   0.269 -0.1037  0.0187  0.2583
 9746W        W28600   8.767   1.476   0.500  0.3131  0.1139  0.2279
 9747W        W28601  13.869  14.319  14.256  0.0520 -0.0346 -0.3035
 9748W        W28602  17.051   5.133   2.636 -0.1602  0.0621 -0.2566
 9749W        W28603   8.454  15.742  16.988  0.1083 -0.0375 -0.2401
 9750W        W28604   0.133   5.577   3.506  0.0755  0.2235  0.0291
 9751W        W28605   4.676   4.516  15.998 -0.0159 -0.0946 -0.0560
 9752W        W28606  15.871  11.320   1.179  0.0657 -0.1771  0.3724
 9753W        W28607   1.479   6.115   2.614  0.0239  0.5675 -0.0511
 9754W        W28608   1.516   6.230  16.508  0.1626  0.0392  0.2161
 9755W        W28609   2.124  13.818  16.831 -0.1391  0.0500  0.1879
 9756W        W28610   6.820  12.976   0.599  0.1622  0.2445  0.0235
 9757W        W28611  15.385  11.826  17.036 -0.2298 -0.2132 -0.2492
 9758W        W28612  11.656   8.312  12.523 -0.0546 -0.1194  0.2307
 9759W        W28613   3.389   3.632  15.102 -0.0447  0.1301 -0.0730
 9760W        W28614   9.528   4.136  16.482  0.1008  0.2557 -0.2246
 9761W        W28615  15.888   7.465  13.473 -0.1234 -0.2154 -0.0625
 9762W        W28616  10.381   8.399  13.218 -0.1090 -0.0011  0.2085
 9763W        W28617   9.746  14.863  13.997  0.0799 -0.1532 -0.0420
 9764W        W28618   9.192  10.097   1.984 -0.1008 -0.0888 -0.1803
 9765W        W28619   3.425   2.346  14.846 -0.1108 -0.0792  0.2453
 9766W        W28620  11.410  11.400   1.169 -0.0239 -0.0442  0.0429
 9767W        W28621   5.397  14.826   1.729  0.1630 -0.0404 -0.1737
 9768W        W28622   2.962   5.494   3.282 -0.1136  0.0291 -0.1348
 9769W        W28623  16.229  16.177  14.592  0.0157  0.0607 -0.0449
 9770W        W28624  17.114  13.724  15.948 -0.4641  0.1157 -0.0331
 9771W        W28625  10.509   1.338   0.502 -0.1385 -0.0063 -0.1459
 9772W        W28626  11.033   6.533   5.077 -0.1225 -0.2370  0.1411
 9773W        W28627   3.135   2.222  12.419 -0.0379 -0.3017 -0.3276
 9774W        W28628  14.013   7.832  16.612  0.1967  0.3176 -0.2474
 9775W        W28629   3.784   0.465   1.895 -0.2152 -0.3508 -0.0964
 9776W        W28630  10.820  15.645  16.184 -0.0836 -0.0363  0.1288
 9777W        W28631  12.909   5.832  14.460  0.3615  0.0353  0.1796
 9778W        W28632   1.724   6.913  15.802  0.1560 -0.0406 -0.2422
 9779W        W28633  17.163  14.923  15.404  0.2397 -0.2793  0.0748
 9780W        W28634   9.486   3.235  13.031 -0.0012  0.0409  0.0497
 9781W        W28635   7.541  15.872   6.705  0.1588  0.0352 -0.1817
 9782W        W28636  11.463   3.430   3.931  0.1297 -0.1277  0.0559
 9783W        W28637   5.138   9.265  15.808  0.1534  0.2922  0.0427
 9784W        W28638   2.086   2.493  14.016  0.0175 -0.0090  0.2917
 9785W        W28639  14.561  13.375  17.207 -0.0830  0.2227  0.0154
 9786W        W28640  12.429   1.582   1.978 -0.2907  0.1095 -0.1596
 9787W        W28641  15.897  12.179  16.972  0.3873  0.2875  0.1048
 9788W        W28642  11.319  11.827   0.893  0.1541 -0.0297  0.2398
 9789W        W28643   9.511  16.316   2.976  0.0730 -0.2331 -0.0038
 9790W        W28644  17.026   3.533   4.586 -0.3576 -0.2359  0.0634
 9791W        W28645   4.517   9.933   3.897  0.1511 -0.0982  0.0893
 9792W        W28646  15.364  13.774  12.065  0.0184  0.0405  0.4645
 9793W        W28647  14.099   8.090   3.550 -0.2960  0.1476 -0.1247
 9794W        W28648  13.668  12.453  14.780 -0.0883 -0.1656 -0.2054
 9795W        W28649   1.248  12.183   0.914 -0.0452 -0.2693  0.1193
 9796W        W28650   7.138  16.989  13.089 -0.1952 -0.3552  0.4010
 9797W        W28651   3.598  12.053  16.685  0.0249  0.0709 -0.2097
 9798W        W28652   2.667  14.916  16.413 -0.1084  0.1271 -0.2177
 9799W        W28653   0.351   1.777  16.228 -0.1278 -0.0675  0.1405
 9800W        W28654   3.105  12.249   0.734  0.1688 -0.2167  0.0001
 9801W        W28655  13.800  11.192   1.022 -0.2233 -0.0245  0.1899
 9802W        W28656   1.447   1.454   1.573 -0.0619  0.0215  0.1351
 9803W        W28657  11.027   8.431   1.137 -0.0402 -0.0728  0.1303
 9804W        W28658   4.880  10.301   3.031 -0.0571 -0.1821  0.0118
 9805W        W28659   4.803   3.680   3.742  0.1378  0.3257 -0.0855
 9806W        W28660   7.406  14.103  15.677 -0.0628  0.0397 -0.3601
 9807W        W28661  12.172   0.736   0.863 -0.0024  0.2072 -0.4228
 9808W        W28662   4.796  12.006   2.785 -0.0234  0.0902 -0.3520
 9809W        W28663  10.402   0.645  14.388  0.2356 -0.0264  0.1451
 9810W        W28664  13.257   1.396  16.453  0.0790 -0.1811  0.0025
 9811W        W28665   0.218   4.625   2.833  0.1171  0.2097 -0.2852
 9812W        W28666  10.352  13.190   4.840  0.4030  0.1887  0.1627
 9813W        W28667   5.913   6.763  16.834  0.0126  0.0628  0.0062
 9814W        W28668   8.841   9.878   0.210  0.0211 -0.0421  0.1237
 9815W        W28669   7.525  15.512   1.070  0.1896 -0.2662  0.2253
 9816W        W28670   9.944  14.612  16.213  0.1979 -0.0993  0.0212
 9817W        W28671   8.262  14.617  13.528 -0.0124 -0.1674  0.2871
 9818W        W28672   2.068   6.789  17.059  0.0633 -0.0215 -0.2345
 9819W        W28673  16.198   5.953   1.812  0.0225  0.5012  0.0066
 9820W        W28674  10.942  15.524   1.588 -0.1996  0.1764 -0.2843
 9821W        W28675   0.010  16.199  13.506 -0.2076  0.0260 -0.0138
 9822W        W28676   2.095   9.792   2.956 -0.2831 -0.1145 -0.2921
 9823W        W28677   1.468  13.934  13.879 -0.3821  0.1737  0.2521
 9824W        W28678   1.059   7.684  15.186 -0.2508  0.0937  0.4255
 9825W        W28679  11.599   9.767  14.441  0.0754 -0.0976  0.1758
 9826W        W28680  10.294  13.323   1.507 -0.0153  0.0369 -0.1169
 9827W        W28681   6.221   6.760  17.307  0.1009  0.2204  0.0198
 9828W        W28682  10.786   1.681   2.273  0.0845  0.1305  0.4210
 9829W        W28683   5.947  11.910   0.003  0.0344 -0.0737 -0.2277
 9830W        W28684   4.478   4.343  11.454  0.2168  0.0859  0.0589
 9831W        W28685   7.283   5.823  14.335 -0.1248  0.0793  0.1846
 9832W        W28686  11.632  11.023   1.406 -0.1267 -0.0533 -0.2209
 9833W        W28687  14.826  16.127   3.077 -0.2104 -0.2980 -0.0895
 9834W        W28688  11.683   1.386  12.166 -0.0916  0.1113  0.0076
 9835W        W28689   0.046  13.268  14.882  0.0339  0.1252  0.3383
 9836W        W28690   3.593   2.620  17.404  0.1274 -0.1028  0.1216
 9837W        W28691  11.722  16.808   5.056  0.1240 -0.0057  0.2658
 9838W        W28692   5.688  10.844   2.703 -0.2616 -0.0085  0.1046
 9839W        W28693  11.208  16.556   0.747 -0.2398 -0.3294 -0.1739
 9840W        W28694  16.400   3.191  12.975  0.3007 -0.2142 -0.1117
 9841W        W28695  16.072   2.999   5.187  0.0954 -0.1063 -0.2248
 9842W        W28696   7.825   0.766   2.079  0.0248 -0.2890  0.1866
 9843W        W28697  16.823   9.698  16.355  0.1041  0.1546 -0.0410
 9844W        W28698   3.858   6.058  16.388 -0.2570  0.0136  0.0690
 9845W        W28699   9.739  11.493  16.409  0.1009 -0.0224  0.0815
 9846W        W28700  10.928   2.701  16.753 -0.0170  0.1810 -0.0438
 9847W        W28701   7.240  15.612  14.436  0.1409  0.2441  0.1128
 9848W        W28702  16.237   5.592  15.749  0.1717  0.0339  0.1316
 9849W        W28703   9.656   8.697   5.072  0.4477 -0.0518 -0.0863
 9850W        W28704  11.155   0.050   0.470  0.3581  0.2238 -0.4232
 9851W        W28705   6.281  12.965   2.143  0.1469  0.1712  0.2154
 9852W        W28706   1.597   6.003   2.119  0.1293 -0.1199  0.1240
 9853W        W28707  14.355   7.363   4.820  0.1585  0.0231  0.0451
 9854W        W28708   0.309  14.672   0.267 -0.0991  0.0647  0.0973
 9855W        W28709  10.261   4.585  14.396 -0.0775 -0.2115  0.1823
 9856W        W28710  14.977   4.388   0.647  0.0873 -0.1242 -0.0621
 9857W        W28711  10.696  12.299  16.497 -0.0675  0.1452  0.0607
 9858W        W28712   9.852   8.087  14.005 -0.2222 -0.2987 -0.0222
 9859W        W28713   7.904   9.626  15.487 -0.1255  0.2329 -0.2520
 9860W        W28714  12.698   3.184  16.967 -0.1629  0.1328  0.2106
 9861W        W28715   7.839  13.549   2.152 -0.1477  0.1176  0.0789
 9862W        W28716  10.563  17.160  14.422  0.0685 -0.0080  0.0614
 9863W        W28717   8.750  11.565  12.255  0.0160 -0.4667  0.1939
 9864W        W28718  10.633   4.375  12.666  0.1827  0.3779 -0.1290
 9865W        W28719   6.150  12.211   2.989 -0.0575 -0.1461  0.0801
 9866W        W28720   3.145  11.070  14.485 -0.0073  0.0471 -0.1658
 9867W        W28721  13.362   0.576  12.869 -0.0682 -0.0295 -0.2933
 9868W        W28722  17.294  12.427   4.958  0.0986  0.3619  0.2595
 9869W        W28723  10.724   7.170   3.183  0.1397  0.0073  0.1521
 9870W        W28724  10.990   2.712   3.877  0.0943  0.2796  0.0516
 9871W        W28725   9.528  13.583   1.543 -0.2247 -0.2803  0.0777
 9872W        W28726   0.824  15.641  16.238 -0.0587  0.0033  0.0623
 9873W        W28727   9.925  10.757  12.409 -0.0072 -0.3744  0.0735
 9874W        W28728   7.928  14.519   3.814 -0.1754 -0.0963 -0.1345
 9875W        W28729   4.316  16.765   4.788 -0.1073  0.0320 -0.1923
 9876W        W28730   9.819  17.037   0.791 -0.2251 -0.0196 -0.1550
 9877W        W28731  12.146   6.310  16.497  0.0012  0.1470  0.1695
 9878W        W28732   1.602   5.740   0.275 -0.2173  0.1271 -0.0966
 9879W        W28733   9.869  15.722  17.376  0.1640  0.0340 -0.1294
 9880W        W28734  16.616  10.602   1.893  0.0009  0.0205 -0.0060
 9881W        W28735   9.300   8.269   1.194 -0.0608  0.0375  0.1999
 9882W        W28736   4.796   0.224  12.601 -0.0130  0.0680  0.1778
 9883W        W28737   9.457   5.937  16.792 -0.0397  0.0270  0.3565
 9884W        W28738   2.343  17.119   1.688  0.2497  0.0072  0.0077
 9885W        W28739   3.105   9.739   5.138  0.0549  0.0212 -0.2315
 9886W        W28740   9.506   6.998  14.715 -0.1973  0.0158 -0.0021
 9887W        W28741   3.873  11.713  13.839 -0.0400 -0.0067  0.1998
 9888W        W28742   6.144  16.041  14.267  0.2086  0.1622  0.0665
 9889W        W28743  15.138  15.765   3.901  0.0518  0.0932 -0.0098
 9890W        W28744  16.426   9.561   5.416  0.2112 -0.1134 -0.1313
 9891W        W28745  12.167  13.004   4.525  0.1713 -0.1691  0.0663
 9892W        W28746   7.028  15.844   3.507 -0.0034 -0.1463 -0.0337
 9893W        W28747  10.723   4.359   5.165  0.0214 -0.0281  0.0745
 9894W        W28748  11.252   7.517   1.518 -0.0704 -0.0599 -0.1731
 9895W        W28749  15.286   7.908  12.694 -0.0269 -0.0040 -0.1944
 9896W        W28750  11.603  14.702  14.061 -0.0004 -0.1791 -0.1048
 9897W        W28751   0.788   1.358  14.532 -0.1457 -0.2075 -0.2893
 9898W        W28752  15.184   1.680  17.326 -0.0617  0.0825  0.0607
 9899W        W28753  11.360   0.629  12.008  0.2192  0.0164 -0.0828
 9900W        W28754  14.528   8.684   1.053 -0.1086 -0.1143  0.2893
 9901W        W28755  11.161   6.227   2.086 -0.2423  0.4991  0.2064
 9902W        W28756   3.392   3.653   2.449 -0.1081 -0.1515 -0.0457
 9903W        W28757   6.237   5.228  13.851  0.2419  0.1826 -0.1145
 9904W        W28758   6.751   5.296  13.768 -0.0646  0.1617  0.1629
 9905W        W28759   8.826  10.458   1.526 -0.3005 -0.4635  0.0263
 9906W        W28760  14.695   0.312  12.461 -0.2546 -0.1248 -0.0851
 9907W        W28761   8.751   0.820  12.416 -0.0319  0.1189 -0.2014
 9908W        W28762  16.254   1.954  14.032 -0.1515 -0.0806 -0.1268
 9909W        W28763  16.839   6.481  14.132 -0.0783  0.2005  0.1061
 9910W        W28764   6.795   8.054   1.598 -0.0845 -0.3597 -0.0816
 9911W        W28765   1.427  17.142  16.894 -0.0299  0.0502 -0.0195
 9912W        W28766   7.688   3.377  15.454 -0.1085  0.3778 -0.1827
 9913W        W28767   3.369   6.315   3.285  0.0485 -0.1082  0.1216
 9914W        W28768  14.393   4.500  14.689  0.0613  0.1046 -0.1356
 9915W        W28769   4.465   0.986   3.794 -0.1564  0.2239 -0.0369
 9916W        W28770   5.446   9.866   1.402  0.0699  0.1063 -0.1021
 9917W        W28771  12.695  14.454  17.006  0.0850 -0.1292 -0.0113
 9918W        W28772   8.537   5.420  17.310  0.2315 -0.1093 -0.0572
 9919W        W28773   8.993  14.464   2.477  0.1346 -0.0349 -0.3278
 9920W        W28774   1.168  17.265  14.681  0.0140 -0.3157  0.2731
 9921W        W28775   5.049  11.437  15.506  0.2633 -0.2293 -0.1025
 9922W        W28776  14.346   8.456   0.244 -0.1373  0.0349 -0.1390
 9923W        W28777   5.647  10.608  17.355 -0.0895  0.2645 -0.2841
 9924W        W28778   0.792   8.005  13.566 -0.2311 -0.0069  0.0579
 9925W        W28779  13.739   8.181   0.809 -0.0832  0.0438 -0.2806
 9926W        W28780  15.420  14.318  16.150 -0.1436 -0.0170  0.0746
 9927W        W28781  17.009   7.882  15.232  0.0872 -0.1935  0.2739
 9928W        W28782  13.126   3.668   0.876 -0.1558 -0.2256  0.1188
 9929W        W28783  14.254   4.359   5.778 -0.1154  0.2210 -0.0135
 9930W        W28784   5.826  11.361  15.011 -0.1283  0.1629  0.0931
 9931W        W28785   3.659   5.359   3.889 -0.1338  0.1087  0.0091
 9932W        W28786   6.260   3.037   1.766 -0.2508 -0.1708  0.1767
 9933W        W28787   8.868   8.793  13.025 -0.1346 -0.1819 -0.0510
 9934W        W28788   5.758   8.397   0.218 -0.1246 -0.0718 -0.1681
 9935W        W28789  16.149   7.173   4.926  0.3153 -0.0969  0.0875
 9936W        W28790  16.630  10.694   4.120  0.0842 -0.1714  0.1160
 9937W        W28791  17.213   8.178   5.035  0.0973  0.2169  0.1863
 9938W        W28792  13.566   6.831   0.151 -0.3152 -0.0936 -0.0216
 9939W        W28793  15.282  14.100  17.014  0.1378  0.2210 -0.0649
 9940W        W28794   8.204   8.996   2.830 -0.0329 -0.0416  0.2706
 9941W        W28795  12.264  10.158   5.019 -0.0239  0.2160  0.0102
 9942W        W28796  14.842   1.292  14.663 -0.0700  0.2175  0.0293
 9943W        W28797   2.184   5.447  12.857  0.2304 -0.0553  0.1593
 9944W        W28798  13.316   9.479  15.252 -0.0306  0.0790  0.3651
 9945W        W28799   7.333   6.444   4.103 -0.1910 -0.1747 -0.1760
 9946W        W28800   0.010  13.965  17.092  0.1630 -0.2116 -0.0710
 9947W        W28801  16.915  16.657   3.048  0.2281  0.0354  0.0270
 9948W        W28802  16.484  14.452  12.719 -0.3114  0.0641 -0.3716
 9949W        W28803  14.861   8.148  15.575  0.2635  0.6819  0.2313
 9950W        W28804  10.272  16.644   2.736  0.1104  0.1110 -0.3294
 9951W        W28805  10.229  16.011  13.500  0.1353  0.1983  0.1835
 9952W        W28806   4.110   1.653  14.168  0.1618  0.3481  0.2645
 9953W        W28807  14.995   5.837  17.163  0.1496 -0.2722  0.0588
 9954W        W28808  15.209   6.150   0.257 -0.1421  0.1011 -0.0926
 9955W        W28809  16.621   4.844   2.632  0.4440 -0.0491 -0.0520
 9956W        W28810  14.340   1.301  14.733  0.0194 -0.0432 -0.2053
 9957W        W28811  12.908   0.491  12.614 -0.0768  0.2731 -0.0137
 9958W        W28812  13.420   2.079  14.092 -0.0315  0.1328  0.1944
 9959W        W28813   5.671   6.622   5.270  0.3677  0.0601 -0.0369
 9960W        W28814  15.554  16.335   2.783  0.2360  0.0793  0.1199
 9961W        W28815   1.936   1.048  16.085  0.1930 -0.1493 -0.1591
 9962W        W28816   1.406   3.316  13.364 -0.0190  0.0925  0.3348
 9963W        W28817   7.292   8.544   3.850 -0.0078 -0.2700  0.0071
 9964W        W28818  11.295   2.481   0.179  0.2019  0.1108  0.2670
 9965W        W28819  13.267  16.508  16.777  0.1682  0.1463 -0.0331
 9966W        W28820   8.721   8.488   2.415 -0.1693  0.0012 -0.0865
 9967W        W28821  13.919  17.117  12.667  0.0538  0.1328 -0.1456
 9968W        W28822   3.764   6.100  14.164  0.1974  0.0789  0.2748
 9969W        W28823   6.042  11.258  16.280  0.1495  0.2385  0.1322
 9970W        W28824  12.743  15.960  17.071 -0.4395 -0.1546 -0.2474
 9971W        W28825  15.804   7.762   2.140 -0.1644 -0.0216 -0.3604
 9972W        W28826   2.263   9.969  14.510 -0.0937  0.0920  0.1307
 9973W        W28827  16.033  10.103  14.115  0.0434  0.0909  0.0545
 9974W        W28828   4.374   9.348  13.598 -0.2043 -0.0805 -0.0866
 9975W        W28829   9.391  16.992   2.746 -0.0605  0.0198  0.1943
 9976W        W28830   6.530  15.202  14.450 -0.0713  0.1023  0.0328
 9977W        W28831   7.009   8.422  13.728 -0.3032  0.0317 -0.0140
 9978W        W28832  11.594   1.994   0.009  0.0468  0.0351  0.2334
 9979W        W28833  11.983   0.039   5.039  0.0960 -0.0504  0.1931
 9980W        W28834   7.703   3.229   0.738  0.1303 -0.0371 -0.0828
 9981W        W28835  15.985  10.867  13.722  0.1518 -0.2976 -0.2189
 9982W        W28836  11.008  12.848   0.793  0.0091  0.4354  0.1511
 9983W        W28837   3.957  12.653   4.980 -0.1164 -0.0626  0.2305
 9984W        W28838  12.464  11.710  16.907  0.1142 -0.0972  0.0782
 9985W        W28839   4.363   4.474  13.799  0.1250  0.0944 -0.0923
 9986W        W28840  14.768   6.884  12.348 -0.0187  0.0970 -0.1900
 9987W        W28841  14.843  10.203  14.928  0.0971 -0.2255  0.0140
 9988W        W28842   6.381   8.022  15.593 -0.0376 -0.1525 -0.0572
 9989W        W28843  12.139  16.144   1.671 -0.4026 -0.0825  0.1560
 9990W        W28844   0.288   4.507  13.157 -0.0655 -0.0343 -0.0084
 9991W        W28845   6.365   2.016   2.430  0.1853  0.1048  0.4540
 9992W        W28846  10.540   6.909   0.599  0.1572 -0.1139 -0.2757
 9993W        W28847   6.377  16.204   3.863  0.1096  0.3039  0.1866
 9994W        W28848  16.821  10.375   2.598 -0.0578  0.0715 -0.2995
 9995W        W28849  16.094  12.834  14.219 -0.2101 -0.3249 -0.4087
 9996W        W28850   3.723  12.523  14.557  0.2324 -0.1572  0.0421
 9997W        W28851   2.721   7.388   1.154  0.3086  0.3097 -0.2003
 9998W        W28852   8.611  12.331  13.970 -0.1567 -0.3579  0.0350
 9999W        W28853   6.362  13.710   0.030  0.0866 -0.0276  0.1318
10000W        W28854   5.527  13.435   5.255 -0.1789 -0.1333 -0.1252
10001W        W28855   3.317   4.583  16.003 -0.1020 -0.0469  0.1769
10002W        W28856   9.154   6.983   2.899  0.1482  0.0975 -0.2264
10003W        W28857   8.955  16.656  12.698  0.2753  0.0058  0.0648
10004W        W28858   6.650  16.177   3.418 -0.0610  0.1619  0.3841
10005W        W28859   3.456  10.967   0.392  0.2573  0.0080 -0.2347
10006W        W28860   5.726  13.469  13.240  0.1194  0.0528  0.3273
10007W        W28861   8.847  16.919   1.502  0.3453 -0.0702  0.2287
10008W        W28862   3.652  16.528   3.392 -0.4044  0.1936  0.0341
10009W        W28863  14.050   0.203  16.154 -0.0790  0.0462  0.2080
10010W        W28864   0.938   9.267   5.389 -0.2826 -0.1136  0.2190
10011W        W28865   3.760   7.195  13.299  0.1183  0.2945  0.3552
10012W        W28866  13.697  16.923  14.333 -0.0458  0.0224  0.1880
10013W        W28867   8.126   5.103  13.635 -0.1200  0.0765  0.2435
10014W        W28868  14.706  11.599  16.894  0.1998  0.3253  0.1587
10015W        W28869   4.457  16.737   2.593  0.3372 -0.0865  0.1323
10016W        W28870   5.970   4.638   3.674  0.0572  0.2277 -0.0849
10017W        W28871   1.292   8.306   4.032  0.0534  0.2672  0.4390
10018W        W28872   1.180  13.531  13.951  0.0462 -0.1643  0.1126
10019W        W28873   8.729   4.470  14.880  0.1514 -0.2780 -0.0163
10020W        W28874   1.702   8.501  16.853  0.0549  0.0195  0.2943
10021W        W28875   9.637  16.746   3.195  0.0638  0.1060 -0.0911
10022W        W28876   3.166  10.820   3.565  0.2141  0.1044 -0.1711
10023W        W28877  11.146   8.034  13.268  0.0466 -0.0249 -0.0447
10024W        W28878   8.171   4.691   4.661 -0.0040  0.0355  0.2851
10025W        W28879   9.532   6.724  12.897  0.1616 -0.0898 -0.3798
10026W        W28880   1.886   8.232  15.099  0.0461 -0.1337 -0.3506
10027W        W28881   3.457   4.487   1.770 -0.0798  0.0034 -0.3444
10028W        W28882  10.699  11.887  16.201 -0.1062  0.2533 -0.1083
10029W        W28883   2.151   3.245  15.655 -0.0806  0.1087 -0.1847
10030W        W28884  16.811   9.224   0.984  0.2120 -0.3114  0.0064
10031W        W28885   6.557   8.679   0.783  0.1322 -0.0440  0.0866
10032W        W28886   0.974   9.355  12.922 -0.1950  0.0128  0.0901
10033W        W28887   4.865   3.747   1.015 -0.1372  0.2979 -0.1613
10034W        W28888   0.655  12.379  17.169 -0.0693 -0.1568  0.0434
10035W        W28889   7.574   2.119   0.447  0.0626 -0.0738  0.0289
10036W        W28890   2.019   9.230  12.400 -0.2497 -0.1123  0.0779
10037W        W28891  10.344   2.902   6.216  0.0242  0.1387 -0.2820
10038W        W28892   2.340   6.646   4.619 -0.1310 -0.0904  0.2407
10039W        W28893   5.453  13.754  13.644 -0.2565 -0.1006  0.2522
10040W        W28894  11.256   4.776   0.244 -0.0529  0.1923  0.2097
10041W        W28895  16.750   2.173   2.006  0.3542 -0.3676 -0.0508
10042W        W28896  11.775   5.603   0.304 -0.0586 -0.0481 -0.0291
10043W        W28897  14.915  12.438  12.981 -0.0343  0.0358 -0.2815
10044W        W28898   8.281   2.415  14.805 -0.0532 -0.1100 -0.2387
10045W        W28899  14.812   8.225   1.921 -0.3007  0.2850  0.3393
10046W        W28900  16.495  14.188  14.288 -0.0300  0.1094  0.0037
10047W        W28901   4.342   4.937   3.281  0.2266  0.1452 -0.0921
10048W        W28902  12.827  16.904  16.723 -0.0849  0.2926  0.0040
10049W        W28903   4.020  15.272   3.374 -0.2393  0.1023 -0.1019
10050W        W28904  15.282  11.016   5.626  0.0447  0.0165 -0.0873
10051W        W28905  14.187   9.057  12.902  0.0725 -0.2937  0.2194
10052W        W28906  11.082  14.976   2.958 -0.2396 -0.2454 -0.0029
10053W        W28907   0.707   5.669   5.088 -0.1755 -0.0147 -0.1652
10054W        W28908  15.911   8.475  13.199  0.0404  0.3494 -0.0240
10055W        W28909   5.798  15.230   4.043 -0.1712  0.5343 -0.3365
10056W        W28910   5.772   4.692  12.418  0.2360  0.3348 -0.0570
10057W        W28911   1.895   7.978   1.167  0.0168 -0.2166  0.2444
10058W        W28912   5.830   9.876   2.927 -0.1071 -0.1124 -0.1768
10059W        W28913   5.342   0.931  12.926 -0.1942 -0.1365  0.2604
10060W        W28914  14.617   9.778   3.853  0.0380 -0.0471  0.2088
10061W        W28915   7.701   3.440  16.829 -0.2381  0.1230 -0.0806
10062W        W28916  12.082   5.111  14.680 -0.1438  0.1081  0.1564
10063W        W28917  16.913  10.533  13.643 -0.1320 -0.0784 -0.0124
10064W        W28918   9.184   9.051   1.831  0.1609 -0.0735 -0.2902
10065W        W28919  10.374  15.915  14.775  0.0696 -0.2836 -0.3064
10066W        W28920  11.768   5.161  15.682  0.0742  0.3897  0.0971
10067W        W28921  14.508  11.243   1.596  0.0168 -0.0694  0.1112
10068W        W28922   1.882  11.575   4.384 -0.1283  0.1301 -0.2587
10069W        W28923   1.519   5.576   2.762  0.2847  0.0282  0.1010
10070W        W28924   7.212   8.332   3.368  0.0223  0.0921 -0.2755
10071W        W28925   9.383   2.510   0.938  0.0626 -0.2281 -0.0806
10072W        W28926   5.970   5.297   2.203 -0.0675  0.0649 -0.3075
10073W        W28927  10.556  11.401   1.732 -0.0294  0.0778  0.0713
10074W        W28928   3.032  16.895  13.921  0.0102  0.0564  0.0260
10075W        W28929  14.482   1.732   4.365 -0.4221  0.0851 -0.2371
10076W        W28930   1.079  16.736   3.526  0.0888 -0.1317 -0.0839
10077W        W28931  17.109   2.357   3.849 -0.2530  0.1349 -0.2508
10078W        W28932  15.134   7.064  13.737  0.0267 -0.0851  0.2113
10079W        W28933  11.772   4.699  13.436  0.0088  0.2565  0.0515
10080W        W28934   6.631   9.969   4.559 -0.2104 -0.0152 -0.0207
10081W        W28935  13.775  15.020  16.247  0.0593 -0.1023 -0.4348
10082W        W28936  12.216  15.245  17.365  0.2050  0.0684 -0.1524
10083W        W28937   8.982  13.073  16.508  0.2013  0.0326 -0.0792
10084W        W28938   5.919   9.284  14.288 -0.0314  0.2642 -0.2192
10085W        W28939  13.599  12.105  12.868 -0.2871  0.0853  0.0651
10086W        W28940   1.308   5.868   1.443  0.2627  0.1069 -0.1607
10087W        W28941   6.121  10.815   4.289 -0.0008 -0.2182 -0.0292
10088W        W28942   3.497   3.456  16.762  0.0445 -0.0865 -0.2585
10089W        W28943   2.240   9.332   3.681 -0.0845  0.1647  0.0330
10090W        W28944  16.726  11.437  12.641  0.0629  0.0345 -0.0144
10091W        W28945   1.758  11.854   3.242 -0.0210  0.2863 -0.1326
10092W        W28946   2.247  16.058   0.239  0.1644  0.2876  0.1210
10093W        W28947  15.596   6.878  16.314  0.2973  0.0805  0.1978
10094W        W28948   1.409   4.131   0.007  0.0813 -0.1611 -0.0719
10095W        W28949   2.054  10.027   0.252 -0.2142 -0.1330  0.0224
10096W        W28950   3.810   9.671  15.452  0.1005  0.0950 -0.2243
10097W        W28951   4.789   9.701   4.828 -0.2094  0.1148 -0.1626
10098W        W28952   6.420  15.730  15.712  0.0881  0.0825  0.1894
10099W        W28953   1.413  11.456   3.276 -0.0334  0.3295 -0.1570
10100W        W28954  17.271   3.170   2.616 -0.1522  0.1550 -0.0470
10101W        W28955   5.546  14.124   2.499 -0.1295  0.0251  0.3464
10102W        W28956  16.894   6.263  14.616 -0.2137 -0.0080  0.0511
10103W        W28957   5.029   9.590   1.569 -0.1456  0.0676  0.0712
10104W        W28958   9.076  10.070   1.203 -0.0895 -0.1005  0.0808
10105W        W28959  14.036   6.108   3.569 -0.3486  0.1394  0.1533
10106W        W28960   3.610   7.875  14.239 -0.0701  0.2301  0.0688
10107W        W28961  15.668   8.503  16.573 -0.0241 -0.0908 -0.0054
10108W        W28962   1.350   9.325   5.060 -0.1427  0.1423 -0.1551
10109W        W28963   6.542  12.347   4.733  0.0912  0.4332 -0.0452
10110W        W28964  17.140  10.732  15.295 -0.1308 -0.1010 -0.1300
10111W        W28965   4.868   7.045   2.839  0.1337 -0.1682  0.0436
10112W        W28966   0.156  10.808  14.452  0.0143 -0.3041  0.0580
10113W        W28967   7.800   1.660  14.348  0.0111  0.3174 -0.2476
10114W        W28968   1.509  10.069   0.007 -0.2141  0.1683 -0.1898
10115W        W28969  17.095   7.573   2.655 -0.3165 -0.2622 -0.1816
10116W        W28970   9.739   1.498  16.773  0.0858 -0.1501  0.1858
10117W        W28971   4.564   4.102   0.126 -0.2244 -0.1852 -0.1015
10118W        W28972  12.796   0.980   3.595  0.1924 -0.2087 -0.1667
10119W        W28973   5.648  14.467  13.035 -0.0823  0.1431 -0.1426
10120W        W28974  12.959  16.188   2.217  0.0020 -0.3133  0.2569
10121W        W28975  11.515  17.256   4.274 -0.1895  0.3748 -0.1753
10122W        W28976  14.956  11.244   0.188 -0.0067  0.0789 -0.0211
10123W        W28977   8.760   2.986   1.494 -0.1033  0.1516  0.0640
10124W        W28978   9.444  11.056   2.522 -0.1568 -0.1729 -0.0298
10125W        W28979   5.375  16.784  16.889  0.2787 -0.0459  0.1206
10126W        W28980  12.990   2.739  13.362 -0.0529 -0.2572 -0.2224
10127W        W28981   3.402   6.557  13.086  0.0614 -0.0824  0.1139
10128W        W28982  10.944  16.516  15.766 -0.0371  0.1110  0.2401
10129W        W28983  15.335  10.000  14.949 -0.1825 -0.0585 -0.2021
10130W        W28984  12.138   3.719  16.580  0.1712  0.0337 -0.1680
10131W        W28985  13.174  17.047   1.726  0.0144 -0.0218 -0.0818
10132W        W28986   8.156   1.805   5.133 -0.2228 -0.3809 -0.2248
10133W        W28987  10.287  14.181  15.939 -0.2635  0.1014 -0.0623
10134W        W28988   9.831   6.283  15.853 -0.0892 -0.0041 -0.1973
10135W        W28989  15.359   3.825  15.632 -0.1055  0.0834 -0.0284
10136W        W28990   6.180   5.095   3.753 -0.2083  0.2913 -0.0196
10137W        W28991  13.334   3.696   4.003  0.1366  0.0939  0.1988
10138W        W28992  13.807   5.777   3.200  0.0835  0.1104  0.2240
10139W        W28993   7.403   5.652   2.281  0.0533  0.2024  0.0753
10140W        W28994   1.143  16.101   1.050  0.0775  0.2545 -0.0709
10141W        W28995  15.279  10.777   0.185  0.2016  0.1921 -0.0607
10142W        W28996   5.684   5.838  15.998 -0.1744 -0.2999  0.0790
10143W        W28997   5.303   5.384   1.667  0.0921 -0.1176  0.1799
10144W        W28998   6.633   3.531  14.184  0.0997  0.3894 -0.3681
10145W        W28999  16.335  16.371  12.308 -0.0471  0.0805 -0.2849
10146W        W29000  12.482   8.878   0.956  0.1465  0.0621  0.2076
10147W        W29001   4.629  11.363  17.380 -0.0826  0.0415  0.0572
10148W        W29002  13.923   3.024   2.764  0.0183  0.0108 -0.4232
10149W        W29003   5.504  16.799  15.302  0.2743  0.1170 -0.3575
10150W        W29004  11.431  15.938   5.185  0.1591 -0.1702 -0.1696
10151W        W29005   3.538  14.673  12.908  0.0388  0.1289 -0.4445
10152W        W29006   7.731   4.822   5.405  0.2130  0.0483  0.1225
10153W        W29007  11.979   8.719   3.359  0.1380 -0.1020 -0.0144
10154W        W29008   3.926   8.657   2.451  0.3021 -0.1666 -0.1028
10155W        W29009  10.429   6.450   0.454 -0.0040  0.2215  0.1014
10156W        W29010   6.245  14.475   1.810  0.2631  0.1668 -0.0140
10157W        W29011   0.522   6.175  12.495 -0.0755  0.1683  0.0767
10158W        W29012   6.898   2.318   4.568  0.3027 -0.2530  0.0749
10159W        W29013   5.014   5.903   0.822  0.1134 -0.1011 -0.2480
10160W        W29014  16.502   7.636   2.546 -0.2903  0.0205  0.1942
10161W        W29015   9.063   0.612   0.840  0.2366  0.0874  0.0381
10162W        W29016  16.295   0.447   3.073 -0.2869 -0.3018  0.4168
10163W        W29017   6.425   1.816  17.161 -0.0383  0.3021 -0.1301
10164W        W29018   9.121   4.549   4.106  0.1855 -0.0795  0.0065
10165W        W29019   3.643   4.016  15.122 -0.0142 -0.0754  0.0411
10166W        W29020   2.930   7.183   4.948 -0.0678 -0.0809  0.1185
10167W        W29021   4.177   2.355  14.631  0.1358 -0.1993 -0.0148
10168W        W29022  12.848  15.660   3.210 -0.2627  0.2481  0.2578
10169W        W29023   3.279  16.348  16.074 -0.0331  0.0650  0.0075
10170W        W29024   0.493   1.592   4.715 -0.1620  0.0114 -0.0993
10171W        W29025   4.051   9.112   4.239  0.0580 -0.1871 -0.0834
10172W        W29026   0.713  10.544  12.798 -0.0959  0.1961 -0.0513
10173W        W29027   6.352  15.004   3.219 -0.0041 -0.0851  0.0032
10174W        W29028  14.894  11.524   1.942 -0.1786  0.3011  0.0486
10175W        W29029   6.097   9.450   1.038 -0.1458 -0.2022 -0.0811
10176W        W29030   5.565  16.203  14.631  0.0820  0.0596 -0.0608
10177W        W29031  10.567   8.406  14.550  0.0420  0.1122  0.0529
10178W        W29032  10.682   3.302  17.395 -0.1528  0.1309  0.2222
10179W        W29033  10.204  13.364   0.616 -0.2223  0.1268 -0.0131
10180W        W29034  15.687   3.249  14.917  0.1126 -0.1357 -0.0385
10181W        W29035  11.155   1.022  14.164 -0.0923 -0.1198  0.0723
10182W        W29036  11.565   3.068  16.127  0.2618  0.0121  0.2834
10183W        W29037   5.138  17.309   2.507 -0.1187 -0.1667 -0.1077
10184W        W29038  16.077   6.187  16.363  0.1360 -0.3942  0.0903
10185W        W29039   0.928   6.561  15.962  0.1742  0.0057 -0.1605
10186W        W29040  16.388   5.353  16.157 -0.0663  0.1032  0.3645
10187W        W29041   4.054  11.704   5.107  0.3184  0.0778  0.1187
10188W        W29042   8.828  10.739  13.100 -0.0690 -0.3813 -0.0504
10189W        W29043  11.145   8.866   0.441  0.0764  0.3188 -0.1688
10190W        W29044   7.127   1.950   4.327  0.2404  0.0045  0.1305
10191W        W29045   0.430  15.751  15.430  0.1801  0.0171  0.2619
10192W        W29046   2.126   2.274  14.491 -0.1968  0.0490  0.1977
10193W        W29047  16.209   6.706   2.913  0.3187  0.0619  0.3229
10194W        W29048  12.199  13.479  13.394 -0.2392  0.1623 -0.2686
10195W        W29049  14.762   6.446  12.528  0.1813  0.0648 -0.0890
10196W        W29050  10.185   3.454  13.565  0.0131  0.1918  0.3219
10197W        W29051  13.675  12.077   3.005 -0.1231 -0.1311 -0.1269
10198W        W29052   9.402  16.943   1.373  0.0797  0.2372  0.0443
10199W        W29053   7.267  14.688  14.532 -0.0592  0.1277  0.1434
10200W        W29054  10.070   5.376   3.525 -0.0018 -0.3355 -0.2340
10201W        W29055  11.852   4.873   2.220 -0.0618 -0.0064 -0.2031
10202W        W29056  13.948   5.560  12.513 -0.0951  0.1867  0.0785
10203W        W29057  11.707   7.056  15.735  0.1059  0.0372 -0.0669
10204W        W29058   6.823   9.203  12.186  0.0357  0.2937  0.0611
10205W        W29059   7.099  15.491   2.409  0.0166  0.0284 -0.1743
10206W        W29060   6.994  10.995  16.385  0.1539  0.0890 -0.0902
10207W        W29061   1.670  16.544   1.248  0.2083 -0.2275  0.1525
10208W        W29062  11.689  13.057  17.162 -0.0154 -0.1995  0.2125
10209W        W29063   6.207   5.533   5.294 -0.2994  0.1022  0.0923
10210W        W29064  12.129  13.964   0.835 -0.2895 -0.0924  0.0489
10211W        W29065   9.402  13.269  16.737  0.2360 -0.1191  0.0357
10212W        W29066  15.086   6.648   1.665 -0.1958 -0.1166 -0.1387
10213W        W29067  10.656  14.616   1.815  0.0972 -0.0358  0.0063
10214W        W29068  13.511   9.255  15.841 -0.1399 -0.0889  0.1500
10215W        W29069  14.255   4.837  15.035  0.0728 -0.0912 -0.1153
10216W        W29070   7.849  13.644   2.679  0.0276 -0.2832 -0.0807
10217W        W29071  11.633   4.801   1.706  0.0539 -0.0717 -0.0967
10218W        W29072  13.989   9.015  15.716  0.1425 -0.2748 -0.0353
10219W        W29073   0.836   6.876  14.036  0.0630  0.0489  0.2401
10220W        W29074   5.515   5.864  12.220  0.2556 -0.3156  0.0330
10221W        W29075   2.038   5.444  11.649 -0.2846 -0.0050  0.0835
10222W        W29076  11.744   1.473  15.145  0.0885  0.3614 -0.2185
10223W        W29077  10.202   2.181   1.224 -0.1869 -0.2035 -0.0148
10224W        W29078   1.139   7.460   1.191  0.1315  0.0646  0.0002
10225W        W29079  16.011   5.344  17.068  0.0410 -0.2326  0.1946
10226W        W29080  11.968   0.434  13.322 -0.0114 -0.0707  0.0484
10227W        W29081  10.966   5.035  14.661 -0.0312 -0.0679 -0.0967
10228W        W29082   8.813  15.831   2.331 -0.0757  0.0630 -0.0052
10229W        W29083  16.922   8.299  14.259  0.3522 -0.0409  0.0308
10230W        W29084   7.677  11.706   3.980 -0.0531  0.0605 -0.0654
10231W        W29085  16.026   2.345  15.526  0.0075  0.0007 -0.1015
10232W        W29086   4.794   4.945   3.968  0.1980  0.1017 -0.2242
10233W        W29087   0.295   8.688  12.423  0.0173 -0.0440 -0.3066
10234W        W29088  10.209   3.688   0.397 -0.4024  0.0796  0.0354
10235W        W29089  12.929   3.986  12.188 -0.0549 -0.3472  0.0801
10236W        W29090  17.124  12.715  16.888 -0.1662 -0.2458  0.0004
10237W        W29091  13.328   0.855  12.397 -0.1610  0.1962 -0.2029
10238W        W29092   6.814  12.360  12.237  0.2743  0.0898 -0.0302
10239W        W29093   5.597  13.933  14.995  0.0296  0.2370 -0.2603
10240W        W29094   3.199   8.105   2.491 -0.0040  0.0235  0.0344
10241W        W29095  13.634  11.533   2.189 -0.0053 -0.0736  0.1632
10242W        W29096   2.948   8.871  16.099  0.0916  0.0152 -0.1898
10243W        W29097  14.332   2.245   1.975  0.2599  0.0310 -0.0019
10244W        W29098  11.155  15.068  15.563  0.2406 -0.1699  0.2385
10245W        W29099  14.958   3.958  12.307  0.0138 -0.1614  0.0101
10246W        W29100   5.665   7.377   0.822  0.2030  0.2152 -0.5165
10247W        W29101   3.513   5.846   0.903 -0.2368 -0.0963 -0.0149
10248W        W29102   1.836  15.993  13.239 -0.0169  0.1867 -0.1054
10249W        W29103  13.959  10.937  13.929  0.0952  0.0229 -0.1660
10250W        W29104   1.375  14.424  13.836 -0.0662 -0.0714 -0.0390
10251W        W29105   2.409  15.749  13.329 -0.0781  0.1457  0.1485
10252W        W29106   6.485  14.180   2.867 -0.1708  0.1410 -0.0052
10253W        W29107  13.495  15.937   3.656 -0.3725  0.3293 -0.1245
10254W        W29108  14.361  11.657   1.935  0.1932  0.0464 -0.3030
10255W        W29109   4.718  15.205  13.868 -0.2029 -0.3127 -0.2656
10256W        W29110  16.037   2.625   2.009  0.4508  0.0239 -0.1447
10257W        W29111  10.284  12.629  16.772 -0.1067  0.0600  0.0304
10258W        W29112  17.322   7.142   2.803 -0.1296 -0.0786 -0.0046
10259W        W29113  11.256  11.653   4.052 -0.2322  0.3089 -0.2083
10260W        W29114   8.444  15.610  13.439  0.0164 -0.1348  0.0097
10261W        W29115   1.528   6.165   4.336 -0.0114  0.2877  0.0680
10262W        W29116   9.302  16.058   2.512 -0.2124 -0.0307  0.0772
10263W        W29117   6.045  10.834  14.898  0.0636 -0.2474 -0.2896
10264W        W29118  12.488   9.485  17.260 -0.1281  0.1178  0.1732
10265W        W29119   4.089  16.934   2.933  0.0640 -0.0781 -0.0039
10266W        W29120  11.777  14.635  14.723  0.1817  0.1958  0.1833
10267W        W29121   1.291  11.677  16.759 -0.3135 -0.1599 -0.0452
10268W        W29122   5.103  13.747  15.413 -0.1309 -0.0446 -0.4194
10269W        W29123  16.956   6.088   4.729  0.1498  0.2358 -0.3622
10270W        W29124   4.024   9.358  16.770  0.1270 -0.1279 -0.0751
10271W        W29125  14.411   7.089   2.363 -0.2089  0.1367 -0.0161
10272W        W29126   6.108   8.863  17.218  0.0370 -0.0371 -0.0281
10273W        W29127   6.678  13.091  16.158  0.0285  0.1227  0.0540
10274W        W29128   2.841   6.108  13.879 -0.2505 -0.2965 -0.0060
10275W        W29129  13.664   9.320  17.007 -0.0552 -0.0722 -0.0115
10276W        W29130   1.679   5.495  13.010  0.1213  0.0075 -0.0862
10277W        W29131   3.267   6.516   4.240  0.1064 -0.2214  0.1136
10278W        W29132  14.751   6.819  14.362  0.0697 -0.0625 -0.1346
10279W        W29133   3.869  16.900  14.555  0.0017 -0.1448  0.0621
10280W        W29134  12.847   3.705   4.161 -0.1674  0.2431  0.4974
10281W        W29135   2.883  17.137   1.668  0.3402 -0.1012 -0.3517
10282W        W29136   0.454   0.417   0.442  0.2058 -0.0256 -0.1225
10283W        W29137  11.982   3.910  12.356  0.1766 -0.0403 -0.0631
10284W        W29138  10.904  16.234  14.809  0.3048 -0.0041 -0.1757
10285W        W29139  13.054  10.110   1.008 -0.2474  0.1687  0.0693
10286W        W29140  12.309   7.393   3.212 -0.1267 -0.4749  0.1746
10287W        W29141  10.096  11.711  12.185  0.1700 -0.0059  0.1092
10288W        W29142  13.076  16.440  13.025 -0.0762 -0.0842  0.4417
10289W        W29143   0.903   4.763  15.613 -0.2200 -0.2434 -0.0251
10290W        W29144   3.257   8.356   2.055 -0.1170 -0.1517  0.3303
10291W        W29145  11.885  11.938   3.637  0.0090  0.2101  0.0497
10292W        W29146   7.714   3.770  13.733  0.1176 -0.1834  0.0879
10293W        W29147   2.184   2.073   3.520 -0.0626  0.0088 -0.2910
10294W        W29148   2.791   5.924   4.262  0.0727 -0.1136  0.0921
10295W        W29149   9.967   2.892   0.315 -0.3146  0.0601 -0.0783
10296W        W29150   4.229   9.445   3.797 -0.1789 -0.1756 -0.1287
10297W        W29151   2.522  15.223  14.094 -0.0578  0.0245 -0.3125
10298W        W29152  16.729   3.125   0.824  0.2094  0.0694  0.1516
10299W        W29153   8.470   2.911  15.470  0.2084 -0.1646 -0.2531
10300W        W29154   6.212   0.030  15.890 -0.2785 -0.2517 -0.2693
10301W        W29155   9.664  10.696  15.228  0.0501 -0.2242 -0.3039
10302W        W29156  15.567   5.044  13.574  0.3599 -0.0866  0.2571
10303W        W29157   0.436  13.453   1.699  0.0392 -0.1189 -0.0949
10304W        W29158   0.421  13.793   4.896 -0.0671 -0.1629 -0.0054
10305W        W29159  12.839   4.591   0.478  0.0434 -0.0365 -0.0016
10306W        W29160   2.934   8.417   4.067 -0.0155 -0.1902 -0.1113
10307W        W29161   6.086  10.949  13.195  0.2236  0.1953  0.0258
10308W        W29162  14.763  11.667   4.931 -0.0404  0.0174 -0.1641
10309W        W29163  16.809   3.406   2.773 -0.0957 -0.0803 -0.0295
10310W        W29164  12.871   3.443   0.005 -0.0636  0.1023  0.1628
10311W        W29165  15.755   7.348   3.988  0.2279 -0.0356 -0.0565
10312W        W29166   1.490  14.914   1.616 -0.3547  0.0969 -0.3033
10313W        W29167   9.088  10.588   1.091 -0.1702  0.1858  0.3273
10314W        W29168  16.660   3.868  16.430  0.1697  0.0265 -0.1703
10315W        W29169  15.434   5.077  12.655 -0.0446  0.0423 -0.0473
10316W        W29170   0.391  15.612  14.455  0.0929  0.1650  0.0420
10317W        W29171  16.823  10.204   1.743  0.2416  0.2696  0.1425
10318W        W29172   0.458  15.632   0.092  0.1844  0.2021  0.1680
10319W        W29173   5.978   8.962   4.532  0.6251 -0.3482 -0.0480
10320W        W29174   1.903  11.379  15.609  0.0233  0.1699 -0.3083
10321W        W29175  15.294  13.304   0.200 -0.2028 -0.0556 -0.2215
10322W        W29176   4.791   5.423   5.237  0.3276  0.1038 -0.0321
10323W        W29177   2.271   0.918  16.387  0.0782  0.2107 -0.0064
10324W        W29178   2.498   4.550   4.143 -0.0718  0.0847 -0.0202
10325W        W29179  11.428   1.273  16.297  0.0600 -0.3398 -0.1579
10326W        W29180  11.878  17.335  14.387 -0.3262 -0.1086 -0.0970
10327W        W29181  14.870  10.120  14.030  0.1096 -0.2156 -0.1578
10328W        W29182  15.851  17.028  12.859  0.0603 -0.0791  0.2793
10329W        W29183   1.322  14.776  14.172  0.2111 -0.0225  0.2621
10330W        W29184   3.116   7.881  13.113 -0.1348  0.1254 -0.2473
10331W        W29185   0.374   0.112  13.555  0.2104 -0.0082 -0.0839
10332W        W29186   5.516   1.910   2.749  0.0727  0.0009 -0.0932
10333W        W29187   8.659  13.802   1.977 -0.0795  0.3817 -0.3524
10334W        W29188  12.589  12.047  15.062  0.2321  0.0725  0.1587
10335W        W29189   7.913   9.257   0.866 -0.1513  0.0256 -0.0291
10336W        W29190   4.747  11.164   5.202 -0.0027  0.3140  0.2422
10337W        W29191   2.798  10.590   3.751  0.2625 -0.2583  0.0563
10338W        W29192   6.038  15.018  17.463 -0.0536  0.3618 -0.2264
10339W        W29193   3.907   0.970  13.585  0.0302  0.0614 -0.0959
10340W        W29194  12.461   8.449   2.498 -0.1220  0.4699 -0.0211
10341W        W29195   6.055  15.219   4.491  0.2122 -0.0641 -0.2965
10342W        W29196   4.759  10.468  16.314 -0.4823  0.3194 -0.0271
10343W        W29197   8.189   1.668   2.052  0.2172 -0.1747  0.0144
10344W        W29198   6.546  10.224   1.319  0.1857  0.0235 -0.4550
10345W        W29199   9.794  14.442  15.382  0.1477  0.0978 -0.0601
10346W        W29200   7.514  11.384   0.738 -0.0050  0.1120 -0.0461
10347W        W29201   9.042  13.997  15.496  0.0587 -0.4329  0.2354
10348W        W29202   3.702   6.355   4.698  0.1274  0.1487  0.1743
10349W        W29203   4.328  13.627   0.884  0.0010 -0.2748  0.0078
10350W        W29204  10.812  11.808  15.332 -0.1936 -0.1293 -0.3177
10351W        W29205   7.738   1.166  12.559 -0.1416  0.4655 -0.0974
10352W        W29206  16.616  11.828  15.788  0.2535  0.1489 -0.1570
10353W        W29207  11.395  16.511  12.584 -0.1887 -0.0011 -0.1069
10354W        W29208   9.717   0.713  17.108  0.1391  0.1662 -0.0908
10355W        W29209   1.501   4.578  13.224 -0.1269  0.2312  0.0711
10356W        W29210  13.126   3.951  16.084  0.1213  0.0252  0.0219
10357W        W29211   9.968   4.928  12.705  0.0645  0.1057 -0.1048
10358W        W29212   4.231   3.214  14.833 -0.0092  0.0303 -0.1038
10359W        W29213  12.491  13.396   2.775 -0.1017  0.0874 -0.3931
10360W        W29214   3.952  10.402  12.443  0.0956 -0.1871  0.0324
10361W        W29215   5.537   8.026  13.493 -0.1682 -0.2345  0.2781
10362W        W29216  14.834   1.904  15.351  0.2578 -0.2812  0.0902
10363W        W29217  13.620  12.457   1.032 -0.0117  0.0559  0.1042
10364W        W29218   8.987   1.988  16.099 -0.1058 -0.1056 -0.1022
10365W        W29219   8.635   5.105   4.574 -0.1018 -0.0087 -0.0205
10366W        W29220  15.134   7.158   2.669  0.3996 -0.1312  0.2293
10367W        W29221   4.534   5.929   1.056  0.0821  0.0645 -0.1483
10368W        W29222  11.456   5.237   2.302  0.3034 -0.0581 -0.1143
10369W        W29223  12.499   4.217   0.401  0.1054  0.0648  0.1319
10370W        W29224   9.961  12.765   1.323  0.0134 -0.2588  0.1347
10371W        W29225   6.364  13.415  15.814 -0.0071 -0.2200 -0.2592
10372W        W29226  11.667   9.003  12.425 -0.0496  0.1639 -0.0944
10373W        W29227   4.790   9.696  15.613 -0.0169  0.1379 -0.0852
10374W        W29228  13.085  11.377  13.804  0.0712 -0.0157 -0.2248
10375W        W29229   9.988  16.279  14.796  0.1681  0.1398 -0.4383
10376W        W29230   8.399  11.413  15.301  0.2159 -0.0703  0.0397
10377W        W29231   8.904   5.453   4.260  0.0336  0.0661 -0.3331
10378W        W29232   2.810   1.858  13.313  0.0907  0.0931  0.0785
10379W        W29233   4.593  16.493  13.510  0.2656  0.0666 -0.3809
10380W        W29234   2.546  13.877  17.165  0.1058 -0.1402  0.2898
10381W        W29235  13.807   1.530   3.315  0.0129 -0.0914  0.0835
10382W        W29236   9.624   6.460   1.616 -0.0830 -0.1154 -0.2748
10383W        W29237   3.505   9.248   0.809  0.1271 -0.3735 -0.0066
10384W        W29238  16.357   9.145   0.206 -0.2543  0.1570 -0.1979
10385W        W29239   9.412  11.158  13.887  0.1483  0.0161 -0.1579
10386W        W29240  15.618  11.392  13.031 -0.0644 -0.1983  0.4128
10387W        W29241   9.021   8.353  16.150 -0.1054 -0.2031 -0.0524
10388W        W29242   1.597   0.772  12.390 -0.0369 -0.2229  0.0832
10389W        W29243   7.076  16.922  16.913  0.0607  0.2042  0.1491
10390W        W29244  15.179   7.120  14.360 -0.1450 -0.0305 -0.0227
10391W        W29245  16.298  10.498  15.517 -0.1003  0.2966  0.1545
10392W        W29246   1.857   6.854   4.490  0.0749 -0.0062 -0.0579
10393W        W29247   9.709  11.137  12.158  0.1023  0.0630  0.0307
10394W        W29248   3.834   5.408   1.420  0.0160 -0.0657  0.1349
10395W        W29249  13.409   1.319   0.951 -0.1204  0.1089 -0.1180
10396W        W29250   4.589  10.799   2.062 -0.1628 -0.0894 -0.0546
10397W        W29251  17.042   7.910   1.576  0.1561  0.0010 -0.1485
10398W        W29252  12.009  13.902  13.659 -0.0570  0.4399 -0.1630
10399W        W29253  10.490   4.767   5.131 -0.0625 -0.0207 -0.0403
10400W        W29254   4.638   7.889   1.573  0.0153 -0.0036  0.1215
10401W        W29255   2.290  16.205  12.054  0.2861  0.3613 -0.1862
10402W        W29256   1.688   7.354  15.592  0.0728  0.2522  0.2245
10403W        W29257   4.188  12.197   5.123 -0.1039 -0.0775  0.0235
10404W        W29258  13.525   5.964  12.480  0.1882  0.1019  0.1092
10405W        W29259   8.913  10.972   2.327  0.0656  0.1201 -0.2186
10406W        W29260  12.253   1.095   1.885  0.2558  0.2421 -0.1861
10407W        W29261  16.416   4.737  17.438  0.0212 -0.1651 -0.2630
10408W        W29262  12.434   1.020  17.379 -0.1273 -0.0657 -0.0532
10409W        W29263   2.762  16.949   0.754  0.3168  0.2225  0.0331
10410W        W29264   2.154  10.788   4.930  0.1117  0.0235  0.1109
10411W        W29265  15.227   1.968   1.002  0.1642  0.1557 -0.0778
10412W        W29266  14.330   5.894  16.600 -0.2263 -0.1033  0.0065
10413W        W29267   4.513  15.324   3.000  0.2212  0.0773  0.1172
10414W        W29268  15.360   6.128  14.063 -0.2207 -0.1155 -0.1907
10415W        W29269   7.182  13.860  12.865  0.1600  0.0672  0.0851
10416W        W29270   9.072   9.810   4.775 -0.1444  0.2150 -0.2458
10417W        W29271  13.804   7.368   3.054  0.1773  0.0082  0.1842
10418W        W29272   9.682   4.763   0.369 -0.0725 -0.1022  0.1412
10419W        W29273   4.436   1.206  15.857 -0.0770  0.2473  0.0846
10420W        W29274  14.466   4.950  16.815 -0.1498 -0.3191 -0.0964
10421W        W29275  11.147  13.542   0.910  0.1504 -0.0142  0.2486
10422W        W29276  15.408   7.424   3.339  0.5551 -0.3286 -0.0279
10423W        W29277  13.233   5.974  14.098  0.0912  0.0361  0.2475
10424W        W29278  14.333  17.334   2.757  0.0081  0.2775  0.0247
10425W        W29279   2.128  16.098   2.351 -0.0961 -0.1993  0.0678
10426W        W29280   6.647  10.262   3.590 -0.2991 -0.0698 -0.0324
10427W        W29281  12.913   7.455  15.963 -0.0966 -0.4007 -0.1538
10428W        W29282  13.186   9.749  15.625  0.1903  0.1720  0.1605
10429W        W29283   1.069  16.173   2.015 -0.0426 -0.1421  0.2594
10430W        W29284  11.221   9.158   4.618  0.1015 -0.2714 -0.2989
10431W        W29285  12.608   7.718   4.466 -0.0613 -0.0772  0.0234
10432W        W29286  12.529  15.131   0.764 -0.0741 -0.0617 -0.3645
10433W        W29287  16.759   5.262  12.540  0.0548 -0.1375 -0.0466
10434W        W29288   5.765   2.925   0.703  0.1330 -0.0541 -0.1638
10435W        W29289   1.256   1.984   3.643  0.1168  0.0306  0.1125
10436W        W29290   5.231   8.273   4.974 -0.1661 -0.2442  0.0437
10437W        W29291   3.522   9.214   4.217  0.1407 -0.2035  0.1954
10438W        W29292   6.139   4.911  12.744 -0.0430 -0.0274 -0.0286
10439W        W29293   2.331  10.315   4.583  0.2539 -0.0472 -0.0727
10440W        W29294  16.487  14.977   1.985  0.0516 -0.0296  0.0474
10441W        W29295   7.767   4.779  12.670 -0.1835  0.2053  0.0586
10442W        W29296   2.294   4.092   4.375 -0.1806  0.1668 -0.2625
10443W        W29297   0.410   7.673  14.838 -0.1564  0.0204 -0.0045
10444W        W29298   4.015  16.195  16.624  0.1029 -0.0705 -0.1805
10445W        W29299  11.015   3.474  12.459 -0.0592 -0.1122 -0.1249
10446W        W29300   3.745   9.556   3.941  0.2188 -0.3207  0.1043
10447W        W29301  16.453   4.309  17.176 -0.2279  0.1580 -0.2815
10448W        W29302  11.826  12.191  13.939 -0.0019 -0.1655  0.0426
10449W        W29303  14.574   1.791  14.606  0.0421  0.0905  0.2630
10450W        W29304   2.342   7.630   3.528  0.0664  0.1538  0.1122
10451W        W29305   8.814   4.004   4.895  0.1118  0.0545 -0.3093
10452W        W29306   4.010   9.902   3.607 -0.0955 -0.0456 -0.2007
10453W        W29307   5.202   4.060  17.306 -0.0157 -0.1642 -0.1526
10454W        W29308  10.145  13.995  15.493  0.2275 -0.0188 -0.0360
10455W        W29309   6.836  11.912  15.278  0.2704 -0.0439 -0.1995
10456W        W29310  10.087  10.940   1.269  0.3107  0.0622 -0.4488
10457W        W29311  13.739   8.976   1.303  0.1183 -0.2371  0.0658
10458W        W29312   5.247   1.831   0.996 -0.2151  0.3885  0.4083
10459W        W29313  14.338   0.509  15.911 -0.2399  0.1098  0.3280
10460W        W29314   9.763  10.641  11.932  0.0743 -0.2736 -0.3634
10461W        W29315  12.167   9.824  13.212 -0.2311  0.0361  0.0136
10462W        W29316  14.740  11.080  13.302 -0.0054 -0.0474 -0.4777
10463W        W29317   4.257  12.725  16.861 -0.0057 -0.1650 -0.1504
10464W        W29318  10.165  13.840   0.934  0.0219  0.0284 -0.0554
10465W        W29319   7.040   2.805   4.145 -0.1238 -0.2331 -0.0613
10466W        W29320   8.351  15.128   0.474  0.2986  0.0583 -0.0328
10467W        W29321   0.975   8.320   2.498 -0.0774  0.1119 -0.2303
10468W        W29322  11.655   1.160   4.261  0.0859 -0.0469 -0.1240
10469W        W29323   6.148   5.216  14.422 -0.2072 -0.2304  0.2540
10470W        W29324   3.704   2.773  13.460  0.3328  0.4059 -0.1721
10471W        W29325   8.888  14.513  15.266  0.0771  0.0750  0.0592
10472W        W29326   4.078   9.165   4.961  0.0143 -0.1286 -0.0717
10473W        W29327   0.567   5.857   4.368 -0.0329 -0.3179 -0.1270
10474W        W29328   6.258  16.928  14.109 -0.0181  0.3307 -0.2366
10475W        W29329  10.424   3.331   3.940 -0.2848 -0.0167  0.0378
10476W        W29330   3.192   5.184   0.439 -0.0726 -0.2324 -0.1478
10477W        W29331  12.051   9.533  16.410  0.0382 -0.0571 -0.0018
10478W        W29332   7.597  11.934  15.579 -0.1604  0.0496  0.2842
10479W        W29333   4.171   2.195  14.110  0.1498 -0.2174  0.1628
10480W        W29334   2.147   8.652  16.716 -0.2292  0.0980 -0.4477
10481W        W29335   7.892   6.894  15.378 -0.0294 -0.0999 -0.0008
10482W        W29336  10.083  16.056  12.326  0.2541 -0.1445 -0.1009
10483W        W29337   9.337  17.067  12.389 -0.2118  0.0910 -0.0948
10484W        W29338  15.492   0.308   3.495 -0.0653  0.0210 -0.1702
10485W        W29339  13.375   6.256  12.888 -0.1349  0.0107  0.0136
10486W        W29340   5.917   8.308  13.675  0.2946 -0.0652 -0.2354
10487W        W29341   6.373  11.768  15.312  0.1503  0.0520  0.2392
10488W        W29342  16.766  16.889  13.518  0.3100  0.2842 -0.1592
10489W        W29343   2.103   0.298   1.677 -0.1016  0.4509  0.1333
10490W        W29344  14.716  14.562  11.850 -0.1312 -0.1225 -0.0955
10491W        W29345   4.759  16.672  14.376  0.0931 -0.0186 -0.2455
10492W        W29346  12.009  15.985   5.966  0.2238  0.2362  0.1879
10493W        W29347   8.163   9.127  15.533 -0.1948 -0.1157 -0.0766
10494W        W29348  10.609   7.932   3.957  0.2281 -0.2297  0.2365
10495W        W29349  11.936  12.116   0.914 -0.1538  0.3218  0.0884
10496W        W29350   1.341  13.766   1.980 -0.0160  0.0245  0.2935
10497W        W29351  12.599  15.393   1.754  0.1333 -0.0449  0.1082
10498W        W29352   3.580   7.745   3.611  0.3376  0.1305  0.2646
10499W        W29353  11.328  12.290   5.069 -0.1774  0.2988 -0.0923
10500W        W29354  17.341  12.477  13.783 -0.0327 -0.1638 -0.0747
10501W        W29355   6.432   8.089  13.052  0.2832 -0.0961 -0.1213
10502W        W29356  17.280   6.274  13.874  0.0376  0.0519  0.1353
10503W        W29357   8.021   6.480  13.153  0.1188 -0.0210  0.0472
10504W        W29358   0.468  13.953   1.529  0.1563  0.1992 -0.2955
10505W        W29359   5.813  12.961   1.939 -0.3831  0.3542  0.0414
10506W        W29360  17.223  16.319   2.894  0.0163 -0.1218 -0.0171
10507W        W29361   1.356  16.485   3.112 -0.1185  0.4608 -0.0817
10508W        W29362   5.563  11.266   3.073 -0.2164  0.0970 -0.1182
10509W        W29363   5.704  13.178  17.045 -0.1707  0.0839  0.1115
10510W        W29364   7.073  12.214   1.394 -0.1558 -0.1090 -0.2371
10511W        W29365   9.466   6.794  16.973 -0.1668 -0.2538 -0.0279
10512W        W29366  13.970  15.665  12.335 -0.2786  0.1297  0.1162
10513W        W29367  11.984   7.689   3.523  0.0080 -0.1299  0.3805
10514W        W29368  14.385  13.563  16.763  0.0413  0.1918 -0.0875
10515W        W29369   7.224   2.690   3.141 -0.0308 -0.0368  0.1833
10516W        W29370  13.994   4.092   1.919 -0.0399  0.0001  0.2471
10517W        W29371  12.466  14.152  15.315 -0.1258 -0.1136 -0.0067
10518W        W29372  14.478   0.100  16.945  0.0408 -0.2299 -0.0652
10519W        W29373   7.079  14.121   4.247  0.0710  0.2498  0.0526
10520W        W29374   8.952  11.874   2.577 -0.1819 -0.0403 -0.1033
10521W        W29375   3.835   7.131  13.815 -0.1410  0.0579 -0.1484
10522W        W29376   5.019   4.011   3.407  0.0566 -0.0319  0.1025
10523W        W29377   0.891   9.969   4.672 -0.3180  0.0701  0.0314
10524W        W29378   3.182  11.724   2.863 -0.2757  0.1773 -0.0627
10525W        W29379   9.813   5.916  13.887 -0.1074  0.2445  0.3360
10526W        W29380   9.902   9.038   4.707  0.0773 -0.1693 -0.2143
10527W        W29381   5.038  17.171  12.799 -0.0291 -0.0420 -0.0758
10528W        W29382   4.112   9.245  14.743 -0.1485 -0.0961 -0.0471
10529W        W29383   6.074   6.391  15.255 -0.0490 -0.0261 -0.0714
10530W        W29384  10.647   3.057   5.494  0.0165  0.1552 -0.0915
10531W        W29385   1.128   0.631  13.989 -0.1141  0.0801 -0.3613
10532W        W29386   7.028   9.371   5.199  0.2109 -0.0144 -0.0510
10533W        W29387   5.909   4.912   4.691 -0.1642 -0.0349  0.4198
10534W        W29388  11.988   1.361   4.629 -0.0220  0.1185 -0.2613
10535W        W29389   7.488  10.006   0.261  0.0935  0.1331 -0.1689
10536W        W29390   0.026   3.070  15.068 -0.2769 -0.0536  0.1312
10537W        W29391  16.325  15.206  13.463  0.1281  0.0433  0.2154
10538W        W29392  13.844   9.228   4.301 -0.1155  0.0381  0.6159
10539W        W29393  16.480   1.606  13.575 -0.3128  0.1732  0.1213
10540W        W29394  14.295   6.858  16.287  0.1110 -0.3573  0.0362
10541W        W29395  11.915   7.967  12.893  0.1626  0.0924 -0.1790
10542W        W29396   4.852  13.851  16.485 -0.1722  0.1436  0.1173
10543W        W29397   1.365  10.347  16.987  0.0724  0.1253 -0.2166
10544W        W29398  11.518   8.623  16.484  0.1730 -0.0125 -0.1159
10545W        W29399   5.204   6.058  12.567 -0.1208  0.2512 -0.1663
10546W        W29400   2.020   5.538   0.919 -0.0123  0.0437  0.1652
10547W        W29401  10.504   2.092   0.262 -0.1948 -0.0150  0.3546
10548W        W29402   6.940   3.800   1.952 -0.0013 -0.1462  0.0511
10549W        W29403   5.744   3.626  12.980 -0.1628  0.1119  0.0183
10550W        W29404   1.213  13.153   2.024 -0.2068  0.2335 -0.0504
10551W        W29405  13.434   7.139  16.036 -0.1697 -0.1271 -0.1666
10552W        W29406   0.932  11.821  12.503 -0.0295 -0.2148  0.0009
10553W        W29407  14.386   5.387   0.538  0.1488 -0.0419  0.1285
10554W        W29408   5.228   1.148  15.451 -0.0287  0.0360  0.0508
10555W        W29409  10.479  14.582  16.222  0.0937  0.2039  0.0213
10556W        W29410   1.079   7.455   4.255 -0.3681 -0.1610  0.2586
10557W        W29411  16.266  17.012  17.152  0.0988 -0.0526  0.0226
10558W        W29412   3.606  16.088  13.826 -0.0027 -0.1525  0.3053
10559W        W29413  14.623   5.012  14.707 -0.0244 -0.0337  0.0525
10560W        W29414  14.833  15.634  13.761 -0.1934 -0.2407 -0.0717
10561W        W29415   1.839   1.607   1.919 -0.2810  0.1035  0.4054
10562W        W29416  10.163  13.314   3.277 -0.0394  0.2077  0.0553
10563W        W29417  16.002   7.660   5.697  0.0677  0.0422  0.3060
10564W        W29418   5.448   8.115   4.391  0.1078  0.1863  0.1044
10565W        W29419   3.758   6.663  13.447  0.2294 -0.1402 -0.0793
10566W        W29420  13.215   3.204  12.742 -0.0812  0.1504 -0.0388
10567W        W29421  15.061   9.840  15.982 -0.0710 -0.2976  0.0213
10568W        W29422  15.060   3.154   1.355  0.0784  0.1555  0.1926
10569W        W29423   7.862  12.903  13.157  0.1288  0.0003  0.1125
10570W        W29424   8.735   2.309  13.382 -0.3123  0.1988  0.1239
10571W        W29425   5.335  11.362  14.469 -0.0975  0.1594  0.0838
10572W        W29426   2.252   5.685  13.565  0.2526 -0.2926 -0.0313
10573W        W29427  10.983   7.392   1.928  0.1113 -0.0004 -0.0306
10574W        W29428   2.709   6.147   1.272  0.0999  0.0852  0.0512
10575W        W29429   0.118   3.009  12.801 -0.2209  0.1196 -0.0431
10576W        W29430  12.033   5.139   0.299  0.5315  0.0312 -0.1055
10577W        W29431  14.100   1.630  16.116 -0.0210  0.0389 -0.4884
10578W        W29432   7.109  10.884   5.625  0.2430  0.0391 -0.0834
10579W        W29433   1.215   3.531  12.386  0.0441 -0.1721  0.1366
10580W        W29434   7.587   5.450  14.314 -0.0020  0.0317 -0.1288
10581W        W29435   9.021   0.661  13.270  0.0131  0.1806 -0.1298
10582W        W29436   1.627  16.001   1.374 -0.1886  0.0564  0.1439
10583W        W29437  17.173   3.491   0.442 -0.0227 -0.0329 -0.1620
10584W        W29438  14.000  15.403   5.009 -0.0680  0.1365  0.1741
10585W        W29439   9.992   1.910  16.789 -0.0193 -0.2560  0.0349
10586W        W29440   0.935  12.246   3.039  0.2541  0.1891 -0.0126
10587W        W29441  11.289   3.866  13.868 -0.0361  0.2760  0.0403
10588W        W29442   6.182  11.429   0.903  0.1086 -0.2058 -0.2418
10589W        W29443   2.194  15.233   4.696  0.0285  0.1325 -0.0272
10590W        W29444   6.346  12.875   2.617 -0.1834  0.0177 -0.0322
10591W        W29445  10.583  10.104   3.745 -0.1220 -0.0915 -0.2945
10592W        W29446   4.070  14.998   4.245  0.0130 -0.4270 -0.0766
10593W        W29447   2.468  14.389   1.529  0.0600 -0.0322 -0.1124
10594W        W29448  11.912   4.175  14.740 -0.0258  0.0408  0.0272
10595W        W29449  10.083   8.617   0.705 -0.3419 -0.0561  0.2279
10596W        W29450   9.737  12.855   0.816 -0.3182  0.1410  0.2813
10597W        W29451   3.101   9.775  15.890  0.1057 -0.2962 -0.0659
10598W        W29452   4.029  12.911  16.422  0.5038 -0.1171 -0.3196
10599W        W29453  15.262  16.864  16.206  0.0865  0.3289  0.0189
10600W        W29454   1.137   4.792   5.010 -0.1743  0.2977 -0.1546
10601W        W29455  14.108   8.919   0.567 -0.1597 -0.0637 -0.1685
10602W        W29456   2.892  16.082  15.880  0.0680 -0.0784 -0.1722
10603W        W29457  15.285   3.736  16.804  0.1694 -0.0068 -0.1309
10604W        W29458  11.074  11.090   2.494  0.1975 -0.0456  0.1116
10605W        W29459   0.965  15.146  13.448  0.2424 -0.2278  0.2007
10606W        W29460  12.847   8.339   4.792 -0.2598 -0.1124  0.0098
10607W        W29461   7.640  10.321   0.964  0.1238  0.2893  0.1118
10608W        W29462   2.957   3.639  15.471  0.0869  0.1404  0.2650
10609W        W29463   2.939  17.191  14.970  0.1473  0.1110  0.2192
10610W        W29464  14.750  13.583  16.221  0.0362 -0.1246  0.1474
10611W        W29465   7.642   3.960   0.194  0.0936 -0.7154  0.0199
10612W        W29466   3.111   5.871  12.494  0.0850 -0.1246  0.0998
10613W        W29467   1.737  13.859  11.960  0.3339  0.1052  0.0675
10614W        W29468  10.673   1.813  14.188  0.3654  0.1353  0.0460
10615W        W29469   4.896  10.775  12.701 -0.0418 -0.0589 -0.0658
10616W        W29470   7.720  12.791  15.311  0.0259 -0.0413 -0.0454
10617W        W29471   3.152  12.369  16.545 -0.0638 -0.0494 -0.3222
10618W        W29472  15.032   7.049  16.619 -0.1373  0.1099  0.0776
10619W        W29473   8.625   0.814  13.496 -0.0058  0.2618  0.1208
10620W        W29474   1.577   1.707   0.332 -0.1630 -0.0439  0.0821
10621W        W29475   3.377   4.103  17.066  0.1484 -0.0907  0.2594
10622W        W29476  15.948  15.496   2.752 -0.1102 -0.0489 -0.1406
10623W        W29477   2.693  12.239   2.150  0.0656 -0.3091 -0.1052
10624W        W29478  11.198  15.479   0.127 -0.1261  0.0594 -0.0544
10625W        W29479   3.728  16.657  16.552  0.2437  0.0335  0.0671
10626W        W29480  10.156   1.948   2.507  0.5852 -0.0419 -0.5884
10627W        W29481   9.298   7.996   2.744 -0.0935  0.2433  0.0331
10628W        W29482   0.739   8.984  16.626  0.0045  0.0383 -0.0822
10629W        W29483  12.740   5.272  12.537 -0.0722  0.3291  0.2544
10630W        W29484   3.164   2.372  15.292  0.0205 -0.0786 -0.0369
10631W        W29485   2.432   9.297  15.517 -0.1483  0.1070 -0.0680
10632W        W29486  12.380   5.104  12.835 -0.1436  0.5195  0.0656
10633W        W29487   0.897   6.016   0.142  0.3947 -0.0371 -0.4572
10634W        W29488   2.267  14.504   1.041  0.1131 -0.0257  0.2087
10635W        W29489   4.075  10.430  13.034 -0.0846 -0.0330  0.1769
10636W        W29490   0.033  15.182   5.265  0.1471  0.2032 -0.1220
10637W        W29491  10.028  15.926  13.018  0.3222  0.1970 -0.1291
10638W        W29492   8.079   6.460   2.907 -0.6884  0.0203  0.3278
10639W        W29493  10.655  10.501  14.912 -0.0786 -0.0685  0.0729
10640W        W29494  11.113   5.650  15.359 -0.0242 -0.0507  0.2692
10641W        W29495  16.356   8.741  13.265 -0.1794 -0.0400 -0.1565
10642W        W29496  11.387   0.027   0.931 -0.0654  0.3911 -0.1950
10643W        W29497   9.128  15.437   2.715 -0.4270 -0.1000  0.2481
10644W        W29498  12.075   6.055  14.265 -0.1162  0.1589  0.2145
10645W        W29499  10.823   8.951   5.009  0.0846  0.2366  0.1748
10646W        W29500   8.190   7.303  17.020  0.0579  0.2733  0.1356
10647W        W29501   9.043  11.739   3.101  0.1369  0.0796 -0.0462
10648W        W29502   2.290  16.261  15.601 -0.1160 -0.0024  0.0079
10649W        W29503   0.633   3.631   1.510  0.2729 -0.1486 -0.0850
10650W        W29504   2.797   6.521   4.036  0.0899 -0.3283  0.3066
10651W        W29505   2.302   0.983   4.322  0.1355 -0.0092 -0.3160
10652W        W29506   6.660   7.616  13.287  0.0173  0.0499  0.1304
10653W        W29507   6.770   0.380  16.368  0.2203 -0.0246  0.1302
10654W        W29508   6.698   7.171   3.187  0.0119  0.0333  0.1828
10655W        W29509  16.569   5.163  16.576 -0.2123 -0.1882  0.3109
10656W        W29510   0.311  17.129  12.659 -0.1709 -0.3941  0.1814
10657W        W29511  15.208  16.259  16.879  0.0432  0.1859  0.3741
10658W        W29512  10.820   5.602   2.748 -0.0147 -0.1474 -0.1885
10659W        W29513   1.658   2.447   1.638  0.1845 -0.0833 -0.3872
10660W        W29514   2.523   9.680  16.731  0.0742  0.0592 -0.2272
10661W        W29515   2.435   4.228   5.967  0.1032  0.0741 -0.0041
10662W        W29516   9.107   6.994   5.645  0.1745  0.1878  0.1172
10663W        W29517  17.112   0.968   1.505 -0.3036 -0.1336 -0.2276
10664W        W29518   4.359  15.961  12.467 -0.2325  0.0264  0.0420
10665W        W29519  13.323  15.328   5.139 -0.0657  0.0450  0.4642
10666W        W29520  13.320   9.299  14.014  0.0021 -0.1784  0.0022
10667W        W29521   4.132   2.720   4.913 -0.3038  0.2843  0.2705
10668W        W29522  10.004  16.181   4.419  0.0663 -0.1043 -0.1172
10669W        W29523   3.499   0.611   1.183  0.1667  0.5505 -0.2644
10670W        W29524   1.186   6.126  15.645  0.0299 -0.1101 -0.0067
10671W        W29525  17.230   6.741   2.446  0.2556 -0.1439 -0.2988
10672W        W29526   9.921   1.751  12.272  0.0407 -0.2624 -0.0938
10673W        W29527   3.439   3.109  14.223 -0.3412  0.2111  0.1040
10674W        W29528   0.932  14.625   3.839 -0.2832 -0.2430 -0.2685
10675W        W29529  15.683   1.615   1.921  0.2551 -0.0608 -0.2197
10676W        W29530   0.792  14.687   0.510 -0.1170  0.3294 -0.1442
10677W        W29531  17.310  13.377  16.236 -0.3002 -0.0304  0.2172
10678W        W29532  13.815  16.428  13.412 -0.1825  0.1050 -0.1775
10679W        W29533   1.470  11.813   4.134 -0.0233  0.1689  0.4295
10680W        W29534   5.509  13.294  14.653 -0.2105 -0.2458  0.0753
10681W        W29535   9.927  11.598  11.709  0.1253 -0.0059  0.0453
10682W        W29536   0.930   5.667   4.063  0.0038  0.0553  0.0103
10683W        W29537   8.131  13.471  15.970  0.0433 -0.0209 -0.1555
10684W        W29538   5.623  13.264  12.241 -0.0883 -0.0176  0.1999
10685W        W29539  10.800  13.617  12.177 -0.0845 -0.3059 -0.1253
10686W        W29540  15.726  15.271  11.763  0.0826 -0.0988 -0.3690
10687W        W29541  10.950  15.191   4.778  0.0671 -0.3045  0.1481
10688W        W29542  11.509   6.632   2.284 -0.3475 -0.0302  0.0845
10689W        W29543   2.852   2.000   1.285  0.1782 -0.0166  0.2043
10690W        W29544   8.949  11.645  12.863  0.1978  0.3778  0.2808
10691W        W29545  15.823  14.572  17.002 -0.0875  0.1366 -0.0785
10692W        W29546   3.616  16.731   4.723 -0.1926 -0.2268 -0.1000
10693W        W29547   1.262   1.536  14.664  0.2257 -0.1047 -0.0981
10694W        W29548   0.075   8.624   0.865 -0.0597 -0.0279  0.2132
10695W        W29549   7.690   0.644   3.461 -0.1390 -0.0608  0.0032
10696W        W29550   7.230   1.946  15.280  0.2058  0.1420  0.0503
10697W        W29551   6.681  15.382  12.903 -0.0032  0.3056  0.0551
10698W        W29552   2.908   8.414   3.571  0.0293 -0.1800  0.0678
10699W        W29553   7.911   8.365  15.080 -0.0719 -0.3162 -0.0183
10700W        W29554   3.379  10.495   0.549  0.0121  0.0853 -0.1892
10701W        W29555   0.649   5.629  17.461 -0.3637 -0.0830  0.0468
10702W        W29556   1.478   4.515   1.915  0.0104  0.3522  0.3250
10703W        W29557  14.672   8.521   1.494  0.0903 -0.0553 -0.2157
10704W        W29558   1.589   3.637   1.247 -0.2517 -0.3382  0.2892
10705W        W29559   4.704   4.278  13.436 -0.0687 -0.2686  0.1576
10706W        W29560  14.163  16.582   4.132 -0.0904  0.0534  0.1978
10707W        W29561   4.749   4.033   2.307  0.1357  0.2585 -0.2352
10708W        W29562   0.975  15.172   2.329 -0.0721  0.2365 -0.1445
10709W        W29563   0.444   0.194   4.284  0.1199  0.0444  0.0321
10710W        W29564   0.811  11.523   4.606  0.0758 -0.0744 -0.0792
10711W        W29565  16.019   8.707   1.640 -0.0861  0.1363 -0.1941
10712W        W29566  13.805   3.490   2.592 -0.0268  0.3596 -0.1084
10713W        W29567  13.599   1.860   2.306  0.2782  0.1074 -0.3136
10714W        W29568  12.678  14.016  15.921  0.1162 -0.3103 -0.3859
10715W        W29569   5.621   4.263   0.355 -0.1756 -0.0402 -0.0298
10716W        W29570   3.088  12.815   4.903  0.1876  0.0497 -0.1750
10717W        W29571   9.754  16.323   3.939 -0.5511 -0.0430  0.1504
10718W        W29572  10.377   6.193  16.100 -0.0379 -0.0850  0.1779
10719W        W29573   0.709  16.492  14.539  0.2669 -0.1112 -0.1021
10720W        W29574   7.247  10.533  16.727  0.0455 -0.1667 -0.1087
10721W        W29575   3.034  12.230   2.966 -0.0205 -0.1710  0.2895
10722W        W29576   7.329  10.576  15.094  0.0405 -0.0415  0.0581
10723W        W29577  10.805  15.386   2.925 -0.2184  0.0305 -0.1451
10724W        W29578  12.269  16.667  15.234  0.2763 -0.3895  0.0622
10725W        W29579   3.391   7.061   2.480  0.0014 -0.0775 -0.0254
10726W        W29580   7.396  15.326  14.802 -0.0357 -0.2760 -0.5412
10727W        W29581  17.174  17.254   2.273  0.1594 -0.1994 -0.0070
10728W        W29582   8.344  15.433   0.919 -0.0298  0.3396  0.0311
10729W        W29583   5.205   8.560   4.491  0.0857  0.2358  0.0759
10730W        W29584  16.995   8.838  16.223 -0.5028  0.4215 -0.3210
10731W        W29585  16.990  12.319  15.070 -0.0655 -0.0898 -0.2582
10732W        W29586  15.824  10.865   1.341 -0.0682  0.0979  0.3764
10733W        W29587   1.700   9.898  15.678 -0.0665 -0.0258  0.1074
10734W        W29588   1.727   8.870  11.387 -0.1632  0.1952  0.0991
10735W        W29589   7.820   3.284   4.446 -0.0251 -0.2140  0.2626
10736W        W29590   1.008  14.194   0.370  0.1652  0.1224 -0.2525
10737W        W29591   6.219   0.241   3.973 -0.0098  0.0757 -0.1188
10738W        W29592  17.296   9.074   0.600  0.1421 -0.0883  0.0583
10739W        W29593   4.638  13.585   5.189  0.2037  0.1441 -0.3626
10740W        W29594   1.874  12.695   4.665 -0.0458 -0.0840  0.0570
10741W        W29595  12.408  15.729   0.007 -0.2431 -0.0899 -0.0672
10742W        W29596  13.168   6.798   3.693 -0.0369 -0.0234  0.1657
10743W        W29597   5.375   0.443   3.307  0.0609  0.3367 -0.0575
10744W        W29598   9.158  15.419  17.209 -0.0928  0.0378  0.1506
10745W        W29599   0.932   8.997  14.535 -0.0829 -0.2405 -0.2110
10746W        W29600  12.016   6.567  15.014 -0.0360 -0.1656  0.3320
10747W        W29601   1.323   1.837  16.920 -0.3172  0.1168 -0.0087
10748W        W29602   2.682  16.247   0.250 -0.0063  0.3400  0.1778
10749W        W29603  11.102   8.855   1.455 -0.0185  0.0308 -0.0587
10750W        W29604  12.937   5.596   2.138 -0.0349  0.1648 -0.2292
10751W        W29605  11.765  12.886  16.734  0.2732 -0.1674 -0.1722
10752W        W29606  15.896   3.293   0.737  0.0675  0.0439  0.1601
10753W        W29607   9.082  11.651   0.276  0.4779  0.0214  0.0869
10754W        W29608  14.846   2.463  15.709 -0.0890 -0.0665 -0.0207
10755W        W29609   5.750   9.219   1.903  0.0707 -0.3737  0.0328
10756W        W29610  16.088   5.099  15.817 -0.3172 -0.2643  0.0211
10757W        W29611   4.188  10.489   1.983  0.2723  0.0600 -0.0707
10758W        W29612  16.057  11.296  12.748 -0.2094 -0.0406  0.1984
10759W        W29613  11.678  13.986   4.695 -0.2243 -0.0656  0.0951
10760W        W29614  16.329  10.979  15.442 -0.0326 -0.1511 -0.1524
10761W        W29615  14.406  15.249  16.476 -0.0878 -0.0698 -0.0082
10762W        W29616   1.477  15.956  17.039 -0.0963 -0.2810 -0.2876
10763W        W29617   3.591   5.344   2.016  0.1589 -0.1874 -0.0860
10764W        W29618  12.493   3.310  14.071 -0.3107 -0.0606 -0.2487
10765W        W29619   3.844  10.645  13.424 -0.0789  0.0081  0.3538
10766W        W29620   4.237  10.401   6.313  0.3297 -0.0299 -0.1428
10767W        W29621   2.746   6.602  13.978  0.1312  0.0087  0.1655
10768W        W29622  14.210  14.148  14.667  0.1254 -0.0890  0.1137
10769W        W29623   8.759  11.503   1.322 -0.0605 -0.0334 -0.0040
10770W        W29624   1.792   5.928   1.138 -0.0946  0.1713  0.3749
10771W        W29625  16.837  17.299  15.829  0.1545 -0.0314 -0.0091
10772W        W29626  13.262  12.794   0.272  0.2369 -0.0210 -0.0044
10773W        W29627   4.461   8.872   4.690  0.0241 -0.2542  0.1748
10774W        W29628  12.254  16.367  15.667 -0.0824  0.3581 -0.0258
10775W        W29629   4.899   0.350   1.977  0.0456 -0.1436  0.3580
10776W        W29630   7.280   7.007  17.420  0.0637  0.0422  0.2761
10777W        W29631   9.907  16.920   1.348 -0.1476 -0.1894 -0.1313
10778W        W29632   7.893   2.253  13.178  0.0108  0.1240  0.1885
10779W        W29633   8.962   7.638   3.990  0.0868 -0.2723  0.1233
10780W        W29634   3.652   1.753  16.901  0.2247 -0.0879  0.0044
10781W        W29635   3.120   2.331   0.653 -0.2642 -0.0929 -0.1837
10782W        W29636  12.445   9.362   3.166 -0.2133  0.0064  0.0640
10783W        W29637   0.620   2.457  13.421 -0.1164 -0.2237 -0.0459
10784W        W29638  13.492   2.577  13.332  0.0268 -0.2840 -0.1186
10785W        W29639   0.276  11.227  15.943 -0.0843  0.2039  0.1760
10786W        W29640   4.214   4.369  17.411  0.2256  0.0744 -0.2096
10787W        W29641   1.215  14.253  12.723  0.2008  0.0274 -0.2192
10788W        W29642   0.701   4.621   5.154  0.1469  0.2529 -0.0295
10789W        W29643  13.362  11.305  16.226  0.1813  0.0633  0.0098
10790W        W29644   7.340  16.760   0.991  0.0435  0.4801  0.1978
10791W        W29645   1.908   7.344  12.544  0.1666 -0.0169  0.1033
10792W        W29646   7.705   5.387  16.059 -0.2929 -0.0251  0.0414
10793W        W29647  15.975   4.210  17.360 -0.2467 -0.2320 -0.0257
10794W        W29648  13.311  16.450   4.366  0.1024  0.2598  0.0975
10795W        W29649   9.351  11.857  14.587 -0.0200 -0.1178 -0.1127
10796W        W29650  14.928  14.539  13.489 -0.1231 -0.2073  0.0850
10797W        W29651  12.906   5.015   0.748  0.1688 -0.4623  0.2321
10798W        W29652   5.909   8.114   5.614  0.1784 -0.2981 -0.0091
10799W        W29653   4.494  16.789  15.960  0.4385 -0.0557  0.4228
10800W        W29654  12.048   5.276   3.678  0.0708 -0.4899 -0.0671
10801W        W29655  12.480  10.690   2.191 -0.0639 -0.5444 -0.0675
10802W        W29656  14.167  12.521   3.671  0.0608 -0.1509  0.0793
10803W        W29657   3.124   6.152  13.170  0.1630  0.0542 -0.0277
10804W        W29658   7.596   8.960   3.718  0.3308 -0.5864 -0.2322
10805W        W29659   7.410   5.742  16.290  0.1323 -0.1199 -0.2330
10806W        W29660   5.456   0.131   4.855  0.1211  0.1728 -0.0932
10807W        W29661   2.708   8.416  13.390  0.0920  0.1990 -0.0884
10808W        W29662   0.663  12.296   0.413 -0.0151 -0.0027  0.0058
10809W        W29663   6.323  10.787  14.044  0.0352  0.0709 -0.0067
10810W        W29664  16.998   9.441   3.727  0.0118 -0.0890  0.0224
10811W        W29665  13.038   4.776   3.744 -0.0814 -0.0158  0.1299
10812W        W29666  12.809  13.359   1.261 -0.1126 -0.0504 -0.0123
10813W        W29667  10.799   5.731   0.983 -0.3420  0.0810  0.4557
10814W        W29668   7.421  13.771  17.127 -0.1732 -0.0919 -0.1964
10815W        W29669   5.666  12.717  17.013 -0.0045  0.0830 -0.0959
10816W        W29670  10.054  17.313  13.957  0.1413  0.0557 -0.1273
10817W        W29671  15.633  13.122  15.003 -0.1663  0.0005  0.0699
10818W        W29672   5.047   6.098  13.929 -0.2766  0.1092 -0.2409
10819W        W29673   8.427  15.225   4.555  0.0955 -0.0867  0.2234
10820W        W29674  11.840  10.957  12.638 -0.0017 -0.0336  0.0209
10821W        W29675   0.601  11.760   0.318  0.0880  0.1186  0.1396
10822W        W29676   4.620   3.765  17.148  0.0378 -0.6222  0.1927
10823W        W29677   4.351  16.123   0.426  0.2390  0.0192 -0.2012
10824W        W29678   2.334   7.744   4.291 -0.1049 -0.1503 -0.3548
10825W        W29679   9.215   0.551  17.026 -0.3319  0.0411  0.0494
10826W        W29680   2.692  12.026  13.265 -0.2803 -0.2007  0.0244
10827W        W29681   8.750   5.547  15.086  0.0463 -0.0785  0.1305
10828W        W29682  15.106   3.529  12.587  0.2796 -0.2020  0.3388
10829W        W29683   2.507  14.422   4.689  0.0690  0.1388  0.1599
10830W        W29684   2.826   1.376  13.385 -0.1686  0.3105  0.3036
10831W        W29685   4.376   0.700   4.232 -0.0715  0.0933 -0.1549
10832W        W29686   9.404   7.802   5.707  0.1394 -0.1414 -0.1826
10833W        W29687  16.195   1.959   5.058 -0.0224 -0.1844  0.1118
10834W        W29688  10.425   7.824  16.415 -0.0928  0.1508 -0.0906
10835W        W29689  10.132   2.473  15.932 -0.1663 -0.4094 -0.1686
10836W        W29690   7.326  15.332   4.822 -0.1179  0.2081 -0.1988
10837W        W29691   6.728   8.484  14.794  0.0721 -0.1315  0.1080
10838W        W29692   7.191  15.514   0.186 -0.2075  0.1533 -0.2364
10839W        W29693  12.021  14.826  12.297  0.2596  0.2505  0.0734
10840W        W29694   4.011   3.721   1.664  0.1652 -0.2734 -0.0095
10841W        W29695  11.518   5.186   0.452 -0.0013  0.2049  0.3063
10842W        W29696   3.944   1.427   0.860  0.0648 -0.1452 -0.0399
10843W        W29697   3.811  10.446   0.770  0.1114  0.0479 -0.1561
10844W        W29698   1.327  13.563  15.379  0.3440  0.1296 -0.1858
10845W        W29699  13.601   5.201  15.930 -0.0543 -0.6105  0.0531
10846W        W29700   2.797  11.828   4.023 -0.0718 -0.0781  0.1702
10847W        W29701   6.518   0.087   4.394  0.2802 -0.0375  0.0482
10848W        W29702   5.697  15.499  16.648 -0.0397  0.0622  0.1568
10849W        W29703  13.699   8.416   2.362  0.0327  0.0128 -0.2863
10850W        W29704   7.975  14.690   5.132 -0.1545 -0.2305  0.0997
10851W        W29705   5.015   6.422  17.289  0.0529 -0.4183 -0.1606
10852W        W29706   1.583   3.153  16.479 -0.0804  0.1020  0.0627
10853W        W29707  12.306   5.649   0.232 -0.1139  0.3102 -0.0373
10854W        W29708   0.791  10.016   2.991  0.2372 -0.2484  0.3063
10855W        W29709   7.407   1.255  14.175 -0.1235 -0.0300 -0.0474
10856W        W29710   8.925   7.218   1.746 -0.1331 -0.0650  0.0112
10857W        W29711  11.322   5.762   2.338  0.1219 -0.2726 -0.2868
10858W        W29712  12.484  12.788   1.970  0.0869 -0.0970  0.1013
10859W        W29713   6.451   0.819  16.241 -0.4826 -0.0523  0.2247
10860W        W29714  17.023   1.873   3.490  0.0534  0.3630  0.0042
10861W        W29715   2.271   5.212   0.632  0.3044 -0.1302 -0.0584
10862W        W29716  16.436   4.702  11.877 -0.4017  0.1286  0.0887
10863W        W29717   9.746   5.251   4.068  0.0834 -0.0737  0.0997
10864W        W29718   0.262   0.008   1.927 -0.3355 -0.0928  0.2195
10865W        W29719  11.795   4.610   0.265  0.3693  0.1196 -0.1750
10866W        W29720   3.607  11.225   3.055 -0.4389 -0.3085  0.0386
10867W        W29721   5.602  16.562  13.460 -0.2742 -0.1682  0.0886
10868W        W29722   7.221   3.299  15.815 -0.0287 -0.0994 -0.4068
10869W        W29723  15.466  12.838   4.529  0.2264 -0.2046 -0.0539
10870W        W29724  13.513   1.539  14.723  0.2006  0.1049 -0.1871
10871W        W29725   8.678  15.403   1.903 -0.0241  0.0292 -0.1044
10872W        W29726   0.340   1.448   2.187  0.2861 -0.1420  0.2639
10873W        W29727   2.984   4.841   4.968 -0.2515 -0.1112 -0.0494
10874W        W29728   0.892   2.699  15.466 -0.1185  0.2384 -0.0612
10875W        W29729  12.323   5.436  14.959  0.0889 -0.0235 -0.4334
10876W        W29730   0.357   4.277   3.453  0.0882  0.1662  0.1602
10877W        W29731   0.012   9.749   3.425 -0.1266  0.2769 -0.0500
10878W        W29732   7.500   7.844  17.160  0.1457  0.0395 -0.0504
10879W        W29733  16.982   0.029  16.351 -0.1617 -0.0846 -0.0145
10880W        W29734  13.704  15.010  15.780  0.0253  0.3541  0.3946
10881W        W29735   3.122  12.404   5.319  0.0476 -0.1231 -0.0670
10882W        W29736   1.858   7.739   2.882 -0.2425  0.2064 -0.0313
10883W        W29737  13.002   3.181  14.071 -0.0031 -0.0482  0.0310
10884W        W29738   5.707  16.811  16.477 -0.1332  0.0243 -0.2988
10885W        W29739   8.569   8.036   3.559 -0.3701 -0.1296  0.2105
10886W        W29740   1.628   8.628  17.448  0.1802  0.2271  0.0402
10887W        W29741   1.787  13.187  13.243  0.0715  0.3292  0.0634
10888W        W29742   3.848   3.347  16.377 -0.0156  0.1055 -0.0606
10889W        W29743   9.031  15.246  14.562  0.1783  0.0735  0.1707
10890W        W29744   3.545  12.172   3.187 -0.0693 -0.3187  0.0935
10891W        W29745   3.533   7.064   5.068 -0.0349 -0.2078 -0.0757
10892W        W29746  16.706   9.174   3.239 -0.2091  0.0595 -0.0858
10893W        W29747   2.986   9.326   1.293  0.1271 -0.1306  0.1881
10894W        W29748   7.324   1.312   3.926  0.1801 -0.1790  0.1809
10895W        W29749  13.662   7.562  14.639 -0.0434  0.0423  0.0944
10896W        W29750  13.435   2.276  14.618 -0.0056 -0.1025 -0.2885
10897W        W29751   2.642   8.819   0.580 -0.2478 -0.1790  0.0964
10898W        W29752   7.435  10.061  16.383 -0.4533  0.1384 -0.1313
10899W        W29753  15.505  12.464  14.018  0.2083 -0.0596 -0.2261
10900W        W29754   5.458   8.055  15.397 -0.1141 -0.0714  0.2331
10901W        W29755   2.842   8.169   2.167  0.1375 -0.0153 -0.1259
10902W        W29756  11.206   5.605  14.028  0.1230  0.1019  0.0990
10903W        W29757  12.115  14.773   4.554 -0.1464 -0.1883  0.1085
10904W        W29758   4.271  10.493  15.274 -0.1001  0.0988 -0.3413
10905W        W29759  17.019  15.095  16.974  0.1004  0.2353  0.4579
10906W        W29760   5.416   7.404  12.131  0.3101  0.1099  0.1054
10907W        W29761   6.653   2.423   3.389 -0.2813 -0.0558  0.0806
10908W        W29762   8.160  12.557  17.086  0.2156  0.0933 -0.0352
10909W        W29763  15.934   2.649   0.803  0.1253 -0.4283  0.2266
10910W        W29764   5.186  12.370  15.370 -0.2320 -0.0368  0.0453
10911W        W29765   1.856   1.197  17.231  0.2203 -0.1465  0.0704
10912W        W29766   9.111  14.477  14.706 -0.2288 -0.0916 -0.0316
10913W        W29767   3.849  10.791   3.323 -0.2106 -0.2931  0.5194
10914W        W29768   4.817   7.303  15.062 -0.0378  0.3368 -0.0289
10915W        W29769   7.271   0.276   0.779  0.1378 -0.0010 -0.1045
10916W        W29770   1.272   5.540   3.550 -0.5782  0.0340  0.0157
10917W        W29771   1.534   1.030  15.759  0.2410 -0.0729  0.1640
10918W        W29772   7.820   2.064   3.797  0.1987  0.0499 -0.0365
10919W        W29773   8.713   1.927   1.325 -0.0432 -0.1679  0.0330
10920W        W29774   4.451  13.211  13.047  0.0348  0.4122  0.2077
10921W        W29775  14.558  14.867  13.965 -0.0108  0.2796  0.0370
10922W        W29776   7.446   8.557   5.248 -0.2137 -0.1595  0.1769
10923W        W29777   4.564  13.680  12.418 -0.2127  0.1537 -0.1089
10924W        W29778  13.148   4.396  12.575  0.3185  0.3128  0.0585
10925W        W29779   7.147  15.408   3.755  0.2350 -0.0319  0.2070
10926W        W29780  13.299  11.020   1.143 -0.2001 -0.0611 -0.1242
10927W        W29781   9.989   4.565  15.759  0.1656  0.1891  0.0757
10928W        W29782  12.025   0.999  14.400 -0.0171  0.1627 -0.0231
10929W        W29783   0.518  13.248   3.778  0.3651 -0.1984 -0.1820
10930W        W29784  14.189  14.465   1.054 -0.0626 -0.0274  0.1271
10931W        W29785  12.956  13.171   0.639 -0.0458 -0.1008 -0.2589
10932W        W29786   3.933  16.047   5.082 -0.2194  0.2330 -0.0888
10933W        W29787   4.550  14.750   2.966  0.1974 -0.3227 -0.0530
10934W        W29788  11.846   3.927  13.669  0.0982 -0.1927  0.0877
10935W        W29789   1.440  12.802  13.418  0.1215  0.1291  0.1237
10936W        W29790   0.534  12.488   2.129  0.1394  0.0588  0.1628
10937W        W29791   5.771   4.042   4.685 -0.6023 -0.1049  0.1110
10938W        W29792   9.596  11.270   0.363 -0.0104  0.0534 -0.0787
10939W        W29793  15.827   8.104   0.997  0.2019 -0.1694 -0.1722
10940W        W29794  10.862  13.726   3.511  0.0226 -0.0096  0.0088
10941W        W29795   1.461   6.921  16.450 -0.4541 -0.2142 -0.2773
10942W        W29796   9.378   7.617  17.257  0.0116 -0.0080 -0.0919
10943W        W29797  15.047   4.220  13.958 -0.0381  0.0024  0.0149
10944W        W29798  16.264  16.310  12.826  0.0823 -0.0638  0.1642
10945W        W29799   9.061   0.843   3.117 -0.0811 -0.2034 -0.0933
10946W        W29800  14.225  11.487   3.960 -0.1470  0.4294  0.0457
10947W        W29801   8.363  12.900   0.314 -0.2266 -0.0312  0.0601
10948W        W29802   0.650   2.237   1.688 -0.1740 -0.1952 -0.5156
10949W        W29803  11.058  10.330   5.999  0.0713 -0.1852  0.1468
10950W        W29804  15.557   6.940  14.067  0.0369 -0.1673  0.2278
10951W        W29805   9.753   1.389  12.550 -0.0202  0.3120 -0.4199
10952W        W29806   6.206   6.019  15.809 -0.1288 -0.0090  0.1226
10953W        W29807   1.590   3.055   2.249 -0.1003  0.1283  0.3332
10954W        W29808   2.147   3.248   2.863 -0.1223  0.1144 -0.3470
10955W        W29809   1.080   2.690   1.509  0.1177  0.0341  0.2300
10956W        W29810  10.926  10.667   4.512 -0.0347 -0.1370 -0.0520
10957W        W29811   0.931   2.416  14.245 -0.2512 -0.4207 -0.0897
10958W        W29812  12.281   8.806  13.567 -0.0082  0.2052 -0.3487
10959W        W29813  11.053   1.338   0.666 -0.1202 -0.0532  0.0699
10960W        W29814  10.455   3.401  15.056  0.2459 -0.1331  0.1132
10961W        W29815   2.908   3.546   4.231 -0.2792 -0.0811 -0.0418
10962W        W29816  10.335  10.140   2.243 -0.2086  0.3825  0.1055
10963W        W29817   2.931   2.226   1.731  0.0587 -0.1320  0.2429
10964W        W29818   5.654   8.796   2.311  0.3319 -0.3285 -0.4339
10965W        W29819   7.634  13.732  13.129 -0.2458 -0.0570 -0.1055
10966W        W29820  15.024  15.426  13.126 -0.1520  0.0264 -0.0586
10967W        W29821   6.570  12.478  16.861 -0.0740  0.3252  0.2786
10968W        W29822   9.629  14.876   2.962  0.4004  0.0748 -0.3661
10969W        W29823  16.717   7.750   4.476 -0.1783  0.3998 -0.4222
10970W        W29824  16.143   3.147   2.039 -0.1903 -0.1373  0.0259
10971W        W29825  11.706  11.431   4.659 -0.0795 -0.1288 -0.3431
10972W        W29826  11.077  15.606   3.371  0.0104 -0.0620 -0.1929
10973W        W29827   4.417   3.794  13.363 -0.0341  0.2212 -0.1461
10974W        W29828  11.216   3.221  16.435 -0.2762  0.3206  0.1803
10975W        W29829   9.947   0.780   3.692 -0.1486 -0.1470 -0.1280
10976W        W29830  12.526  10.049  13.954  0.0773 -0.1502  0.1512
10977W        W29831   1.309   5.582  12.696 -0.0050  0.1589 -0.2043
10978W        W29832  12.415  16.697  12.388  0.0631 -0.1033  0.0609
10979W        W29833   0.841   2.553  16.033  0.0020 -0.1918 -0.1937
10980W        W29834   4.711  11.436   1.370 -0.1922  0.1209  0.1153
10981W        W29835   5.197  12.214  13.424 -0.0295  0.0295 -0.1560
10982W        W29836  15.822  12.063   4.560 -0.2196  0.0679 -0.1611
10983W        W29837   3.051   1.323  12.494  0.2614  0.2824 -0.0492
10984W        W29838   1.339  14.340  16.310  0.0821  0.0684  0.0782
10985W        W29839   4.252   1.476   3.874  0.2761 -0.2581  0.0585
10986W        W29840  11.365   3.792   5.434 -0.1579 -0.2440  0.1208
10987W        W29841  11.449  14.531   3.029 -0.0650 -0.0657 -0.1159
10988W        W29842   3.215   9.427  16.271 -0.0630 -0.0944  0.0549
10989W        W29843  12.122   9.564  15.877  0.2838  0.0943 -0.2269
10990W        W29844   9.208   2.970   0.712  0.0267 -0.0959  0.0460
10991W        W29845   8.466   7.906   0.705 -0.2630  0.0330  0.1515
10992W        W29846   1.171  10.353  12.532  0.1098 -0.0686 -0.2009
10993W        W29847  13.285  14.662   1.106 -0.1714 -0.1669 -0.1372
10994W        W29848  16.948   4.352   1.296 -0.1065  0.1294  0.3361
10995W        W29849  11.772   3.404  14.815 -0.3257  0.0276 -0.0184
10996W        W29850  12.712  12.089   1.236  0.0665 -0.1540 -0.0078
10997W        W29851   8.617   0.926   1.651 -0.0629  0.0690 -0.3630
10998W        W29852  10.517   6.791   2.339 -0.2072  0.1084  0.0809
10999W        W29853   3.145  12.340  13.297  0.3524  0.1867 -0.0744
11000W        W29854   4.805  10.052  15.927  0.0740  0.0878  0.0769
11001W        W29855  15.777  11.320  13.695 -0.1869  0.2384 -0.1096
11002W        W29856  12.955   0.696  13.165 -0.0288  0.0825 -0.0740
11003W        W29857   9.262   0.644  12.804  0.1283 -0.0175  0.1982
11004W        W29858  17.144   2.690   1.960 -0.1016  0.0610  0.0310
11005W        W29859  10.153   1.384  14.686  0.0393  0.0831  0.2910
11006W        W29860  15.827   1.146   1.803 -0.2778  0.0436 -0.1812
11007W        W29861   5.060   6.332  15.385  0.1334  0.0259 -0.0345
11008W        W29862   7.120  16.731   0.527  0.0899  0.0112 -0.0810
11009W        W29863   6.230  14.767  14.809  0.1593  0.0195 -0.2354
11010W        W29864  15.811   7.733  15.057 -0.0118  0.0244 -0.0722
11011W        W29865  16.150  12.434   3.669 -0.1025 -0.2359 -0.0375
11012W        W29866   1.694   7.669  13.585  0.1425  0.1683  0.1365
11013W        W29867   0.373   2.061  16.719 -0.1043 -0.0518 -0.0023
11014W        W29868   1.876   7.387   2.364 -0.2141 -0.0889  0.1658
11015W        W29869   6.383   0.126   0.304  0.2279 -0.3305 -0.0743
11016W        W29870   7.062   9.401   1.147 -0.1672 -0.0923  0.1207
11017W        W29871   2.357  15.287  13.622  0.0471 -0.2224  0.1419
11018W        W29872  16.674  15.885   0.045  0.0942 -0.1765  0.1611
11019W        W29873  10.753   7.442   1.432 -0.1675  0.1432  0.0891
11020W        W29874  15.665  15.402   2.330 -0.2288  0.0584 -0.0435
11021W        W29875  15.683   7.901  13.901 -0.3203  0.1420 -0.1883
11022W        W29876  10.105  12.424   4.608 -0.0624  0.1187  0.0056
11023W        W29877   8.029  13.396  13.213  0.0994  0.0351 -0.1390
11024W        W29878  17.054   5.423  16.918 -0.1379 -0.2188 -0.2069
11025W        W29879   6.807  11.581  14.133 -0.2810 -0.0300 -0.0689
11026W        W29880   8.063   3.085  14.771 -0.1910  0.3359 -0.0889
11027W        W29881  16.425  12.620   1.264  0.0129  0.1532  0.0189
11028W        W29882   5.529   0.244  13.499  0.1406  0.2199  0.0475
11029W        W29883   6.535   0.948  15.749 -0.0706 -0.0140  0.1353
11030W        W29884   2.687  15.106   2.462 -0.2495 -0.3081 -0.3630
11031W        W29885   8.453   1.118   0.261  0.1802  0.0504 -0.1698
11032W        W29886   5.129   8.192   3.270 -0.2262  0.0646  0.0008
11033W        W29887   4.779   3.252  17.245 -0.1301 -0.2919 -0.1510
11034W        W29888   1.922  14.758   1.847 -0.2188  0.1321  0.1610
11035W        W29889   9.975  17.026  13.519  0.0624  0.0054  0.2144
11036W        W29890   8.319   6.136   5.046 -0.0843 -0.1035  0.1680
11037W        W29891   7.063   2.272   5.489 -0.2904 -0.0816  0.3048
11038W        W29892   6.323   2.862  14.881  0.1278  0.0652 -0.1988
11039W        W29893  16.562  16.951   0.682  0.2794  0.1138  0.1722
11040W        W29894   0.265  10.686   4.798  0.1789 -0.2749 -0.1495
11041W        W29895   4.362  13.136   0.843  0.0033 -0.1513  0.1399
11042W        W29896   6.058   2.026   4.047 -0.0607  0.0597  0.1239
11043W        W29897   8.358  15.796   1.626 -0.2658  0.2032 -0.1495
11044W        W29898   4.373   9.692  14.525  0.1061  0.2266 -0.0969
11045W        W29899  16.366  10.856   3.739  0.0130 -0.0475  0.0496
11046W        W29900  15.171   2.090   3.675 -0.2374  0.3953 -0.1674
11047W        W29901   9.263   1.570   0.598 -0.0928  0.1379 -0.0374
11048W        W29902  13.732   8.942   3.269 -0.3183  0.0940  0.0899
11049W        W29903   6.203  14.190  13.865  0.1277  0.1450  0.2358
11050W        W29904   4.217   6.134   4.698 -0.2121  0.1014  0.1248
11051W        W29905  12.034   0.587  16.204  0.1731  0.0473 -0.1777
11052W        W29906   1.312   9.890   2.181 -0.1284  0.2934 -0.1843
11053W        W29907   7.304  14.478  12.619  0.0809  0.0638 -0.1052
11054W        W29908   3.593   0.993  16.635 -0.1229  0.0400 -0.0010
11055W        W29909   9.384   3.242  12.105  0.0300  0.0926 -0.0814
11056W        W29910  13.469   1.532  16.033  0.1385  0.0576  0.2407
11057W        W29911   2.410   6.239   4.262  0.2481 -0.1179  0.0035
11058W        W29912  11.231  14.357  13.506  0.0896 -0.1806  0.0953
11059W        W29913  12.098   6.282   2.858  0.1209  0.0964  0.0614
11060W        W29914   2.387   4.453  12.889  0.0519 -0.1620  0.3000
11061W        W29915   4.290   9.558   2.661  0.1025 -0.0674  0.0442
11062W        W29916   8.571  14.108  13.636 -0.0190  0.3570 -0.2424
11063W        W29917   3.799  15.986  14.647 -0.3047 -0.0902  0.1805
11064W        W29918   1.215  16.012  12.530 -0.1200  0.0415  0.2870
11065W        W29919  16.178   8.782  13.712  0.0110 -0.0728  0.0094
11066W        W29920   5.087   4.355   2.152  0.0154 -0.1809  0.3002
11067W        W29921  13.619   4.144  14.306  0.0133  0.0650 -0.3174
11068W        W29922   2.524   2.528  14.436 -0.3477  0.0760  0.1276
11069W        W29923   0.366   4.709  13.635 -0.1038  0.1636 -0.2175
11070W        W29924  13.219   3.736  12.480  0.0615 -0.0457  0.0103
11071W        W29925  15.772   8.196   1.900 -0.0921 -0.1011  0.0235
11072W        W29926   6.746   9.746  17.079 -0.1282  0.0596 -0.2038
11073W        W29927   2.221  10.919  15.935  0.1332  0.1098  0.0889
11074W        W29928  11.997  10.014   2.016 -0.1676 -0.0767  0.0372
11075W        W29929  10.453   5.172  13.477  0.1770  0.0071 -0.0228
11076W        W29930  15.026  13.412   0.737  0.2521 -0.2335 -0.1739
11077W        W29931  14.327   8.280  15.377 -0.0162 -0.0108  0.2390
11078W        W29932   1.480   3.741   3.952 -0.0668 -0.1721 -0.0198
11079W        W29933   7.915  16.492   6.008  0.0479  0.4261  0.1284
11080W        W29934  13.822   3.461   4.378 -0.0362 -0.0553 -0.3377
11081W        W29935  10.870  16.187   1.798 -0.0613  0.0166 -0.1553
11082W        W29936   6.482   8.723  15.581 -0.0988  0.1467 -0.0548
11083W        W29937  10.799   1.013  13.670  0.0786  0.0567 -0.2905
11084W        W29938  16.645   8.803  14.331 -0.0300 -0.0157  0.1551
11085W        W29939   3.245   0.180  16.820  0.2357  0.0341 -0.0048
11086W        W29940   5.835   9.567  12.518  0.0083 -0.0202  0.1835
11087W        W29941  15.973   9.817  16.820  0.3460  0.1121 -0.0018
11088W        W29942  13.200   1.863  14.466 -0.4535  0.0107  0.2946
11089W        W29943   1.169   5.685   3.120  0.2339 -0.1383  0.0145
11090W        W29944  12.533   0.271   4.334  0.3259 -0.2402  0.3291
11091W        W29945   2.740   1.593  14.327 -0.0088  0.3276  0.0098
11092W        W29946  16.473   6.533  14.437  0.0855  0.0374 -0.0113
11093W        W29947  10.337  11.075   0.607  0.0590  0.0648  0.0769
11094W        W29948   1.080  14.499  17.073  0.0140  0.0607 -0.1641
11095W        W29949   7.662  10.090   5.062 -0.0026 -0.2098  0.1190
11096W        W29950   6.576   3.547   6.520 -0.0411 -0.1880  0.0054
11097W        W29951  14.634   1.997   3.807  0.2498  0.0072  0.0812
11098W        W29952   5.291   2.833  15.156 -0.0598 -0.0159  0.0024
11099W        W29953  16.646   7.763  12.697 -0.3155 -0.0490 -0.1244
11100W        W29954   6.435  17.166   0.731  0.1649  0.1176 -0.0036
11101W        W29955   4.689  11.988   1.371 -0.2516  0.0141  0.0447
11102W        W29956   2.732   0.461  17.432 -0.1759  0.0443 -0.0911
11103W        W29957   4.596   5.798   4.784 -0.1544  0.1868 -0.2046
11104W        W29958  17.281   1.278  12.845  0.2819 -0.0815 -0.0636
11105W        W29959  15.614   0.921  15.331  0.0756 -0.2766  0.1357
11106W        W29960  12.155   5.821  16.368  0.0889  0.1898  0.4389
11107W        W29961   5.077   1.148   3.311  0.4061  0.2919 -0.1029
11108W        W29962   4.039   3.686   4.209  0.0174 -0.2980  0.1029
11109W        W29963  15.969   4.655  15.977  0.0056 -0.0221 -0.0178
11110W        W29964   9.354   1.588  12.270  0.0497  0.0492 -0.1365
11111W        W29965  10.508  16.270  14.413  0.0389 -0.0508  0.0360
11112W        W29966  13.339  13.785   2.037  0.0818 -0.3047 -0.1657
11113W        W29967   8.530   9.005  14.951 -0.0940 -0.2024 -0.0914
11114W        W29968  11.612   7.538   4.903 -0.0833  0.3161 -0.1406
11115W        W29969   6.864   1.237  16.139  0.1746  0.0972 -0.3686
11116W        W29970  11.235   2.988   2.172 -0.1443  0.1503 -0.0749
11117W        W29971   7.567   1.397  16.792 -0.1156 -0.2660 -0.0188
11118W        W29972  11.913  12.916  13.329  0.1246  0.1188 -0.0053
11119W        W29973  14.732   0.537  14.299 -0.0244 -0.2010  0.0940
11120W        W29974   0.251   6.262   2.224  0.0817 -0.1005 -0.1680
11121W        W29975  10.759   7.544   2.776  0.0310  0.1245  0.1184
11122W        W29976  13.462   4.777  16.976  0.1621  0.0876  0.5082
11123W        W29977   7.853   6.276   1.368 -0.1088 -0.4041  0.2592
11124W        W29978   5.664   6.973   1.745  0.2364  0.1285  0.2866
11125W        W29979   0.394   6.152  17.463 -0.1674  0.2163 -0.1270
11126W        W29980   9.582   9.808   4.757  0.0524 -0.2850 -0.2712
11127W        W29981   0.879  10.267   3.456 -0.1602  0.0175  0.2015
11128W        W29982  13.708   5.291  14.065 -0.0784 -0.0066  0.2652
11129W        W29983   0.062   3.260   0.832  0.2448  0.1087 -0.0851
11130W        W29984   5.268   2.051  12.624 -0.2111  0.0540  0.2028
11131W        W29985  15.137  13.977  15.108  0.0930 -0.2943 -0.2489
11132W        W29986   0.600  12.485   3.752 -0.1740  0.1808  0.0344
11133W        W29987  11.077  11.727   3.086  0.0114 -0.0642  0.0700
11134W        W29988  15.929   3.336  13.661  0.0473 -0.3318  0.1667
11135W        W29989  14.043  14.017  13.837  0.0179  0.0595  0.1352
11136W        W29990   6.750   2.208  13.902 -0.0787 -0.0409 -0.0521
11137W        W29991   8.381   8.759  14.535  0.1732  0.0613  0.1046
11138W        W29992   2.726  11.516  16.487  0.2029 -0.5619 -0.0006
11139W        W29993   7.979   9.553   6.151  0.1602  0.2128  0.1428
11140W        W29994  15.947   3.405  13.148 -0.3122 -0.2367  0.0942
11141W        W29995   1.704  10.699   3.167 -0.1123  0.1691  0.2157
11142W        W29996   8.318  15.151  11.927 -0.0433 -0.0766  0.2477
11143W        W29997   8.683   2.966   4.165 -0.0998  0.0685  0.1069
11144W        W29998  15.300   3.118  14.462 -0.0924  0.5108 -0.3079
11145W        W29999   6.806   2.828   0.492 -0.1884  0.1700  0.4865
11146W        W30000   8.491  15.306  14.854 -0.0132  0.1775  0.1771
11147W        W30001   2.562   4.278  13.415  0.1528 -0.1285  0.3132
11148W        W30002   1.935   4.928   4.892 -0.2224 -0.1760 -0.0547
11149W        W30003  14.116   5.703   4.431  0.3384  0.0185 -0.0245
11150W        W30004   6.184   2.761   4.814 -0.1830 -0.2628 -0.1345
11151W        W30005   5.145   1.241  16.930 -0.1441  0.0170 -0.1811
11152W        W30006   1.663   0.916   0.756  0.2235  0.2575 -0.0275
11153W        W30007  12.242  10.703   3.202 -0.0756  0.1994  0.3483
11154W        W30008   0.109   8.567   2.177  0.0933  0.1229  0.0808
11155W        W30009   1.157   3.141  13.791  0.0122 -0.0248  0.1189
11156W        W30010  11.158   1.564  12.470  0.0534 -0.0148  0.0529
11157W        W30011   5.702   1.163   4.400 -0.2440  0.0980  0.0941
11158W        W30012  12.204   3.685   1.204  0.1358  0.0156  0.1601
11159W        W30013   6.210  13.221   1.544  0.1070 -0.3627 -0.0843
11160W        W30014   9.174   7.174  17.179 -0.0780  0.0109  0.0427
11161W        W30015   7.770   1.027   2.952 -0.1584 -0.1261 -0.2432
11162W        W30016   6.868   7.511   3.574 -0.2126  0.0272 -0.1293
11163W        W30017  16.894   1.636  15.708  0.0751  0.5132  0.0860
11164W        W30018   7.624  13.241  13.414 -0.1956 -0.2479 -0.2519
11165W        W30019   8.262   4.223  16.497 -0.1069 -0.1992 -0.3633
11166W        W30020  13.604  12.461  14.136 -0.0509 -0.1414  0.1152
11167W        W30021   5.629   5.277  15.917 -0.2174 -0.2447 -0.2112
11168W        W30022   4.128   5.591  16.395 -0.1192  0.2623  0.0093
11169W        W30023   4.731  16.748   4.042  0.0941  0.0764  0.0417
11170W        W30024   9.514   3.678  16.019 -0.2908  0.1260 -0.1210
11171W        W30025  11.667  17.061   3.383  0.3999 -0.1299 -0.0535
11172W        W30026   4.219  15.797   3.043 -0.3360  0.0357 -0.1033
11173W        W30027  13.275  16.006   3.202 -0.0826  0.1417  0.0759
11174W        W30028   5.978  11.965  14.422 -0.1913 -0.2129  0.2081
11175W        W30029  13.588  15.392  12.161  0.0975  0.2907 -0.2715
11176W        W30030   9.755  10.690  16.052  0.0091 -0.0488 -0.3078
11177W        W30031  15.672  11.799  13.325 -0.0339 -0.2087  0.0726
11178W        W30032  14.746  13.776  14.771 -0.1314  0.0779  0.4116
11179W        W30033  13.391   5.725   4.150 -0.0831 -0.3415 -0.4266
11180W        W30034  14.179  14.073   4.452  0.1078  0.1578 -0.2260
11181W        W30035  16.604  13.756  14.572 -0.0317  0.2157 -0.2145
11182W        W30036  10.959  12.462   1.452  0.4989  0.2407  0.0193
11183W        W30037   5.577  15.324   1.524 -0.0019 -0.2456  0.2676
11184W        W30038  16.787  12.908  15.187  0.0855 -0.0085 -0.2456
11185W        W30039   8.326  10.595   0.324  0.1054 -0.1210 -0.0689
11186W        W30040  11.383  14.762   4.741  0.1205  0.0079  0.1007
11187W        W30041   6.318   0.070  17.044 -0.1943  0.1471  0.4350
11188W        W30042  16.699   4.883   4.016  0.0513 -0.0154  0.1934
11189W        W30043   6.118   6.457   0.725  0.3448 -0.0348 -0.0881
11190W        W30044   9.881   8.133   1.854  0.1687  0.1942 -0.0190
11191W        W30045  11.526  12.535   1.698  0.0053  0.3336 -0.0087
11192W        W30046   2.241   2.621   2.845  0.3939 -0.1283  0.0127
11193W        W30047   8.841  15.871  13.786 -0.1633  0.2905  0.1166
11194W        W30048  10.375  10.643  16.750 -0.0304  0.1642  0.0474
11195W        W30049  14.056  10.543  14.426  0.0888 -0.1812  0.1889
11196W        W30050   6.896  16.133   4.232 -0.2117 -0.1656  0.1326
11197W        W30051  14.216   9.546  14.073  0.0323 -0.1199 -0.2338
11198W        W30052  13.481   9.665  16.726  0.0935 -0.2295 -0.3075
11199W        W30053  10.464  13.652   0.247 -0.0385  0.3552  0.0780
11200W        W30054  14.861   8.029   2.573 -0.1055 -0.0545  0.0183
11201W        W30055   9.347   9.466  14.978 -0.4060 -0.0161 -0.0988
11202W        W30056   9.854  16.348  12.673  0.0756 -0.1460 -0.2925
11203W        W30057   6.826  17.345  16.798  0.0273 -0.0472  0.0985
11204W        W30058   8.258   2.286   5.115  0.2653 -0.2938 -0.1845
11205W        W30059  13.062   0.444   3.490 -0.2289  0.2198 -0.0146
11206W        W30060   9.235  11.778   1.176  0.1562  0.2184 -0.1165
11207W        W30061  15.560  10.891  14.033  0.1090 -0.2977  0.0954
11208W        W30062   1.525  11.835   4.647  0.1914 -0.4340  0.0460
11209W        W30063   7.696  12.299  15.214  0.0249 -0.0700  0.3125
11210W        W30064   5.585   0.866   5.470  0.1039 -0.1011  0.2211
11211W        W30065   9.664  10.217   5.014 -0.0240  0.0321  0.2660
11212W        W30066   7.771   8.691   0.837  0.0887 -0.0038  0.0694
11213W        W30067  16.017  17.237  16.685 -0.2661 -0.1415  0.1457
11214W        W30068   3.212  14.323   2.744  0.1597  0.0950 -0.1810
11215W        W30069  15.967  16.308  13.339 -0.0387 -0.1642 -0.2920
11216W        W30070   3.138   9.311  17.427 -0.3984 -0.1533  0.1049
11217W        W30071  13.636   4.643  12.400 -0.0372  0.2019 -0.0720
11218W        W30072  13.297   2.742   3.682  0.2572  0.4023 -0.3074
11219W        W30073   8.663  15.697  15.652  0.0915  0.0103 -0.1218
11220W        W30074   7.958  15.436  16.237  0.1726  0.1191  0.2229
11221W        W30075   5.233  12.081   0.674  0.1023  0.2262 -0.0796
11222W        W30076   1.593   4.124  16.690 -0.1036  0.1113  0.0830
11223W        W30077   1.286   4.968   0.880  0.1975 -0.0027 -0.4236
11224W        W30078  13.949   7.101   0.952  0.1212  0.2282  0.1712
11225W        W30079  13.284  15.930  12.946 -0.1009  0.1476  0.0188
11226W        W30080   9.520   6.840   1.097  0.0913  0.0773 -0.0978
11227W        W30081  12.817   8.789   5.202 -0.1152 -0.0922 -0.0252
11228W        W30082  12.367   9.894  14.395 -0.2042  0.1331 -0.1143
11229W        W30083  12.312   3.050   5.255 -0.0580 -0.0132 -0.0224
11230W        W30084   4.768   0.525   0.138  0.2124  0.0496  0.0968
11231W        W30085   2.706  15.643   0.291  0.1536 -0.1457 -0.0081
11232W        W30086   1.993  15.490   1.055  0.0942  0.1456  0.1842
11233W        W30087  10.618   4.326   6.480  0.0980  0.1431  0.0150
11234W        W30088   6.687   5.008  15.114 -0.0461  0.4369  0.0762
11235W        W30089  13.333   6.408  12.412  0.0266  0.0626 -0.0575
11236W        W30090  16.385   8.544   3.936  0.1591 -0.0813  0.0681
11237W        W30091   9.131  13.979   2.629 -0.1111  0.0967  0.0139
11238W        W30092  15.127  12.801   3.630 -0.5576  0.1011  0.1295
11239W        W30093   2.724   6.444  13.457 -0.0508  0.0203 -0.1633
11240W        W30094   6.173  14.725   4.281  0.1379 -0.4767 -0.0128
11241W        W30095   5.247  13.707   1.648 -0.2664  0.1097  0.1788
11242W        W30096  10.956   2.161   3.178  0.0049  0.1216 -0.0906
11243W        W30097  14.151  15.486  15.192 -0.0202 -0.0761 -0.0430
11244W        W30098  10.974   7.176  12.679 -0.0784 -0.1315  0.2451
11245W        W30099   9.209   6.158  16.371  0.1048  0.1211 -0.2124
11246W        W30100  12.610   2.009  15.207 -0.2675 -0.4072 -0.0472
11247W        W30101   4.271   6.539   2.002 -0.3401  0.0786 -0.1380
11248W        W30102   6.485  10.562   2.344  0.2643 -0.2500  0.0903
11249W        W30103   1.738   1.295   2.301 -0.0158 -0.2866 -0.1962
11250W        W30104  13.740  16.474  16.096 -0.2930 -0.0060 -0.1298
11251W        W30105   8.010   2.089  15.145  0.2844  0.0630 -0.0862
11252W        W30106   5.097   5.178   4.353  0.2678 -0.0837  0.0888
11253W        W30107   0.298   1.649  12.964  0.1126 -0.0449 -0.0472
11254W        W30108  14.328  10.888   5.252  0.1577  0.1155  0.1310
11255W        W30109  16.483  11.657   4.155 -0.1509  0.2643 -0.0876
11256W        W30110  12.428   5.667  12.647  0.2695  0.1544  0.1872
11257W        W30111   1.116   4.699  12.821  0.1408 -0.2109 -0.0159
11258W        W30112  17.181   0.209   1.010  0.1278  0.0275  0.4160
11259W        W30113   5.715   6.731  13.414  0.1584 -0.1873  0.0611
11260W        W30114  10.014  14.856  13.590 -0.0424  0.1186  0.0321
11261W        W30115   6.878   6.917  17.130 -0.3540  0.0740  0.2032
11262W        W30116   4.174   4.153   4.429  0.0466 -0.1123  0.0741
11263W        W30117  11.149  12.080  16.250  0.1644 -0.0947 -0.1622
11264W        W30118  13.320   9.040   4.207 -0.0101  0.0745 -0.2275
11265W        W30119   3.725  14.056  12.642  0.1912 -0.0430 -0.1870
11266W        W30120   5.300  14.678   0.647 -0.1803 -0.2559 -0.0249
11267W        W30121  10.076  11.095  13.369 -0.1444  0.2564 -0.1041
11268W        W30122  14.969   0.252   3.363  0.1640 -0.2046  0.0096
11269W        W30123   4.567   3.168   2.098 -0.0710 -0.2284 -0.1760
11270W        W30124  15.429  12.393   2.820 -0.0431  0.2869  0.3080
11271W        W30125  10.936   9.431  12.956 -0.1404 -0.0708 -0.1316
11272W        W30126   4.656   5.535   1.810 -0.0118 -0.1479  0.1518
11273W        W30127   1.549  12.137  11.766  0.0785 -0.2558  0.0495
11274W        W30128   3.119  15.698   4.821 -0.0282  0.0876  0.0123
11275W        W30129  14.703   1.267  13.431  0.1933 -0.1396  0.0232
11276W        W30130   8.021  11.275   3.371 -0.2098  0.3609 -0.1273
11277W        W30131  12.003   1.962   2.787  0.1740 -0.1667 -0.3540
11278W        W30132   9.349   9.446   4.440  0.0193 -0.1500  0.1213
11279W        W30133   4.930  16.303  14.634 -0.2076  0.2593 -0.2008
11280W        W30134   5.188  13.739   4.368  0.1309  0.0134 -0.1388
11281W        W30135   3.350   3.246   1.555 -0.0825  0.0435 -0.1096
11282W        W30136   3.710   1.211   0.035 -0.1487  0.0773 -0.2413
11283W        W30137  15.256   6.437   2.083 -0.0794  0.1828 -0.1112
11284W        W30138   3.193  15.725   0.915  0.0434 -0.0753 -0.0441
11285W        W30139  12.032  11.800  14.163  0.2437  0.0697  0.0425
11286W        W30140  13.289  13.239  13.063 -0.1282  0.1674 -0.3117
11287W        W30141   3.316  12.188  15.681 -0.3565  0.1001 -0.1284
11288W        W30142   3.989   6.987   5.323  0.1450  0.1884 -0.1721
11289W        W30143   5.656  12.288   0.964 -0.2618  0.0211  0.0909
11290W        W30144   5.064  10.412  16.696 -0.7151  0.1580  0.0181
11291W        W30145   3.517  10.420  13.111  0.2685 -0.1651 -0.1721
11292W        W30146   7.829   7.384   2.705 -0.0392 -0.3151  0.1087
11293W        W30147  16.668  16.324   2.194  0.1733 -0.2049 -0.1755
11294W        W30148   3.064   1.031  15.012  0.0374  0.0613  0.1205
11295W        W30149  13.853  15.923  16.023  0.1001  0.0020  0.1904
11296W        W30150  15.078  14.258  13.095  0.1412 -0.1415  0.2629
11297W        W30151   1.526  13.287  14.624  0.0704 -0.0154  0.0410
11298W        W30152   4.175  16.587   0.672 -0.0187 -0.0433  0.1866
11299W        W30153   4.928   9.019   4.804 -0.2679  0.2902  0.3126
11300W        W30154  16.026  13.925   3.088 -0.4551  0.0132  0.2078
11301W        W30155  11.702   8.869   3.755 -0.2148  0.3570  0.3185
11302W        W30156   1.238   4.109  14.038 -0.0647 -0.1792  0.0766
11303W        W30157   9.727  11.839  17.329 -0.3188 -0.2328  0.1790
11304W        W30158   6.026  16.509  16.207 -0.2033  0.1849 -0.0670
11305W        W30159  16.455  12.722   2.650 -0.0280  0.0981 -0.2104
11306W        W30160  14.178   5.473   3.128 -0.2408 -0.1621 -0.2635
11307W        W30161  14.483   1.229   1.251  0.2843  0.2562 -0.1397
11308W        W30162   9.735   1.621  17.277  0.0694  0.2005  0.1609
11309W        W30163   6.664   4.017  14.217  0.2700  0.1555  0.2011
11310W        W30164  10.534  13.139  15.445  0.0125 -0.0419 -0.1372
11311W        W30165   8.455   4.244   4.143  0.0095 -0.1140 -0.3725
11312W        W30166   3.216   7.315  16.077  0.1567 -0.1265  0.1315
11313W        W30167   0.061  10.110   0.508  0.0768  0.2591  0.2371
11314W        W30168  12.526   7.233   4.230  0.1504  0.1595  0.0571
11315W        W30169  13.811   5.979  16.683  0.0331 -0.2995 -0.1594
11316W        W30170   2.378  13.735  15.385 -0.0694  0.0263  0.3273
11317W        W30171   9.771   3.079   4.382  0.0005  0.3181  0.0288
11318W        W30172  12.176  15.639   3.870 -0.0051  0.1360 -0.2665
11319W        W30173   6.251   5.357   6.294 -0.0277 -0.3383  0.0222
11320W        W30174  16.339   2.141  12.680  0.1766 -0.0272  0.1087
11321W        W30175   5.666  14.360   0.814  0.1228 -0.1471 -0.1554
11322W        W30176   3.426   5.491  15.462  0.0307  0.3302 -0.0507
11323W        W30177   5.780   1.092   3.894 -0.3431 -0.2380  0.0834
11324W        W30178   3.116  15.202  13.478  0.0309  0.3193  0.0219
11325W        W30179   9.911  12.902   0.338 -0.1086 -0.1818 -0.2821
11326W        W30180  12.745   2.665  16.761 -0.0121 -0.0788  0.1013
11327W        W30181   5.696  15.965   3.384  0.2304 -0.0710 -0.0595
11328W        W30182   5.411   6.285  13.619  0.0392 -0.0439 -0.1651
11329W        W30183  12.276   0.271  14.104  0.2257  0.0096 -0.0757
11330W        W30184  11.912   6.914   2.430  0.0645  0.0444  0.1000
11331W        W30185   9.108   8.059  17.305  0.0228 -0.1563 -0.1522
11332W        W30186  12.363  14.238  13.478 -0.0689 -0.0089  0.2603
11333W        W30187  16.214  14.375  13.182  0.2038 -0.3076  0.0434
11334W        W30188  11.887   6.214   3.507 -0.1053  0.0420  0.1791
11335W        W30189   9.918  14.071   4.705  0.1915  0.0396 -0.0550
11336W        W30190  12.686   6.858  12.977 -0.0848  0.1401  0.0742
11337W        W30191  12.686   7.305   2.051 -0.0438  0.5045 -0.3358
11338W        W30192  12.356   1.803   0.205  0.1634  0.0570 -0.0383
11339W        W30193   2.158  15.063   3.683  0.1321 -0.3031  0.2669
11340W        W30194  10.772   5.849  14.125  0.0221  0.0670  0.1434
11341W        W30195   2.082   9.658   1.594 -0.0175  0.1686  0.0515
11342W        W30196  13.595   5.180  12.488  0.2984 -0.1237  0.1515
11343W        W30197  15.200   2.505  12.717 -0.0982  0.0367  0.2336
11344W        W30198  15.271   9.326   2.410 -0.3647  0.0073  0.1883
11345W        W30199   0.006   3.955  12.396  0.1580 -0.2112  0.0998
11346W        W30200   6.716  13.601   0.369 -0.1403 -0.1952 -0.1080
11347W        W30201   9.836   8.042  15.255  0.1680 -0.0750 -0.0830
11348W        W30202  10.895  13.016  13.888  0.1235 -0.0889  0.1592
11349W        W30203   7.606  15.112  17.193 -0.4614  0.1285  0.0954
11350W        W30204   7.835   1.269   4.794  0.0309  0.1463  0.1326
11351W        W30205   6.287   6.902  12.317  0.0621  0.1932 -0.0525
11352W        W30206  10.110  14.526   4.493 -0.2092 -0.1726 -0.2551
11353W        W30207   5.753   9.660  17.376  0.1799  0.0879  0.1248
11354W        W30208  14.145  12.520  14.138 -0.0304  0.3365  0.0958
11355W        W30209  14.055   7.818  13.637 -0.1904 -0.2945  0.1208
11356W        W30210   4.865   7.857  15.658  0.2621 -0.0110  0.0581
11357W        W30211  10.740   8.045   2.513 -0.0284 -0.1699 -0.1582
11358W        W30212   1.307   9.126   4.603  0.1529 -0.2625 -0.0253
11359W        W30213  11.008  16.920   0.420 -0.0423  0.0737  0.0589
11360W        W30214  16.449   2.376  17.199  0.0036 -0.3966  0.0183
11361W        W30215   4.398   3.122  13.941  0.3217 -0.2576  0.2624
11362W        W30216   0.070   5.658   1.679  0.1134 -0.0712  0.1922
11363W        W30217   3.613  14.595  15.409 -0.0167 -0.2079 -0.0038
11364W        W30218  10.716   4.104  13.980 -0.2978  0.1141  0.0329
11365W        W30219   3.068  15.169   1.009  0.1510 -0.2436 -0.0650
11366W        W30220  15.135  12.428   4.183 -0.0459 -0.0107 -0.2003
11367W        W30221  16.895  13.988   2.920  0.1662  0.2852  0.0014
11368W        W30222  11.247  15.308  12.241  0.0287  0.0855  0.1187
11369W        W30223  15.019  11.246   2.329  0.0382 -0.2609  0.1592
11370W        W30224  14.589  16.684   1.106 -0.2621  0.1716 -0.0624
11371W        W30225   2.781   6.195   0.668 -0.1359  0.2051  0.1243
11372W        W30226   3.851  12.565  13.963  0.3287  0.0951  0.1691
11373W        W30227   4.064   6.716  17.309  0.0308  0.0378  0.1923
11374W        W30228  12.860  16.701   1.923 -0.1020 -0.1131 -0.1057
11375W        W30229   1.270   4.547  12.195 -0.1934  0.0522 -0.1646
11376W        W30230   1.962  13.456  15.475 -0.0588  0.2371  0.2046
11377W        W30231   5.669  15.418   3.393 -0.0144  0.1652 -0.0648
11378W        W30232  14.187  16.049   4.340  0.3150 -0.0483 -0.0028
11379W        W30233   2.137  13.238   3.972 -0.0804 -0.0407  0.1796
11380W        W30234   6.263   2.473  13.098 -0.1060  0.3889  0.2582
11381W        W30235   3.246   9.082  15.530  0.1050 -0.0104 -0.0593
11382W        W30236  16.554   5.409  14.635 -0.2141  0.2518  0.0770
11383W        W30237   4.254  13.327   2.978 -0.1229 -0.1391  0.0154
11384W        W30238   5.415   4.071  15.202 -0.0213 -0.0177 -0.0328
11385W        W30239   6.118   1.107   1.786 -0.2118 -0.0389  0.2959
11386W        W30240  11.932   1.924   2.303 -0.1109 -0.0921  0.2409
11387W        W30241   8.531  10.800  16.637 -0.0503  0.0896 -0.0424
11388W        W30242   2.797  15.300  15.428 -0.1107  0.3856  0.2200
11389W        W30243   1.254   5.344   1.327  0.0598 -0.0606 -0.0977
11390W        W30244  11.589   3.774   4.301 -0.1992 -0.0109 -0.0570
11391W        W30245  11.033   9.423   5.048 -0.0533  0.0810  0.1911
11392W        W30246   2.417  16.142   4.593 -0.1796 -0.1494  0.0364
11393W        W30247   4.188  10.806  16.848 -0.2658  0.2220  0.0004
11394W        W30248   9.169  17.159  17.360  0.0913  0.1972  0.0594
11395W        W30249  16.117   1.098   3.228 -0.2707  0.0784 -0.0426
11396W        W30250  15.409   0.258   0.465  0.2125 -0.4493  0.1858
11397W        W30251   6.903   6.449  14.693  0.0030  0.1400 -0.2135
11398W        W30252  12.811  11.787   0.874 -0.0750  0.1472 -0.0699
11399W        W30253   0.861  13.412  15.266  0.1510  0.0552 -0.2872
11400W        W30254  16.651   0.384  14.618 -0.0205  0.3478 -0.1737
11401W        W30255   4.796   7.549  13.767 -0.1126 -0.0437  0.0276
11402W        W30256  12.458   5.226   2.917  0.2366  0.0030 -0.1172
11403W        W30257   3.517   9.453   1.263  0.0223 -0.0676 -0.0867
11404W        W30258   2.209  13.073  17.154 -0.1092  0.1038 -0.0305
11405W        W30259  10.713   9.135  16.709 -0.1265  0.1625  0.1565
11406W        W30260   9.009  16.731  14.884  0.1190  0.0670  0.1509
11407W        W30261  15.268   1.496   2.901 -0.1889 -0.1731 -0.1286
11408W        W30262   6.393  17.091   1.771  0.1865 -0.1869 -0.0002
11409W        W30263  10.590   9.269  15.914 -0.0107  0.0846 -0.1038
11410W        W30264   1.257   0.908  16.628 -0.0021  0.0695  0.0166
11411W        W30265  16.897  13.351   2.970 -0.0616 -0.0021  0.0053
11412W        W30266  13.546   0.166  16.743 -0.1467  0.1361  0.3952
11413W        W30267  16.265  16.941   4.264 -0.0333  0.0997  0.0950
11414W        W30268   8.545  10.221  16.459  0.2117  0.2083 -0.0513
11415W        W30269   7.139   0.807   4.686 -0.0013 -0.1776 -0.1895
11416W        W30270   2.286  10.494   2.304  0.2014  0.0893 -0.1468
11417W        W30271  16.185   0.798  16.946 -0.0035 -0.0536  0.2494
11418W        W30272  13.680   2.319  16.622 -0.1169 -0.1302  0.0453
11419W        W30273  17.071  14.117  13.468  0.5182 -0.1386 -0.0190
11420W        W30274  13.965   9.404  16.031  0.0951  0.0116 -0.1421
11421W        W30275   1.953  10.416  14.526 -0.0263 -0.0306  0.0916
11422W        W30276  10.714   2.111   4.639  0.0220  0.0013 -0.0595
11423W        W30277  12.550  14.116  17.429 -0.1505  0.3778  0.0315
11424W        W30278   6.463  13.998   4.145  0.1350 -0.0691 -0.0288
11425W        W30279  10.262   2.621  12.298 -0.0930 -0.0540  0.0926
11426W        W30280  16.514  12.898   1.807 -0.2106 -0.0140 -0.0331
11427W        W30281   6.918  17.259   1.649 -0.1453 -0.3402 -0.2692
11428W        W30282   4.222   5.278   2.851 -0.0688 -0.0585 -0.3105
11429W        W30283  10.513  12.742  16.320  0.0856  0.2410 -0.4323
11430W        W30284   6.829   2.301  16.907 -0.2365  0.4389 -0.1050
11431W        W30285  14.596   2.173   2.458 -0.0171  0.1374  0.0806
11432W        W30286  17.301   9.412   5.242 -0.0979 -0.0738  0.0477
11433W        W30287   1.372   4.779  15.195 -0.0082 -0.0898 -0.3219
11434W        W30288  14.637   5.152  13.178  0.1685 -0.1836  0.1148
11435W        W30289  14.572   2.429  13.264  0.0767 -0.0305  0.2032
11436W        W30290   9.806   0.572   2.648 -0.0829  0.1726  0.0817
11437W        W30291   1.089   4.822  16.691  0.1097 -0.1965  0.0745
11438W        W30292   4.169  12.841   5.382  0.1788  0.3303 -0.3607
11439W        W30293   2.990   2.456   3.371 -0.2111 -0.0935  0.1443
11440W        W30294  15.865   2.130   2.880 -0.1620 -0.1371 -0.1058
11441W        W30295  15.474   7.704   0.755  0.2220  0.0844  0.0029
11442W        W30296  15.873  12.670  14.647  0.0189  0.0257  0.2322
11443W        W30297  11.221   4.313   4.718  0.1701 -0.2170  0.0179
11444W        W30298   8.461   2.350   2.534 -0.0211 -0.0526 -0.0197
11445W        W30299  12.521   4.093  16.766 -0.0866  0.1512  0.0315
11446W        W30300   4.392   5.646   3.167  0.0886  0.0390  0.2441
11447W        W30301  12.186   1.699   0.629  0.0316 -0.0930 -0.0719
11448W        W30302   4.962   7.964  14.218 -0.1822  0.0003 -0.1512
11449W        W30303   6.036   8.622  12.242 -0.1500 -0.1655 -0.0574
11450W        W30304  15.177   6.125  15.433 -0.2577 -0.2245 -0.0779
11451W        W30305   7.490  10.882   3.744 -0.2243  0.1314  0.3522
11452W        W30306   3.238  10.762  13.984  0.0736  0.0587 -0.3219
11453W        W30307  16.229   5.462   3.423 -0.1681 -0.1652 -0.1581
11454W        W30308   3.214   8.490  14.770  0.0219 -0.3208  0.2008
11455W        W30309   8.551   1.750  12.689 -0.1855  0.1042  0.0520
11456W        W30310  16.288   2.590  12.960 -0.2715  0.0996 -0.0442
11457W        W30311   4.552  15.290   2.001 -0.0023 -0.1073 -0.0784
11458W        W30312   7.479   4.321  13.879  0.0787  0.3671  0.1392
11459W        W30313   2.867   4.654  13.133 -0.2226  0.3395 -0.0846
11460W        W30314  16.463  16.162  15.161 -0.0469  0.1639  0.0318
11461W        W30315  15.986   4.784  13.919  0.1757 -0.1236  0.3456
11462W        W30316   3.516  13.152  15.363  0.0303  0.1673  0.1069
11463W        W30317   1.676   1.865  14.560  0.0452  0.2627  0.0799
11464W        W30318  11.737  15.572  14.666  0.1421  0.2192 -0.0592
11465W        W30319   7.012  10.915   1.055 -0.2259  0.0055 -0.1983
11466W        W30320   0.557   3.894  14.679 -0.0167  0.1260 -0.2457
11467W        W30321   3.864  12.551  15.043 -0.2422  0.2129  0.2193
11468W        W30322  13.787   5.146  17.196  0.0016  0.0600 -0.2414
11469W        W30323  10.830  14.743  13.432  0.1469  0.0953 -0.0015
11470W        W30324  15.944  15.485   0.667 -0.1580 -0.0265  0.1295
11471W        W30325  12.404   7.939   3.574 -0.2159  0.0210  0.0206
11472W        W30326   8.759   6.562   1.179 -0.2345 -0.2669  0.0993
11473W        W30327   7.327   0.274  14.888 -0.2047  0.0405  0.0547
11474W        W30328   6.088  12.141   3.803 -0.1334  0.0675 -0.3080
11475W        W30329   4.429   5.517  12.957 -0.0505 -0.1879  0.0121
11476W        W30330   9.183   9.174   0.974  0.3934  0.3125 -0.3127
11477W        W30331   1.238   8.661  17.001  0.1385 -0.3154  0.2838
11478W        W30332   1.609   2.148   0.032  0.1048  0.0106 -0.1104
11479W        W30333  16.967   8.036  14.730  0.0270  0.0916  0.0574
11480W        W30334   9.342   9.320  16.509 -0.0927  0.1388 -0.1896
11481W        W30335   2.958   1.099   3.584  0.5540  0.0040  0.0465
11482W        W30336   6.790  14.460  17.291  0.0323  0.1562  0.2136
11483W        W30337  12.943  16.201   4.577  0.1662  0.1467  0.0283
11484W        W30338  13.816  13.831  14.571  0.0823  0.0075 -0.1842
11485W        W30339   7.406   7.357   0.622 -0.1466 -0.0123 -0.2143
11486W        W30340  10.119  12.655   3.600  0.1166  0.2495  0.0778
11487W        W30341   2.198  15.967  12.910  0.1230  0.3492  0.0345
11488W        W30342  11.018   4.301  13.676  0.1600  0.3132 -0.1250
11489W        W30343  10.465   1.175   2.133  0.4036 -0.4331  0.3042
11490W        W30344  11.124   9.795  16.894  0.1578 -0.4422  0.1234
11491W        W30345   0.369   6.369  14.724 -0.0156 -0.2313 -0.1138
11492W        W30346  13.947   9.274  17.395  0.0496  0.1007  0.0146
11493W        W30347  13.172  16.040  16.670 -0.2265 -0.4367  0.0904
11494W        W30348  10.148  12.386  16.362  0.1821 -0.3226 -0.0417
11495W        W30349   4.145   5.476   1.838  0.0855  0.2362  0.1018
11496W        W30350  15.949   3.112   3.274  0.2536 -0.1836  0.0070
11497W        W30351  12.404   6.975  14.923  0.0230 -0.1609  0.0115
11498W        W30352   2.620  16.846  14.185 -0.0331 -0.2016 -0.0330
11499W        W30353   5.657   2.707   3.410 -0.1146  0.1540  0.0613
11500W        W30354   8.564   2.823  13.313 -0.4729 -0.0581 -0.1843
11501W        W30355   5.103  14.673  16.431  0.2212 -0.0019 -0.1967
11502W        W30356   1.235   3.218  14.690 -0.0050  0.0780  0.0935
11503W        W30357   3.793   8.567  13.522  0.1133 -0.0344  0.0294
11504W        W30358   6.815  11.268  12.480  0.0270 -0.2160  0.1312
11505W        W30359  14.921   8.652  12.423 -0.0566 -0.0453  0.1547
11506W        W30360   2.228   4.742  17.175  0.0545 -0.0734  0.2062
11507W        W30361  16.589   9.419  14.493  0.1012 -0.0788  0.2053
11508W        W30362  12.408   6.095  12.359 -0.2648 -0.0839 -0.0392
11509W        W30363   6.185  10.100   2.619  0.1040 -0.0522  0.0098
11510W        W30364   8.078   0.066   0.145  0.0427  0.2760  0.0870
11511W        W30365   7.730   3.960  16.717  0.3078  0.5190 -0.2278
11512W        W30366   2.184   1.939  17.329 -0.1524 -0.2924 -0.2888
11513W        W30367   2.385  11.421  14.520  0.0095  0.1232 -0.2247
11514W        W30368  15.882   7.185  14.380  0.2530  0.1131 -0.2722
11515W        W30369   0.256   4.334  16.619  0.2988 -0.0446  0.1889
11516W        W30370   6.906   6.702   1.235 -0.3851  0.0450 -0.0545
11517W        W30371  15.934   9.502  16.275  0.2730 -0.0438 -0.0743
11518W        W30372   6.360   0.488   3.045 -0.4387  0.2905  0.1817
11519W        W30373   3.143   9.818   1.610  0.0924  0.1371  0.2063
11520W        W30374   3.128  11.124   1.066  0.0144  0.0198 -0.3078
11521W        W30375  11.146  17.077  15.783  0.1178  0.0235 -0.0378
11522W        W30376   0.501   8.885  14.673 -0.0097  0.2659  0.0755
11523W        W30377  14.985   2.476   1.190  0.0786  0.0500 -0.1605
11524W        W30378   4.534  12.430  16.574  0.0718 -0.1496  0.0101
11525W        W30379   7.023   0.651  14.923  0.1028 -0.1928 -0.0683
11526W        W30380   5.629   8.053   1.379 -0.1600 -0.2544  0.4399
11527W        W30381   5.562   6.191   2.697 -0.3342 -0.0812 -0.0805
11528W        W30382  11.001  11.808  13.565  0.3129 -0.0344 -0.1028
11529W        W30383   5.249  16.412   4.605  0.0650 -0.0026  0.1814
11530W        W30384  16.929   8.691   1.045 -0.0895  0.0850  0.1201
11531W        W30385   2.087   3.021   0.167  0.1162  0.1954 -0.1115
11532W        W30386  15.165  12.413   3.354 -0.2989  0.0805  0.1917
11533W        W30387  16.927   5.137   4.562  0.0923 -0.2157  0.1099
11534W        W30388   6.743   4.232   4.728  0.1161 -0.0558 -0.4284
11535W        W30389   4.209  15.390   3.886  0.1126  0.3521  0.2145
11536W        W30390  10.081   0.168  14.945  0.0949  0.1041 -0.0747
11537W        W30391  15.778   9.533  13.453  0.3011  0.0159 -0.0151
11538W        W30392   1.279  12.669   3.104 -0.1574  0.1170 -0.3686
11539W        W30393   6.075  14.243  14.981  0.2675 -0.0496  0.1946
11540W        W30394  17.238   0.434  15.077  0.0819 -0.3285  0.1972
11541W        W30395  10.949  10.226   5.476 -0.1387 -0.1155 -0.2519
11542W        W30396   5.332  13.059  15.044  0.1229  0.1944 -0.0247
11543W        W30397   8.105  10.383   1.880 -0.1538  0.1821 -0.2128
11544W        W30398   2.155   5.266  13.851  0.0292  0.0441 -0.0196
11545W        W30399  10.719   5.281  15.637  0.3393 -0.1480  0.0310
11546W        W30400  13.441   3.614  14.332  0.2493  0.0437 -0.0705
11547W        W30401  10.291   3.122   2.133 -0.0212  0.1068 -0.3693
11548W        W30402   0.407   0.268  15.182 -0.0380  0.2934 -0.1548
11549W        W30403  17.279   7.275  16.210  0.0019 -0.1193 -0.0114
11550W        W30404   0.059  10.891  16.302  0.3929  0.0087  0.2211
11551W        W30405   6.152  14.276  16.344  0.1951  0.1171 -0.1628
11552W        W30406   5.021  14.797  14.022  0.2997  0.0545  0.0213
11553W        W30407  11.907  11.964  14.664 -0.1756 -0.1084 -0.2559
11554W        W30408   9.326  10.892   3.434  0.2028 -0.0771 -0.1268
11555W        W30409   2.909  12.179  15.982 -0.0347  0.2417 -0.0623
11556W        W30410   2.437   8.882  15.955 -0.0448  0.2950  0.0270
11557W        W30411   6.975   6.431  15.685 -0.0851  0.2621 -0.0050
11558W        W30412  12.859   5.790   4.256 -0.2255 -0.0081  0.1510
11559W        W30413   6.761  14.691   1.659  0.0312  0.1120 -0.0148
11560W        W30414   1.860   3.062  16.018 -0.0625 -0.2341  0.1446
11561W        W30415  14.588   9.778  14.306  0.0145  0.0227  0.0441
11562W        W30416  11.874  11.577   1.135  0.2259 -0.2546  0.0968
11563W        W30417  12.814   2.903   4.130 -0.0816  0.0031 -0.2779
11564W        W30418   5.221   0.355   2.823 -0.1318  0.0094 -0.0317
11565W        W30419   8.364   2.648  15.921 -0.0346 -0.0364  0.1577
11566W        W30420   5.425  12.017  11.769  0.0015  0.2293  0.0800
11567W        W30421  10.310  17.329   4.210 -0.0835  0.0893 -0.1581
11568W        W30422   6.021  13.660  17.085  0.1908 -0.1734 -0.1190
11569W        W30423   0.656   1.698  13.511  0.0576  0.1091  0.0980
11570W        W30424   5.639   8.041  13.979  0.2920 -0.0369  0.0567
11571W        W30425   4.766   3.881  14.669 -0.1189 -0.2621  0.0478
11572W        W30426   0.068  13.961   0.623 -0.2069 -0.1543 -0.1647
11573W        W30427   6.626   5.087  14.243  0.0988  0.1166 -0.0937
11574W        W30428  17.120  12.048   5.258  0.1078  0.0652 -0.1080
11575W        W30429  12.458  14.517   2.317  0.1094  0.0665 -0.0809
11576W        W30430  11.348   4.302   2.065  0.0426 -0.2655 -0.0932
11577W        W30431   9.162   1.712   3.932 -0.0002  0.0208  0.1305
11578W        W30432  13.354  13.136  16.939 -0.3991  0.0386 -0.1292
11579W        W30433  16.217  15.115   1.099 -0.0573  0.1255  0.0774
11580W        W30434   8.386   8.104  13.236  0.1328 -0.1861  0.0446
11581W        W30435  11.556  13.261   3.162 -0.2348  0.1953  0.0120
11582W        W30436   4.435   3.130   4.810 -0.1059 -0.0204  0.1991
11583W        W30437   4.218   7.100   1.125 -0.0016  0.0974  0.1894
11584W        W30438   6.720  15.443  13.770  0.0298  0.3543 -0.3472
11585W        W30439   7.746   0.045   4.371  0.2130 -0.2170  0.0492
11586W        W30440   6.165   5.398   1.734 -0.0097  0.1717  0.1047
11587W        W30441  10.526   8.553   5.138  0.1165 -0.0173  0.0329
11588W        W30442   7.632   2.400   0.997  0.0156  0.0054 -0.1105
11589W        W30443   5.289   3.573  16.039  0.0516 -0.1866  0.0454
11590W        W30444  11.838   3.809  12.847  0.0464 -0.1462  0.2883
11591W        W30445   8.634   5.188  14.067 -0.1668  0.1602 -0.0323
11592W        W30446  10.301   9.894  16.343  0.0354 -0.0607  0.0592
11593W        W30447  15.859   6.879   0.607 -0.1023  0.3058 -0.1131
11594W        W30448   5.701   1.528  17.121 -0.1105 -0.1912 -0.0252
11595W        W30449  14.018   6.599   4.959  0.2125  0.3473  0.1507
11596W        W30450  16.104   3.748   0.699 -0.1011  0.0532 -0.2103
11597W        W30451  15.061   8.707  14.869 -0.0849  0.1456 -0.1702
11598W        W30452   4.108  14.711  15.544  0.1374  0.0429 -0.0316
11599W        W30453   2.500   7.446  12.433 -0.2699  0.0935  0.3158
11600W        W30454  10.107  10.130  17.136  0.1645 -0.0044  0.1367
11601W        W30455   8.413   9.032   3.308  0.1551  0.0623  0.0803
11602W        W30456   6.282  11.718   4.500 -0.1067 -0.1640  0.3391
11603W        W30457  15.656   4.052   4.515 -0.1673  0.0354 -0.0168
11604W        W30458  11.320   2.676   0.633 -0.0474 -0.1381  0.0136
11605W        W30459  11.469   6.996  15.310 -0.2323 -0.0121  0.0722
11606W        W30460   8.091   2.467  13.513 -0.0884 -0.0623 -0.3173
11607W        W30461  17.066   2.184  15.477  0.0726 -0.1296 -0.1755
11608W        W30462   2.909  10.417   4.615  0.2022  0.1963 -0.1561
11609W        W30463   5.275  12.547   4.644  0.0054 -0.0493 -0.1615
11610W        W30464  12.504  14.966  14.787  0.0833 -0.2841 -0.0093
11611W        W30465   8.595  12.972  12.715 -0.0903  0.3848 -0.1362
11612W        W30466   5.781  13.925   1.671 -0.0611 -0.3173  0.0776
11613W        W30467   7.836   5.396   3.432  0.1226 -0.0805  0.1887
11614W        W30468   0.384   0.792   0.771 -0.1215 -0.0008  0.1151
11615W        W30469   5.429  12.607  14.985 -0.1700  0.0756  0.0049
11616W        W30470  16.260  12.713  15.468 -0.1491 -0.1157 -0.2860
11617W        W30471   4.148   5.496   4.688  0.0227  0.0101 -0.0313
11618W        W30472   3.215   2.294  17.440 -0.1046  0.0452  0.2171
11619W        W30473   2.852   1.509  14.794  0.1791  0.2210  0.2542
11620W        W30474   3.450   9.996   0.646  0.0090  0.2074  0.0779
11621W        W30475   4.758   3.963  13.008  0.2168  0.3831  0.2335
11622W        W30476  13.749  16.391  15.125 -0.0984 -0.1939  0.0314
11623W        W30477   2.494  12.091  13.790 -0.0380  0.0996  0.2414
11624W        W30478  11.498  11.324   2.353 -0.0834 -0.0051 -0.3440
11625W        W30479  11.654  10.294  15.781 -0.1033 -0.1883  0.0624
11626W        W30480  14.457  10.889  13.695  0.0462  0.0179 -0.0129
11627W        W30481  13.158  11.723  16.338  0.0847  0.0899  0.0573
11628W        W30482  13.235   1.594   5.171 -0.0104  0.2009  0.0154
11629W        W30483   9.279  15.187   3.447  0.1308  0.3356  0.0722
11630W        W30484  15.859  16.755   5.074 -0.1614 -0.1785  0.0315
11631W        W30485  16.577   2.775   4.245  0.0211 -0.0050  0.0250
11632W        W30486   6.513  11.414  17.085  0.0166  0.0461 -0.0082
11633W        W30487   9.277   5.573   0.224 -0.3649  0.4285  0.0398
11634W        W30488   2.965  14.956  13.955  0.0948 -0.4747 -0.5609
11635W        W30489   6.861  16.638  11.614  0.0472 -0.2900 -0.0342
11636W        W30490   9.968   9.753  16.817 -0.1139  0.0135 -0.1724
11637W        W30491   4.568  15.831   0.037 -0.0406  0.1755  0.0803
11638W        W30492   9.038  12.866   3.779 -0.0714 -0.0960  0.0260
11639W        W30493  15.401  14.279   5.085 -0.3138 -0.0564 -0.3265
11640W        W30494   1.212   0.346   2.578 -0.0449  0.2836 -0.0058
11641W        W30495   7.052  15.098  13.648 -0.0161 -0.1238 -0.1249
11642W        W30496   4.620   4.501  12.440  0.4095  0.1002 -0.0588
11643W        W30497  16.777   6.412  16.068  0.0903 -0.1232  0.4840
11644W        W30498   6.220   9.270  14.908 -0.0108  0.1897 -0.0259
11645W        W30499   4.641   9.469  14.965 -0.0774 -0.0428 -0.1586
11646W        W30500  15.821   3.624  16.604  0.2232 -0.0305  0.0365
11647W        W30501  10.345  11.340  11.933  0.0498  0.1572  0.3290
11648W        W30502  13.018  13.812  14.089 -0.1538 -0.2737 -0.0060
11649W        W30503   5.921  10.463  15.246 -0.3139 -0.0057 -0.3500
11650W        W30504  16.344  13.667  16.427  0.1323 -0.1269 -0.0313
11651W        W30505   8.482   7.588   3.865 -0.1579  0.1188 -0.0310
11652W        W30506  10.107   7.603   1.919 -0.2560 -0.0236 -0.1186
11653W        W30507   7.217   3.573  16.775  0.2561 -0.1683  0.0980
11654W        W30508   2.194   3.859  17.301 -0.0284 -0.1869 -0.2393
11655W        W30509  10.191   7.742   3.154  0.0934  0.1224  0.0396
11656W        W30510   5.512  12.670   2.683 -0.0164 -0.0970  0.3510
11657W        W30511  11.738  11.914  12.300 -0.0094  0.1366 -0.1968
11658W        W30512   5.227  10.945   1.832  0.1433 -0.0821 -0.0603
11659W        W30513  10.624   7.705   1.047 -0.2626 -0.0922  0.5002
11660W        W30514   4.091  14.255  16.981 -0.1167 -0.3420 -0.2096
11661W        W30515  12.467  17.325   0.140  0.0013 -0.1744 -0.1096
11662W        W30516  16.084  14.796  15.820  0.3797 -0.1785 -0.0922
11663W        W30517   8.156  11.236   2.402 -0.1904 -0.4078 -0.0215
11664W        W30518  13.497   1.407  13.317  0.1889  0.0648  0.0132
11665W        W30519  14.812   3.165  14.600 -0.1717 -0.1480  0.1553
11666W        W30520   0.027  12.879   4.752  0.1017  0.0938  0.1628
11667W        W30521   6.875  13.014  13.299  0.1389  0.1473  0.1647
11668W        W30522   3.989   3.968   3.310 -0.0238 -0.0802  0.1981
11669W        W30523   2.348   5.860  14.045 -0.1962 -0.1962  0.4643
11670W        W30524   8.030   4.865   1.118  0.0786 -0.2086  0.2299
11671W        W30525  13.633  13.026  16.540  0.0756 -0.3253 -0.0735
11672W        W30526   2.296  14.800  13.771 -0.1226  0.0536 -0.1247
11673W        W30527  11.862   1.682   5.119  0.0149 -0.1645  0.0096
11674W        W30528   2.825   7.343   3.477  0.1602  0.2598 -0.0382
11675W        W30529   0.002  11.144   1.666 -0.1120  0.0975 -0.3492
11676W        W30530   8.184   5.033  17.431  0.2677  0.0549  0.1643
11677W        W30531   9.634   5.238   0.433  0.0662  0.0781 -0.1055
11678W        W30532   2.256   4.327  13.818 -0.0888 -0.0452  0.0100
11679W        W30533   2.567  12.359   2.722 -0.1924  0.1653  0.2092
11680W        W30534  12.250   3.493   3.540  0.0218 -0.0544  0.3883
11681W        W30535  12.734  10.544  16.104  0.0575 -0.3077 -0.1501
11682W        W30536   1.379   0.218   4.620  0.2067  0.0014 -0.3644
11683W        W30537  16.791   3.731  13.810 -0.0722  0.1103 -0.1421
11684W        W30538   1.745   5.519   1.435 -0.0974 -0.0375  0.0890
11685W        W30539   0.487  16.515   0.565 -0.2506 -0.0270 -0.2388
11686W        W30540   6.321   5.986  16.431 -0.0669  0.1172 -0.1577
11687W        W30541   9.368   4.434   1.307  0.0920  0.0243  0.0049
11688W        W30542  16.444   5.944  15.548 -0.0135  0.1717  0.1725
11689W        W30543  15.890  13.457   4.918  0.0061 -0.0075  0.0612
11690W        W30544   7.524  15.929   3.593  0.1107 -0.2177 -0.3554
11691W        W30545   8.326  13.807  13.890  0.0477  0.1622 -0.0623
11692W        W30546   7.206  17.278  16.425  0.3044  0.0742  0.0306
11693W        W30547  12.583  12.856   2.484 -0.0802  0.2034  0.1494
11694W        W30548   1.968   6.779   3.116 -0.2153 -0.1414 -0.2235
11695W        W30549   0.766  13.446  17.307 -0.0028  0.1452  0.0577
11696W        W30550  13.990  13.308  16.904  0.0695  0.0293  0.2260
11697W        W30551  10.228   8.860  15.559  0.1124 -0.0422 -0.0797
11698W        W30552  15.872   2.916   1.619  0.0316  0.0227  0.0691
11699W        W30553  11.663  12.781  12.852  0.1345  0.2340  0.0389
11700W        W30554  13.939   7.126  14.413  0.1637 -0.2268  0.2109
11701W        W30555  14.574  14.461   0.411  0.1242 -0.4528  0.1537
11702W        W30556  16.240   0.095  15.077  0.1012  0.1269  0.2259
11703W        W30557  14.114  10.669   1.252  0.1837  0.1444 -0.1982
11704W        W30558  11.367   6.999   1.756  0.0367  0.1162 -0.1120
11705W        W30559   8.513  13.559  13.547  0.2540  0.1960  0.0990
11706W        W30560   8.373   5.821  14.676  0.0146 -0.3943  0.0941
11707W        W30561  11.523  13.631   5.046  0.2137 -0.0488 -0.1038
11708W        W30562  10.494   5.771   5.326 -0.0369 -0.0388 -0.1761
11709W        W30563  15.725  16.899   0.630  0.1557 -0.0786 -0.4017
11710W        W30564  10.615  13.778   0.688 -0.0616  0.3992 -0.2076
11711W        W30565   9.314   2.690   2.799  0.0646 -0.3055  0.1201
11712W        W30566  14.424   8.423   3.750 -0.2024  0.0441 -0.1701
11713W        W30567   5.819  11.353  13.114  0.2428  0.2068 -0.2761
11714W        W30568   3.301   1.342   5.146 -0.0530 -0.0313  0.0026
11715W        W30569  12.785   1.348  13.159 -0.1960  0.0942 -0.1364
11716W        W30570  14.859   2.542   5.155 -0.1995 -0.3030  0.4113
11717W        W30571  10.132  11.843   2.437  0.1567 -0.0555  0.0596
11718W        W30572   5.461  13.644  15.944 -0.0552  0.2534  0.0096
11719W        W30573   1.824   4.803  16.832 -0.0477  0.0035 -0.0540
11720W        W30574  13.689   8.244  13.846 -0.0917  0.0700  0.0073
11721W        W30575   7.437  16.122   4.490  0.0311  0.0549 -0.2058
11722W        W30576   7.298   1.479  16.231 -0.0517  0.2628 -0.0030
11723W        W30577   6.491   3.830  12.740 -0.0576  0.1686 -0.2023
11724W        W30578  10.942   6.248   1.186 -0.1586 -0.2806 -0.3903
11725W        W30579   8.850   5.710  14.478  0.1858 -0.0759  0.0293
11726W        W30580  11.220   5.199   1.832  0.0464  0.3435  0.3206
11727W        W30581  16.705  17.291  14.350 -0.0483  0.3009  0.1767
11728W        W30582   6.255   2.147   3.348  0.0501  0.1515 -0.2033
11729W        W30583   7.655   9.905   4.483 -0.1558 -0.1448  0.1144
11730W        W30584  12.150  11.763  12.562  0.1158 -0.0605  0.0375
11731W        W30585  13.918   9.227  13.274 -0.0066 -0.2785  0.0315
11732W        W30586  15.983   0.535  14.121 -0.3148 -0.1889  0.0090
11733W        W30587   6.777   5.429  16.792 -0.0777  0.2169  0.0545
11734W        W30588  13.397  14.442  16.381  0.1602 -0.2855 -0.0250
11735W        W30589   4.993  12.983  13.198 -0.0121  0.1309  0.1557
11736W        W30590  14.976   9.580   0.964 -0.0785  0.0598  0.0560
11737W        W30591   0.472   2.971   3.306  0.1216  0.3777 -0.1255
11738W        W30592  16.406  16.085  13.315 -0.0830  0.1947  0.0617
11739W        W30593  10.161   6.306  13.682 -0.1664 -0.2847 -0.0652
11740W        W30594  15.594   9.667   3.884 -0.1507 -0.0746 -0.1186
11741W        W30595  14.188   3.152   4.128  0.3742 -0.0290 -0.0158
11742W        W30596  15.743   8.425  14.150 -0.1127  0.1596  0.4289
11743W        W30597   1.484  10.516  14.314 -0.0615  0.0632  0.1320
11744W        W30598   7.813   8.208  13.798 -0.1743  0.1826  0.1099
11745W        W30599  10.085  11.992  15.025 -0.2012  0.0360 -0.0916
11746W        W30600   1.338   1.831   0.755 -0.0391 -0.1877 -0.0944
11747W        W30601   8.126   2.193   2.187 -0.2042 -0.2720  0.0430
11748W        W30602   3.952   4.657  14.676 -0.2044  0.0821 -0.0530
11749W        W30603   0.444   2.790   0.010 -0.1578  0.1858 -0.0187
11750W        W30604  16.266   8.279  15.851 -0.1609 -0.0981  0.1469
11751W        W30605   7.937   2.533  14.464  0.1398  0.0592 -0.1668
11752W        W30606   3.759   2.892  12.948  0.2291 -0.0194  0.0575
11753W        W30607  16.283  14.673   0.323  0.1300 -0.1017 -0.1872
11754W        W30608   6.544  12.636  15.941  0.0109  0.1374 -0.2010
11755W        W30609   9.583   0.752   5.316 -0.0637 -0.0545 -0.2361
11756W        W30610   6.617   2.710  16.974  0.0327 -0.1428 -0.1463
11757W        W30611   0.434   1.542  12.524 -0.1829  0.0598 -0.3333
11758W        W30612  10.742  15.265  15.790  0.0487  0.3680 -0.1430
11759W        W30613  15.005  10.229  12.744 -0.2289 -0.1783  0.0778
11760W        W30614   7.649   2.651   0.459 -0.0130 -0.1796 -0.2013
11761W        W30615  17.336  14.772  14.068 -0.0103  0.1015  0.0880
11762W        W30616  12.709   7.819  14.929  0.0655  0.0219 -0.4372
11763W        W30617   0.396   8.181   0.897 -0.2839 -0.0526  0.0040
11764W        W30618   7.945  12.706  14.298  0.1934 -0.2858  0.0505
11765W        W30619  16.115   6.270   4.699  0.0203 -0.0985  0.1540
11766W        W30620   2.486  17.202  16.976  0.0548 -0.0742  0.2313
11767W        W30621  10.893  14.659   4.924  0.0104 -0.0576  0.2425
11768W        W30622   1.498   0.798  17.216  0.1333  0.0700  0.2062
11769W        W30623  16.099   5.121  12.098 -0.0528  0.1348 -0.5755
11770W        W30624   4.890   0.916   4.173 -0.2977 -0.2301  0.0904
11771W        W30625   7.266   2.689  12.018  0.0489 -0.0054 -0.0090
11772W        W30626   3.865   0.085  13.375  0.2090  0.0450 -0.2528
11773W        W30627   3.568  13.188   2.003  0.0738 -0.2376 -0.1019
11774W        W30628   1.921  10.992  17.385  0.1042 -0.0232  0.1506
11775W        W30629  11.098   9.911   5.027  0.3877  0.0378  0.1452
11776W        W30630   2.733  12.048   5.392  0.4409 -0.1183 -0.0119
11777W        W30631   4.862   9.655  16.280 -0.0469  0.2822 -0.2413
11778W        W30632  13.756   6.685  14.615 -0.3463  0.1366  0.0660
11779W        W30633   7.465  10.983  17.347  0.1611  0.0329  0.3350
11780W        W30634   7.348   5.170   4.590 -0.0293 -0.2046  0.3277
11781W        W30635  12.281  10.988  13.752 -0.4803  0.1426 -0.4629
11782W        W30636   3.839   5.368  15.655 -0.1384 -0.0234  0.0066
11783W        W30637   6.425  11.516   5.352 -0.0696 -0.3224 -0.2175
11784W        W30638   5.390   9.014   4.539  0.2653 -0.0849 -0.1017
11785W        W30639  14.262  16.362  17.106  0.1205  0.0209  0.0859
11786W        W30640   4.783  14.303   3.012  0.0450  0.4137  0.1509
11787W        W30641   3.174   4.858  16.390 -0.0807 -0.1042  0.0791
11788W        W30642   8.807   9.405   3.313  0.0794  0.0142  0.0924
11789W        W30643   2.990  11.566   2.386  0.1227  0.1642 -0.0011
11790W        W30644   5.715   3.897  17.383 -0.1680 -0.1209 -0.0088
11791W        W30645  14.319   1.226  15.729  0.1500  0.0196  0.2191
11792W        W30646   7.767  11.527  15.295  0.0426  0.1198  0.0562
11793W        W30647  13.493   7.360   0.208  0.1635  0.2070 -0.2766
11794W        W30648  12.044  15.040  13.983 -0.2584  0.0887 -0.1290
11795W        W30649  10.474   5.054  15.225 -0.0179  0.0198  0.0368
11796W        W30650   8.252   8.950  16.363 -0.0464  0.0732 -0.5035
11797W        W30651   1.840  17.240   1.865  0.2000  0.0435  0.2411
11798W        W30652   8.379  13.902  12.367 -0.2541 -0.2786 -0.1822
11799W        W30653  16.032   6.789  12.711  0.2272 -0.2357 -0.0532
11800W        W30654   3.324  11.210   1.536 -0.1236  0.0188 -0.1468
11801W        W30655   1.739   8.303  12.675 -0.1726  0.2496 -0.0697
11802W        W30656   6.205   1.624  12.924  0.0527  0.0597 -0.0043
11803W        W30657   6.512   8.770   2.766 -0.0876  0.3607  0.1042
11804W        W30658   5.293  11.591   0.475 -0.5203 -0.0650 -0.3959
11805W        W30659   5.545   1.191   1.786  0.2298  0.0517  0.2926
11806W        W30660   5.068  17.137   4.142 -0.0215 -0.0214 -0.0910
11807W        W30661   6.735  11.079   5.399  0.0384  0.1276  0.1920
11808W        W30662   9.943  10.593  17.035  0.0006 -0.0537  0.4747
11809W        W30663  13.440   7.843   0.991  0.0839  0.3522  0.0764
11810W        W30664  13.415  13.384  15.607 -0.0889  0.1437  0.1677
11811W        W30665   9.236   1.158   3.793 -0.1790 -0.2185 -0.2210
11812W        W30666  12.011   2.738  17.037 -0.0724 -0.1146 -0.0656
11813W        W30667   0.933   8.832   4.887  0.0516  0.0735 -0.3936
11814W        W30668   3.167  14.653   0.056  0.1604 -0.1077 -0.2109
11815W        W30669  12.086  12.803   1.546  0.0196 -0.0988 -0.1459
11816W        W30670   7.892   7.718  16.853 -0.0197 -0.2952 -0.1400
11817W        W30671  10.274   4.603  12.954 -0.0007  0.0767  0.0412
11818W        W30672  17.162  12.202   2.826  0.2386 -0.0312 -0.0051
11819W        W30673   6.045  13.030   0.780  0.3470 -0.0255 -0.0813
11820W        W30674   8.343   5.143   4.924 -0.2670  0.1178 -0.2451
11821W        W30675   6.816   9.429  12.632 -0.0389  0.1688 -0.1995
11822W        W30676  16.895  16.887   1.073 -0.0512  0.2305 -0.1066
11823W        W30677  15.693   4.590  13.449 -0.2157  0.0688 -0.1511
11824W        W30678   1.829   6.559   0.466  0.0939 -0.0456 -0.0320
11825W        W30679  16.221   2.286  14.698  0.1992 -0.2271 -0.1064
11826W        W30680  10.382   3.997   4.388 -0.0123 -0.0092 -0.4167
11827W        W30681   5.388   4.619   0.685 -0.3046  0.0818  0.0982
11828W        W30682  13.142  11.762  14.163  0.1361 -0.2805  0.1070
11829W        W30683   2.783   4.856   4.520 -0.2866  0.0306 -0.0339
11830W        W30684   9.685   1.551   0.841  0.0868 -0.1090 -0.1218
11831W        W30685  15.168   0.279  14.360  0.2974 -0.1464 -0.0715
11832W        W30686   8.759   2.485  14.584 -0.2047 -0.2923  0.2257
11833W        W30687   0.694   0.511  16.885  0.0185 -0.2232 -0.0786
11834W        W30688  10.378   2.339  17.285  0.2075  0.0556  0.0260
11835W        W30689   0.424  11.666  14.266 -0.0022 -0.1631 -0.2385
11836W        W30690  16.213   7.324  14.778 -0.3934 -0.0282  0.0895
11837W        W30691  14.433   5.612  13.966 -0.2308 -0.2458  0.0840
11838W        W30692  10.924  16.706  14.460 -0.2354 -0.0145  0.0133
11839W        W30693   3.691   7.488  15.061  0.1189  0.0981  0.1958
11840W        W30694  15.956  14.982   0.710  0.2109  0.1676  0.1539
11841W        W30695   6.609   3.569  15.901  0.1875 -0.0180 -0.2027
11842W        W30696  11.434  12.748   3.071  0.1210  0.1104  0.0504
11843W        W30697   6.406   2.084  12.781  0.0528  0.1514  0.1764
11844W        W30698  14.302   0.619  13.940 -0.2462  0.1637  0.1074
11845W        W30699   7.776   5.259   0.140 -0.2869  0.1182 -0.1426
11846W        W30700  10.838  13.077  12.420 -0.1222  0.0956  0.1814
11847W        W30701   3.418   4.966   3.764  0.1423 -0.1453  0.0982
11848W        W30702   7.679   3.085  16.470 -0.0927  0.1056 -0.1346
11849W        W30703  12.222   8.063  13.216 -0.1183  0.1128  0.0473
11850W        W30704   7.826  16.262   2.833  0.0883  0.0716  0.0456
11851W        W30705   7.904   8.147  12.926  0.1906 -0.0749  0.3123
11852W        W30706   1.989  15.679  12.119 -0.0032  0.0667 -0.0520
11853W        W30707   0.117   8.972  16.522 -0.1959  0.1253  0.1925
11854W        W30708   9.119  10.930  13.513  0.1579 -0.2472 -0.0026
11855W        W30709   0.241   3.466   1.879  0.0891  0.1198  0.1006
11856W        W30710   3.726  13.473   2.912 -0.2061  0.1047  0.1027
11857W        W30711  12.653   6.527   3.463  0.1353 -0.1241  0.1630
11858W        W30712  12.788  10.312   5.250 -0.1410 -0.1537  0.0445
11859W        W30713   8.299   4.464   1.230 -0.1341  0.2744  0.0037
11860W        W30714   8.498   4.687   1.627 -0.0058 -0.0239  0.0697
11861W        W30715   5.986   8.420  14.141 -0.1017  0.1513 -0.2830
11862W        W30716  10.727   7.191   0.978  0.1003  0.0732 -0.0155
11863W        W30717  11.621  11.333  15.892 -0.3541  0.1509 -0.0169
11864W        W30718  11.932  15.692  17.346  0.1416  0.2347  0.0399
11865W        W30719  13.969   4.026  15.276  0.0481  0.1005  0.2260
11866W        W30720  14.061   2.143  15.851 -0.1635  0.0253 -0.0414
11867W        W30721  13.926   5.214   0.741  0.2050 -0.2262  0.0234
11868W        W30722   7.280   5.253  13.587 -0.0258 -0.3814  0.2446
11869W        W30723   9.571   1.997   4.960  0.1055  0.1066  0.3378
11870W        W30724   4.487   2.938   0.766 -0.1491  0.1408  0.4290
11871W        W30725   8.570   3.763  16.550  0.1022 -0.4002  0.2270
11872W        W30726   0.826   9.390   1.448 -0.2350  0.0554 -0.2238
11873W        W30727   3.073  14.123  17.344  0.0418 -0.2386 -0.2780
11874W        W30728  16.569   7.625   5.487 -0.2345 -0.1851 -0.0387
11875W        W30729   2.233   5.787   1.413 -0.2457  0.2673  0.3117
11876W        W30730  10.722   3.943  15.610 -0.1892  0.0523 -0.0171
11877W        W30731   3.276   1.575   4.314  0.0755  0.0991 -0.5451
11878W        W30732   5.913   7.953   1.857 -0.0457  0.0299  0.2845
11879W        W30733   0.200  11.317   5.507 -0.0839 -0.0131  0.3022
11880W        W30734  16.349   3.973  14.732  0.2499 -0.2142 -0.0462
11881W        W30735  11.569  10.646  16.133  0.2059 -0.2501 -0.0142
11882W        W30736   3.602  13.497  17.084 -0.1652  0.0341 -0.1037
11883W        W30737   1.368  11.254   2.037 -0.2339 -0.0239  0.1396
11884W        W30738  11.248  10.060  15.253 -0.2498  0.1005 -0.2651
11885W        W30739  16.429   1.663   4.721 -0.0941  0.1642 -0.1666
11886W        W30740  13.496  10.333  13.740  0.1059 -0.2099  0.3614
11887W        W30741   8.717  16.084   0.710 -0.0522 -0.1396 -0.1812
11888W        W30742  15.299   2.585   3.594 -0.2407  0.0134  0.0210
11889W        W30743   0.673  12.565   1.453 -0.0377  0.0163  0.3245
11890W        W30744   6.973   3.734  12.849  0.1604  0.0232 -0.0487
11891W        W30745  15.618   5.436   1.399  0.1976  0.1950 -0.2217
11892W        W30746   7.618   1.850  14.983 -0.0920 -0.3420  0.4816
11893W        W30747   8.862   6.224  14.207 -0.1788  0.1099 -0.2022
11894W        W30748  17.073   3.617  16.309 -0.1956 -0.3931  0.0677
11895W        W30749  14.515  10.076   0.472 -0.0683 -0.1787  0.4011
11896W        W30750  17.106  13.723  14.700  0.2671  0.0193 -0.0204
11897W        W30751  10.383   1.700   4.715  0.5616  0.0950  0.0241
11898W        W30752  13.676   8.073   3.752 -0.4311 -0.0020  0.0061
11899W        W30753   7.066   8.550   1.585  0.3077  0.2545 -0.2881
11900W        W30754   3.844   4.702  13.411 -0.1008 -0.1672  0.4280
11901W        W30755  15.882   6.645  15.931 -0.1063  0.1569  0.2491
11902W        W30756   7.286   7.567  14.914  0.1920 -0.1960 -0.1148
11903W        W30757   8.828   5.072   2.169 -0.0056 -0.4793 -0.5316
11904W        W30758  16.558   2.953   5.082  0.0403  0.2560  0.2148
11905W        W30759   2.647  12.309   4.281  0.2239 -0.1226 -0.0212
11906W        W30760   1.906  17.032   1.303 -0.0250 -0.0745 -0.0349
11907W        W30761   9.373  14.318  16.175  0.0975  0.1186 -0.3745
11908W        W30762   3.835   4.438   5.268  0.3082 -0.0159 -0.3227
11909W        W30763  12.116   8.959   0.647 -0.2177  0.0881  0.2359
11910W        W30764   9.639  12.437   3.469  0.2372  0.4101  0.1323
11911W        W30765   9.174  11.460   2.296 -0.0049  0.2580  0.1789
11912W        W30766   8.469   3.494   0.108 -0.0758 -0.1345 -0.2445
11913W        W30767  14.295  13.510  13.046  0.1231 -0.1671  0.1101
11914W        W30768   7.539  15.827  14.146 -0.5223  0.0995 -0.2298
11915W        W30769  13.200  10.540   3.989 -0.1998  0.3318  0.0302
11916W        W30770   5.649  11.518   1.574  0.0477 -0.1340  0.0774
11917W        W30771  15.073   3.691   0.728 -0.1599  0.0532  0.2527
11918W        W30772   9.704   4.083   5.419  0.0584 -0.3440 -0.0219
11919W        W30773   3.228  14.834   3.080  0.2323  0.2069  0.0959
11920W        W30774   3.710  15.112   3.900 -0.0970 -0.2226  0.1394
11921W        W30775   6.138   2.641   5.323  0.1904  0.0952  0.2235
11922W        W30776   9.185  11.563  14.179 -0.1518 -0.1018 -0.0238
11923W        W30777   2.082  14.020   1.248 -0.1186  0.0042 -0.0134
11924W        W30778   5.118  11.837   2.399 -0.2869  0.3158 -0.2780
11925W        W30779  11.153   7.122  15.696  0.0521  0.2247  0.0360
11926W        W30780   1.534   3.187   3.713  0.3250 -0.1147 -0.0440
11927W        W30781   9.333  14.387  15.676 -0.0474 -0.0629 -0.3059
11928W        W30782  10.674   5.284   1.226 -0.1500 -0.1812  0.2569
11929W        W30783  10.183   0.118   2.427 -0.1217 -0.2154 -0.0717
11930W        W30784   2.827   1.062  14.545  0.0677  0.3474  0.1236
11931W        W30785   7.220   9.534  16.384  0.1444 -0.1567  0.2422
11932W        W30786   5.014  15.936  15.479  0.2143  0.2588 -0.0429
11933W        W30787  13.162  16.977   1.023 -0.0502 -0.0994 -0.2278
11934W        W30788   3.529  11.604   1.706  0.0308 -0.1160 -0.0981
11935W        W30789  11.002  12.579  12.453 -0.2413  0.1625 -0.0435
11936W        W30790  14.003  13.595  12.547  0.0786 -0.0523  0.1186
11937W        W30791   7.543   1.101   1.776  0.0203 -0.1695  0.0906
11938W        W30792   5.348   6.955  14.151 -0.0881  0.3579  0.0247
11939W        W30793   9.388  12.675   4.535 -0.2484 -0.2120 -0.1734
11940W        W30794  10.088   2.565   2.114 -0.1164  0.2743 -0.1113
11941W        W30795   0.537  15.570  16.863  0.1044  0.1338  0.1812
11942W        W30796   6.448  11.775  13.062 -0.1037 -0.0624  0.0853
11943W        W30797  10.880   8.461   3.411 -0.1182  0.2265  0.1036
11944W        W30798   9.997  10.318  15.544 -0.0519 -0.0647 -0.1553
11945W        W30799  13.227   3.662   1.437  0.1516 -0.2604  0.2669
11946W        W30800  15.939   1.070  12.726 -0.0162  0.0516  0.1784
11947W        W30801   1.529  13.451   2.995 -0.1969 -0.2745 -0.0026
11948W        W30802   0.398   9.263   0.920  0.0791  0.0431 -0.0137
11949W        W30803  16.451  17.207   1.455  0.1167 -0.2460  0.4957
11950W        W30804  14.967   8.276   4.150 -0.2343 -0.2770 -0.0044
11951W        W30805  11.922  16.999   0.101  0.2500 -0.1750 -0.1467
11952W        W30806  12.490  10.692   2.692  0.1707 -0.1234 -0.2181
11953W        W30807   4.625  16.211  16.275 -0.0574  0.2016 -0.0595
11954W        W30808   6.584   9.878  15.840 -0.0751 -0.0441 -0.2482
11955W        W30809   7.236  12.381   0.011  0.2709  0.2440  0.1910
11956W        W30810  10.838   6.338  17.248 -0.1829 -0.1728  0.1518
11957W        W30811  13.483   6.059   5.698 -0.1427  0.0677  0.4032
11958W        W30812  10.444  15.081   0.324  0.0290  0.0644 -0.2126
11959W        W30813  15.776  17.216   4.856  0.2756 -0.1459  0.2001
11960W        W30814   4.125  14.070   4.508  0.1022  0.1240 -0.2223
11961W        W30815  15.672  11.573  12.549 -0.0967 -0.1982 -0.2671
11962W        W30816   1.401   3.508   2.176  0.4178  0.1081 -0.0234
11963W        W30817  14.066  12.754  16.626 -0.0187 -0.0918 -0.1999
11964W        W30818  12.112   6.420   4.241 -0.3066 -0.0680  0.2128
11965W        W30819  15.656   3.485   3.485  0.0155  0.1161  0.0784
11966W        W30820   2.988   7.185   2.929  0.0011  0.2580  0.1347
11967W        W30821   1.273  15.232  15.771  0.2212 -0.1037  0.3325
11968W        W30822  13.498  13.283   2.984 -0.2044 -0.0955 -0.0786
11969W        W30823  15.521  12.795   1.127 -0.2528 -0.0855  0.0486
11970W        W30824   1.253  11.705  17.278  0.4229  0.2659 -0.1601
11971W        W30825  12.616  14.096   0.886  0.0234 -0.2393  0.3807
11972W        W30826   2.803   7.830  15.832  0.0464  0.0429  0.2438
11973W        W30827   3.524   7.692   4.127 -0.0060 -0.0053 -0.2314
11974W        W30828  16.165   4.917  14.865 -0.0820 -0.0083  0.0930
11975W        W30829  12.746   8.481  12.924  0.1545  0.0511 -0.2803
11976W        W30830   5.541   8.213   3.560  0.1114  0.0339 -0.0115
11977W        W30831   0.946  16.349  15.780 -0.2119  0.2316  0.0892
11978W        W30832  15.744  10.769   4.773 -0.3758  0.1941  0.0063
11979W        W30833   8.057   1.408   2.649 -0.0721 -0.3139  0.1468
11980W        W30834   5.101   6.752   6.067 -0.3793 -0.0796 -0.0637
11981W        W30835   9.233   1.155  14.516 -0.1444  0.1882  0.1011
11982W        W30836  13.759  14.087  17.189 -0.0322  0.0463 -0.0099
11983W        W30837   5.928   2.790  13.498  0.4876 -0.1971 -0.0288
11984W        W30838   3.779  10.613   1.227 -0.1735 -0.0316  0.0318
11985W        W30839   6.390   6.810  15.082  0.0109  0.1080  0.0025
11986W        W30840   5.338   3.876   3.048  0.1071 -0.2031 -0.0194
11987W        W30841   2.988  13.956   3.159  0.0649  0.2591 -0.2690
11988W        W30842  14.271   8.899   4.021 -0.0452 -0.0920 -0.2450
11989W        W30843  10.185   2.842   3.266 -0.0190  0.0764 -0.0508
11990W        W30844   9.920   7.968   4.035 -0.0788  0.2069 -0.0286
11991W        W30845   3.787  14.222  16.628  0.0156 -0.2982 -0.2986
11992W        W30846   6.396  11.680  16.100 -0.0504 -0.1440  0.0303
11993W        W30847   0.788   7.014   3.421 -0.1594 -0.0373 -0.2440
11994W        W30848   1.229   3.827   0.552  0.3492 -0.3215 -0.1220
11995W        W30849   4.691   1.719   1.541  0.2054 -0.1256 -0.0352
11996W        W30850   5.906  15.466  12.165 -0.0878 -0.2576  0.2000
11997W        W30851  14.199   9.047  16.978  0.2843 -0.0711  0.2041
11998W        W30852   1.661  11.104   2.923  0.1025 -0.0358  0.0304
11999W        W30853  13.501   7.791  14.266  0.0466 -0.1508 -0.4374
12000W        W30854   1.457  12.280   3.429  0.1314  0.3397 -0.0553
12001W        W30855  12.438   9.051   4.920  0.2553 -0.1588 -0.1256
12002W        W30856  10.202   9.653  17.328 -0.3604  0.0076 -0.0118
12003W        W30857  15.529  16.154   1.891  0.0454 -0.0255 -0.0870
12004W        W30858   2.870   2.364  17.062  0.0022 -0.0227 -0.0601
12005W        W30859  12.426  11.540   5.324  0.3660  0.2565  0.0991
12006W        W30860   5.510   4.239   1.920  0.1723  0.2396  0.3611
12007W        W30861   3.664   0.770  16.114  0.1538 -0.1062  0.0547
12008W        W30862  10.519  13.880  17.214  0.0098 -0.0096  0.1109
12009W        W30863   5.086   6.641  13.831  0.0499  0.2628  0.0763
12010W        W30864  16.995   2.731   5.107 -0.0623 -0.2321  0.0364
12011W        W30865  16.204   9.533  14.200 -0.0777  0.3642  0.2206
12012W        W30866   0.993  10.593  16.435  0.1220 -0.4067  0.2423
12013W        W30867   0.309   3.196   1.416  0.0655  0.0978  0.1999
12014W        W30868   0.735   6.019   3.128  0.0386  0.2439 -0.2868
12015W        W30869  13.833  16.330   2.187  0.2962 -0.2593  0.0664
12016W        W30870  10.904   3.878   2.806 -0.0285 -0.2465  0.2795
12017W        W30871  13.423   4.469  15.060 -0.0086 -0.1725 -0.0973
12018W        W30872   5.290  15.346  12.777 -0.1240 -0.1715  0.0323
12019W        W30873   5.375   1.404  15.016  0.1435  0.0164 -0.2155
12020W        W30874   1.483   7.224  13.455  0.1757  0.1672  0.1079
12021W        W30875  13.853   7.940   2.479  0.0211  0.0921 -0.1635
12022W        W30876   8.009   0.581   3.047  0.0313 -0.0717  0.1294
12023W        W30877   6.586  12.442  12.687  0.3431  0.0416 -0.1162
12024W        W30878  12.839   9.829   5.185  0.1512  0.1352 -0.0357
12025W        W30879  13.190  11.065  13.331  0.0029  0.1258  0.2470
12026W        W30880   9.298   4.887  12.627  0.2106 -0.0471 -0.1428
12027W        W30881   1.854  15.474   3.227  0.0012  0.0410  0.2019
12028W        W30882  17.266   0.235  12.762  0.0104 -0.0441  0.0259
12029W        W30883   5.740   2.053  11.791 -0.0802  0.1965  0.0293
12030W        W30884  14.978   5.340   2.716  0.2062  0.1859  0.0354
12031W        W30885   0.283   7.680  16.403  0.1504  0.2309 -0.2739
12032W        W30886  15.061   7.137   0.104 -0.3113 -0.0679  0.1920
12033W        W30887   7.284  16.671   3.179 -0.3448  0.2165  0.0759
12034W        W30888  13.563   0.958  16.276  0.2399 -0.0043 -0.0867
12035W        W30889   3.012  14.992  15.833  0.0768 -0.2251 -0.0914
12036W        W30890  11.079   1.253   3.505 -0.2547 -0.3179  0.0758
12037W        W30891   6.742   6.081  13.988 -0.2850  0.2292  0.0594
12038W        W30892   3.743  10.014  12.950  0.0362  0.4521  0.0774
12039W        W30893   0.423  15.637  15.897  0.0635  0.2389 -0.0103
12040W        W30894   3.663   8.836  14.871 -0.2312 -0.1549 -0.0213
12041W        W30895   2.891   9.205  15.216 -0.0103  0.1477 -0.0984
12042W        W30896  15.524  12.064  12.176 -0.2520  0.0441 -0.1960
12043W        W30897   0.311   8.376   3.617  0.2192  0.0383 -0.3405
12044W        W30898   7.128   1.738   3.023 -0.1013  0.0346  0.1825
12045W        W30899  11.060  14.036   0.892  0.1550  0.0156  0.3278
12046W        W30900   5.840  12.648  16.085  0.2473 -0.1678  0.1014
12047W        W30901   1.550   5.341  14.466  0.0660  0.1116 -0.4849
12048W        W30902   3.380  17.055   4.379  0.0795 -0.1143 -0.2374
12049W        W30903  16.209  13.595  13.098 -0.1261  0.0518 -0.0589
12050W        W30904   4.560  14.103  17.140 -0.1891  0.1110 -0.1237
12051W        W30905  15.399   9.292  16.353 -0.0432 -0.2990 -0.4213
12052W        W30906   7.336   9.168   1.664  0.0258 -0.1990  0.1014
12053W        W30907  10.249  13.488  11.898 -0.0886  0.1611 -0.1654
12054W        W30908   7.136   9.890   2.071 -0.1125 -0.1911  0.2775
12055W        W30909  10.660   2.702   3.118  0.1388 -0.1221  0.0799
12056W        W30910   6.186   7.571  13.065  0.0703 -0.1521  0.0744
12057W        W30911  13.104   5.858   2.910  0.0526  0.0485 -0.1554
12058W        W30912   5.328  13.490  16.788  0.0575 -0.1464 -0.3182
12059W        W30913   6.793   0.354   0.144  0.3268  0.0770 -0.0734
12060W        W30914   7.554  10.805  13.774  0.2700  0.0344  0.1234
12061W        W30915  13.010   1.089  14.053  0.3058  0.1443  0.2863
12062W        W30916  15.456  13.931   3.208 -0.3097  0.2070 -0.1900
12063W        W30917   5.315  10.505   2.818 -0.0769  0.1616  0.0291
12064W        W30918   7.560  12.768   0.031 -0.0918  0.3113  0.0289
12065W        W30919   2.227  14.114  12.920 -0.1752  0.0959  0.1497
12066W        W30920  14.752  16.949  13.545  0.1175 -0.3978  0.0611
12067W        W30921  15.936   5.500  13.500 -0.0384  0.0028  0.0132
12068W        W30922   9.195   2.199   1.304  0.2418 -0.1819  0.0387
12069W        W30923   5.978   4.838   5.212 -0.0174 -0.0376 -0.0569
12070W        W30924   6.376   9.119  12.413 -0.2805 -0.2903  0.0202
12071W        W30925   5.865   4.691   2.095  0.1421  0.2480 -0.0117
12072W        W30926  13.307  10.590   5.248  0.3654 -0.0233  0.1697
12073W        W30927  12.595   3.356  15.081 -0.0979 -0.4148 -0.3321
12074W        W30928  15.260  12.594   1.918  0.0882 -0.1481 -0.1420
12075W        W30929  14.454  16.408   2.904  0.2383  0.0009  0.0538
12076W        W30930   8.545  11.185   4.373  0.1815  0.0189 -0.1741
12077W        W30931   0.973   7.386  15.862 -0.1684 -0.0308  0.0645
12078W        W30932   4.302  15.178  15.213 -0.1213  0.0590 -0.1470
12079W        W30933   3.845   6.295   2.103 -0.0625 -0.1668  0.1850
12080W        W30934  14.120   2.654  14.026  0.2486 -0.1305 -0.0605
12081W        W30935  12.862   0.466   4.982 -0.2153 -0.2224 -0.2497
12082W        W30936   6.369   2.314  17.042 -0.2106 -0.0646  0.2898
12083W        W30937  11.834  12.089   4.909  0.3161  0.0078  0.0069
12084W        W30938  10.526   3.779  14.717 -0.0676  0.0410 -0.0990
12085W        W30939   5.455  11.398   2.626 -0.3341  0.2585  0.0182
12086W        W30940   9.805   4.292  15.217  0.3470 -0.4224 -0.0215
12087W        W30941  11.537   2.147   5.059  0.0571 -0.0328  0.0610
12088W        W30942   4.207   2.822  12.072  0.2166 -0.3564 -0.1775
12089W        W30943   5.494   0.904   3.463 -0.3906 -0.0832 -0.1143
12090W        W30944   9.768  16.303   3.458  0.1930 -0.1231  0.1630
12091W        W30945   3.629   7.377   4.500 -0.0264 -0.0808 -0.0153
12092W        W30946  16.151   7.967  17.168 -0.0079  0.3873  0.0180
12093W        W30947  10.532  12.234   1.536 -0.1517  0.2456  0.1250
12094W        W30948   7.997   8.512   0.105  0.1757 -0.0700 -0.0304
12095W        W30949  12.096   2.125   3.339 -0.1981 -0.1722 -0.1295
12096W        W30950   3.231  11.123  12.222  0.1273 -0.1330 -0.2944
12097W        W30951   7.171   9.196  13.795  0.4593 -0.2022  0.1735
12098W        W30952   7.797   7.868  16.316 -0.0177 -0.2575  0.0256
12099W        W30953   0.389  12.863   3.465  0.1178  0.0855 -0.1322
12100W        W30954  11.212   1.965  14.163 -0.1530  0.0310  0.1380
12101W        W30955   1.521   0.243  15.892 -0.2132  0.1334 -0.0774
12102W        W30956  16.156   4.935   3.331 -0.1049 -0.1176 -0.1112
12103W        W30957   4.239   8.132  15.893  0.3402 -0.1359 -0.1212
12104W        W30958   3.986  10.138   1.099  0.1222 -0.1024 -0.2754
12105W        W30959   9.256   2.198   2.656  0.3777 -0.1704 -0.2200
12106W        W30960   8.014   2.675   0.774 -0.2019 -0.2365  0.1170
12107W        W30961   8.506   1.466   2.768 -0.1392  0.3644  0.1202
12108W        W30962   4.569   3.088   0.227 -0.3066 -0.1583  0.0291
12109W        W30963  14.689  13.982   0.348 -0.1940  0.0103 -0.1728
12110W        W30964  16.827   0.579  13.590  0.1465 -0.0567  0.5005
12111W        W30965  10.882   8.477  12.504 -0.2678 -0.0457 -0.2733
12112W        W30966  16.963   1.554  11.993  0.3755  0.3622 -0.0581
12113W        W30967   8.610   4.792  13.783  0.3314 -0.0591 -0.0978
12114W        W30968  16.336  16.523  16.078 -0.0766  0.1040 -0.2423
12115W        W30969   0.733   1.838   0.009  0.0692  0.1523  0.2606
12116W        W30970   1.828   0.463  17.074 -0.2329  0.1608 -0.2394
12117W        W30971  12.595   1.757  15.633 -0.0106  0.0320  0.0808
12118W        W30972  14.904   3.778  17.149  0.2007 -0.0990 -0.2095
12119W        W30973   7.251   3.454   5.339  0.2256 -0.0031  0.1292
12120W        W30974  15.505  11.399   4.135  0.2436  0.1828  0.1879
12121W        W30975  14.819   8.752   1.964 -0.1430 -0.1053 -0.0855
12122W        W30976   7.255  14.098  14.341 -0.4677  0.1683  0.1650
12123W        W30977  10.150   0.450  12.449 -0.0584 -0.0675  0.1146
12124W        W30978   2.248  12.220   2.361  0.1426 -0.1881  0.0617
12125W        W30979  16.561   3.903   2.656  0.0565  0.2147 -0.3177
12126W        W30980   2.973   8.034   1.694  0.1673 -0.0947  0.4829
12127W        W30981  17.006  16.235   0.226  0.0666  0.1340  0.1217
12128W        W30982  12.489  10.174   1.996 -0.2143 -0.2905  0.0049
12129W        W30983  16.967   1.853   0.249  0.0894 -0.1266  0.2730
12130W        W30984  10.627  11.142  17.325  0.1685 -0.0326  0.1667
12131W        W30985   5.339   4.326   4.624 -0.0242  0.0746  0.0759
12132W        W30986   6.907  10.302  12.905 -0.2949 -0.1161  0.0446
12133W        W30987  12.194   3.105   3.180  0.1438 -0.1166  0.0196
12134W        W30988   0.053  11.498  15.049  0.3067  0.0610 -0.3226
12135W        W30989  15.206   0.774   3.392  0.1704  0.2746 -0.0977
12136W        W30990   3.835   2.765   4.141 -0.1493  0.3975 -0.5087
12137W        W30991  14.434  14.098   3.419  0.0423 -0.0962 -0.0393
12138W        W30992  16.644  16.414  17.380 -0.1290 -0.2865 -0.0505
12139W        W30993  15.968   0.390   4.925  0.0258  0.2909  0.2302
12140W        W30994  13.075  11.703  14.900 -0.1847 -0.2057 -0.0480
12141W        W30995  12.961  15.116  16.821 -0.0071  0.0144  0.1091
12142W        W30996   6.093   2.293  16.270  0.0040 -0.1505 -0.1507
12143W        W30997  15.016  15.680  14.213 -0.2838  0.1196 -0.0481
12144W        W30998  12.453   5.693   2.131  0.0624  0.3139 -0.1899
12145W        W30999   1.755   0.032   0.860 -0.2894  0.3077 -0.0532
12146W        W31000  13.277   9.349   3.322  0.1945 -0.0602 -0.1637
12147W        W31001   6.299   9.055   3.153  0.0279  0.2224  0.0164
12148W        W31002  12.203   3.293  16.975  0.0235 -0.2931  0.1202
12149W        W31003   6.114  14.212  12.948 -0.1300  0.2154 -0.0694
12150W        W31004  16.258   0.053  12.777 -0.3954  0.0578  0.2564
12151W        W31005  13.893  16.787   2.221 -0.1098  0.2022 -0.1826
12152W        W31006   7.366   5.630   1.713 -0.3283  0.1671 -0.3754
12153W        W31007   1.112  15.943   3.021  0.0897 -0.0480 -0.0993
12154W        W31008  10.358  14.847  17.294 -0.1541  0.0439 -0.4493
12155W        W31009   8.337  12.613   2.220 -0.5057 -0.0558  0.1753
12156W        W31010  16.518   7.239   4.626 -0.1104  0.0400  0.2675
12157W        W31011   9.028   4.085  13.201 -0.1386  0.0602 -0.0441
12158W        W31012   9.882  13.606  16.578 -0.0857 -0.3248  0.0362
12159W        W31013   9.857   0.427   0.131  0.1471  0.0983 -0.2326
12160W        W31014   3.303   6.986   4.602 -0.0208  0.0468 -0.2441
12161W        W31015  16.233  17.161  14.628 -0.0295  0.1492 -0.1418
12162W        W31016   5.526  14.671   2.573 -0.1158 -0.0118  0.1918
12163W        W31017  15.482   7.265  16.692  0.0917 -0.0499 -0.0096
12164W        W31018   0.693   7.301   2.244  0.1099 -0.0585  0.0028
12165W        W31019  10.749  12.836  12.866 -0.2316 -0.0318 -0.0960
12166W        W31020   6.535   7.974  13.589  0.0886  0.3070 -0.0096
12167W        W31021  10.155   2.337  13.907  0.0569 -0.1171  0.1016
12168W        W31022  11.094  12.940   4.390  0.0150 -0.1174 -0.3277
12169W        W31023  15.799   2.956   0.262 -0.0070 -0.1720  0.0843
12170W        W31024   4.647  15.955   0.824  0.1669  0.2398  0.2895
12171W        W31025  16.131   8.907   2.136  0.2564 -0.4847  0.2082
12172W        W31026  17.187  17.175  12.523 -0.0699  0.3312 -0.0928
12173W        W31027   2.875  11.615   5.037  0.0274 -0.0374  0.0434
12174W        W31028  16.571  11.523  14.120 -0.0939  0.2844 -0.0315
12175W        W31029   7.779  11.145   2.682  0.1085 -0.1997  0.2453
12176W        W31030  13.230   4.881  14.726 -0.2931  0.1803  0.0357
12177W        W31031  12.200   1.719  15.159 -0.1396 -0.0992  0.0289
12178W        W31032  12.896   8.464  14.274  0.1283  0.2940  0.2311
12179W        W31033  10.775  16.718   2.468  0.2408  0.1618 -0.2992
12180W        W31034   1.013  11.440  14.924  0.0367 -0.0200 -0.0330
12181W        W31035   4.833  11.838   0.879  0.0951 -0.1638 -0.3086
12182W        W31036   6.294   7.850   5.360  0.1790  0.1496 -0.2508
12183W        W31037   2.471   1.213  12.427 -0.1905 -0.1253  0.2867
12184W        W31038  14.727   7.603   5.075 -0.0736  0.0326 -0.4309
12185W        W31039  14.756   4.549  16.838  0.2012  0.2500 -0.1761
12186W        W31040  10.619  16.445   3.131 -0.0988 -0.3520  0.2836
12187W        W31041   1.987  17.330  17.036 -0.2017  0.0496  0.1606
12188W        W31042   8.791  16.917   3.480 -0.0603  0.0272 -0.1368
12189W        W31043   1.278   9.627  11.339 -0.0772  0.1954 -0.1006
12190W        W31044  12.958   5.750  15.854 -0.0968  0.2195 -0.0679
12191W        W31045   2.593   7.083   0.287 -0.2834 -0.2221  0.1525
12192W        W31046  16.891   1.710   1.178  0.0253  0.1462 -0.0535
12193W        W31047   9.280  16.342  14.951  0.0504 -0.0995  0.1545
12194W        W31048   2.424   5.483  16.063  0.1950  0.0653  0.1157
12195W        W31049   6.967   0.820  16.510 -0.4129 -0.0881  0.1184
12196W        W31050  11.830   4.172   1.162 -0.0017 -0.1223  0.0631
12197W        W31051   6.128   1.101  14.512  0.0351 -0.2656  0.0716
12198W        W31052  11.808  15.076   4.906  0.3546  0.1148 -0.1182
12199W        W31053  16.620   1.714   5.173  0.0733 -0.2647 -0.0102
12200W        W31054   3.467   1.888  12.675  0.0869  0.0893  0.0113
12201W        W31055   0.171   9.864  13.113 -0.1517  0.2173  0.2831
12202W        W31056  14.997   9.205  13.704 -0.0808  0.0528 -0.1696
12203W        W31057   2.209   9.791  13.152 -0.1137 -0.0121 -0.0208
12204W        W31058  12.856   1.903   4.630  0.2816 -0.2314  0.0916
12205W        W31059   3.005  11.474   0.743 -0.0501  0.2310  0.1492
12206W        W31060  12.891   9.443   4.382 -0.0112 -0.0901  0.2281
12207W        W31061  15.906  12.791   0.753  0.0856  0.1877  0.0578
12208W        W31062  16.886   4.995  14.112  0.1351 -0.0045  0.0915
12209W        W31063  16.908   1.546  13.320  0.1849 -0.1940 -0.1211
12210W        W31064   7.230  14.817  17.122 -0.0265 -0.3357 -0.1325
12211W        W31065  12.215   2.443   2.839  0.0945  0.3719 -0.0517
12212W        W31066   1.273  17.193  13.159  0.2221 -0.0639  0.3175
12213W        W31067   5.884  11.640  15.447 -0.1675 -0.0271  0.0252
12214W        W31068   0.699   7.748  16.689 -0.0467 -0.1065  0.1328
12215W        W31069  14.454   9.833  15.304  0.0762 -0.0406 -0.0517
12216W        W31070   4.962   2.842  15.533  0.0217 -0.1751  0.4060
12217W        W31071  16.660   4.575  14.143 -0.3555 -0.3252  0.1746
12218W        W31072  16.722  17.095   4.543  0.2483  0.1471  0.0713
12219W        W31073  11.036  15.470   1.116 -0.1152 -0.1938 -0.3213
12220W        W31074   1.158   2.058   5.131  0.0995 -0.0104 -0.0130
12221W        W31075  14.450  17.028   4.020  0.3008  0.1116 -0.3615
12222W        W31076   8.184  11.544  12.233 -0.0828 -0.1233 -0.0302
12223W        W31077  15.190   6.021   0.970 -0.1632  0.4009 -0.1610
12224W        W31078   9.921  11.986   3.437  0.3418 -0.0498  0.2851
12225W        W31079   0.230   4.737   1.968 -0.3349  0.3342 -0.0934
12226W        W31080  11.832  11.211   3.340  0.0464 -0.1488  0.1809
12227W        W31081  14.361   8.902   3.531  0.5422 -0.1346 -0.2715
12228W        W31082  14.703   8.754  16.804  0.0706  0.0204  0.0679
12229W        W31083   7.680   4.731   4.902 -0.1910  0.1339 -0.2717
12230W        W31084  14.955  17.304  16.530  0.2565  0.0769 -0.1323
12231W        W31085  10.435   6.532  16.973  0.1413  0.0490  0.2622
12232W        W31086   4.359  16.124   4.494 -0.1934  0.0257  0.0820
12233W        W31087  12.059   7.867  17.413 -0.0680  0.0815 -0.1384
12234W        W31088   6.305   8.306   2.780  0.0661  0.2735  0.0320
12235W        W31089   4.885   1.252  14.945 -0.0016  0.0770 -0.3645
12236W        W31090  16.726   3.168   3.938  0.0136  0.0415  0.0821
12237W        W31091   2.933  15.932   1.425 -0.2539 -0.0025 -0.2856
12238W        W31092  14.007  13.913   1.082 -0.0512 -0.0980  0.0458
12239W        W31093   7.894   5.847  14.418 -0.3402 -0.0544 -0.2655
12240W        W31094   2.998  10.927   0.649 -0.1235  0.1286  0.1782
12241W        W31095  12.364   1.761   2.527  0.0646 -0.1614 -0.1185
12242W        W31096  10.785  10.100  12.689 -0.1302 -0.0314 -0.1757
12243W        W31097  15.174   9.017  15.252  0.2674  0.3496  0.1402
12244W        W31098  15.886   5.009   1.244  0.3526 -0.2882  0.1230
12245W        W31099   9.569  10.905  12.694 -0.3529 -0.0364 -0.0142
12246W        W31100   8.466  14.926   5.753  0.2872  0.0233 -0.3192
12247W        W31101  14.357   2.347  14.316 -0.0141 -0.2587  0.2036
12248W        W31102   2.036   1.301   1.548 -0.2237  0.0307  0.1231
12249W        W31103   7.934   5.747   4.131  0.0592 -0.1714 -0.1508
12250W        W31104  16.126   2.387   3.639  0.0845  0.2403 -0.1502
12251W        W31105   7.491   2.198   2.514  0.0133 -0.2263 -0.0289
12252W        W31106  15.697   9.507   2.776 -0.0186  0.1758 -0.2399
12253W        W31107   4.877   2.249  13.038  0.2606  0.0803 -0.4919
12254W        W31108   8.872  10.439  17.450  0.1818 -0.0894  0.2149
12255W        W31109   4.902   9.249  13.930 -0.1769 -0.1363 -0.0659
12256W        W31110   4.944   7.714  16.787 -0.3459  0.1620 -0.0679
12257W        W31111   5.978  13.829   0.479  0.0102 -0.1305  0.2119
12258W        W31112  16.324  15.719   1.341  0.0540 -0.1519 -0.0180
12259W        W31113  14.057   7.182   2.002  0.0799 -0.1618 -0.1734
12260W        W31114   8.978  15.235   0.175  0.3963 -0.1162 -0.0384
12261W        W31115  11.401   1.424   1.048 -0.0722 -0.0764  0.1013
12262W        W31116   4.363   7.018   4.978  0.1506 -0.3840  0.0910
12263W        W31117  15.043  12.879  11.915  0.1847  0.4036  0.0064
12264W        W31118   6.815   5.869   0.800 -0.1413  0.0015 -0.2165
12265W        W31119   1.291  16.152  13.046  0.0390  0.1786 -0.1080
12266W        W31120   9.372   1.526  13.197  0.3677 -0.3331  0.1856
12267W        W31121  15.317   2.265  14.978  0.0564 -0.0381 -0.2831
12268W        W31122   0.887   4.392   3.684 -0.0193  0.5359  0.1159
12269W        W31123  11.187  11.251  16.730 -0.1829  0.3651  0.2630
12270W        W31124  16.954  15.406   1.745 -0.0870  0.0073 -0.1539
12271W        W31125  12.426  11.793   3.387  0.0412  0.3941 -0.0667
12272W        W31126   3.332   1.295  12.079  0.0084 -0.0877 -0.1802
12273W        W31127   4.201   0.455  13.485  0.0506  0.2021 -0.0405
12274W        W31128   3.981  14.679  15.051  0.0902 -0.1359  0.0767
12275W        W31129  12.854  11.342   1.106 -0.2200 -0.1244  0.1856
12276W        W31130   4.638   0.243   4.819  0.2452 -0.2925  0.1841
12277W        W31131   2.278   9.687   5.249  0.0431 -0.0906 -0.2806
12278W        W31132  12.983   7.279  16.901  0.1809 -0.2672 -0.1602
12279W        W31133  10.563  10.531   5.462  0.0001 -0.0983  0.3338
12280W        W31134   1.447   3.096  12.773 -0.2163  0.1362  0.2435
12281W        W31135   0.517   8.981  17.465  0.0579  0.2402  0.0042
12282W        W31136  13.760  12.305  16.865 -0.2093  0.0036  0.3685
12283W        W31137   5.437  12.511   0.356  0.0368 -0.0883  0.0850
12284W        W31138  15.146  10.605  13.985  0.2122 -0.2190  0.0146
12285W        W31139  10.463   4.997   3.737  0.0182  0.2225 -0.1386
12286W        W31140  16.589   2.622  16.661  0.0327 -0.0374 -0.4356
12287W        W31141  12.343  13.417   3.707  0.0013 -0.1941  0.1315
12288W        W31142  16.315  10.158   1.702  0.0891 -0.0419 -0.0817
12289W        W31143  15.099  10.641  16.303 -0.1701  0.2403  0.3189
12290W        W31144   6.094   4.376   3.121 -0.1442 -0.1207 -0.1188
12291W        W31145  16.795   7.235  14.302  0.0934  0.2408 -0.1007
12292W        W31146   6.190   8.158   4.834  0.5771 -0.3560 -0.1987
12293W        W31147   9.591  16.241  13.144  0.2553 -0.0230 -0.1130
12294W        W31148  15.215  10.821   4.683 -0.2572 -0.0733 -0.0751
12295W        W31149  13.373   4.887   4.573  0.0650  0.2005 -0.1236
12296W        W31150   4.822  16.083   3.584 -0.0933  0.3200 -0.3516
12297W        W31151  13.981   5.057   3.662 -0.0372 -0.1519 -0.0345
12298W        W31152   9.896   9.793   4.239  0.1680 -0.1044 -0.0363
12299W        W31153  13.262   4.871   5.085 -0.0344 -0.3158 -0.0092
12300W        W31154   6.117   8.013  12.155  0.2031  0.3318 -0.0241
12301W        W31155  13.716  17.149   3.561  0.1523 -0.0280 -0.1477
12302W        W31156   2.587   3.992  15.544 -0.1168 -0.1018  0.1468
12303W        W31157  14.619  16.388   4.407  0.0601  0.0036 -0.0207
12304W        W31158  11.217   4.457   2.541 -0.3242  0.2073  0.2812
12305W        W31159  12.873  10.229   6.442  0.1179  0.2210 -0.1951
12306W        W31160   2.368   8.835  12.542 -0.0958  0.1323  0.0149
12307W        W31161   7.012   7.971   3.720  0.0619  0.0865 -0.0567
12308W        W31162   7.331   7.866  14.515 -0.3485 -0.2077 -0.0629
12309W        W31163   1.112   8.103  12.495  0.1952  0.4495  0.1928
12310W        W31164   8.333  11.757   1.213 -0.3833  0.0190 -0.2905
12311W        W31165  13.028  14.250  14.503 -0.2230  0.2308  0.0825
12312W        W31166  15.690   3.835   2.164 -0.1770 -0.1336 -0.0673
12313W        W31167  11.704  14.127  17.021 -0.3330 -0.1031 -0.0121
12314W        W31168  11.355   6.618   4.645  0.2164 -0.0868  0.1389
12315W        W31169   0.840  11.934   2.584 -0.1050  0.2551 -0.1596
12316W        W31170   9.683  13.942  12.347  0.1355  0.3368 -0.0702
12317W        W31171   7.426  16.404   2.511  0.1315 -0.1558 -0.1760
12318W        W31172  10.866   1.618   4.823  0.0483  0.1164 -0.0635
12319W        W31173  10.113  11.077  15.218  0.1932  0.0324 -0.2133
12320W        W31174  12.893   3.658   5.317  0.1038  0.0821  0.1460
12321W        W31175   8.408   3.219  13.091 -0.0089  0.3003  0.2290
12322W        W31176   6.858   1.173   2.106 -0.0170 -0.0585  0.2579
12323W        W31177   4.711  10.603   1.066  0.2313 -0.0487 -0.0083
12324W        W31178  10.329  13.582  16.858  0.1815 -0.4564 -0.0081
12325W        W31179   1.195   0.242   5.091  0.1915 -0.2132 -0.0266
12326W        W31180   5.855   3.629   3.876 -0.1114  0.1936 -0.2595
12327W        W31181   0.625   8.499   2.145  0.0362 -0.1972 -0.3910
12328W        W31182  10.219  11.760  16.413 -0.3104 -0.1062 -0.2141
12329W        W31183   4.790   4.690   1.344 -0.0204  0.1189 -0.3712
12330W        W31184  16.252  15.494   5.155  0.1839  0.1204 -0.1978
12331W        W31185   0.456  10.123   2.167  0.1433 -0.2014  0.1352
12332W        W31186   1.907  15.881  16.030 -0.1027 -0.1980 -0.0568
12333W        W31187   9.731  10.991  17.367  0.2584  0.1557  0.1201
12334W        W31188   9.248  15.870  16.551  0.0844 -0.1284  0.0272
12335W        W31189   9.983   3.329   4.837  0.0995  0.1789 -0.0367
12336W        W31190   3.903   6.838   4.787  0.0642  0.0851  0.0383
12337W        W31191   2.063  13.136   5.047  0.0436 -0.0117 -0.0482
12338W        W31192  17.069  16.470   2.422  0.2237 -0.1089 -0.0372
12339W        W31193   6.165   7.520  14.558 -0.1188 -0.1072  0.0470
12340W        W31194  12.860   6.095   1.938 -0.3037  0.1815  0.0348
12341W        W31195  11.148  13.793   4.771 -0.1768 -0.2271  0.0480
12342W        W31196  16.358   1.169   1.358 -0.1841 -0.2130  0.0686
12343W        W31197  16.533   9.924   3.636  0.0271 -0.1778  0.2588
12344W        W31198  10.833   5.447  14.384  0.1654  0.1471  0.0304
12345W        W31199   8.405  16.967  16.497 -0.1953  0.2492 -0.0173
12346W        W31200   1.011  12.861  15.416 -0.2310 -0.2514 -0.1735
12347W        W31201   4.403  10.560   0.256  0.1345  0.3671  0.2674
12348W        W31202   4.884   7.333  16.315  0.1201 -0.0915  0.1510
12349W        W31203   0.532   0.211  13.057 -0.0852 -0.1405 -0.1277
12350W        W31204   9.218   8.391  12.893  0.0473 -0.0785 -0.0337
12351W        W31205   4.009  10.848  14.620 -0.0727  0.3125  0.1088
12352W        W31206   3.035  13.729  13.042 -0.0477 -0.3329 -0.0365
12353W        W31207   8.408  12.310  15.629 -0.0820  0.2183 -0.3543
12354W        W31208  16.943  15.099  16.150  0.1154 -0.1607  0.1190
12355W        W31209   7.264   2.918   4.617 -0.1405 -0.0101 -0.4278
12356W        W31210  15.485   2.457   2.681 -0.1716 -0.1646  0.4442
12357W        W31211   9.632   8.603   0.561 -0.0976  0.1202 -0.1438
12358W        W31212   0.343  10.210   4.188 -0.0154 -0.0649  0.1395
12359W        W31213   9.798   0.980   1.040 -0.0186  0.0592  0.1332
12360W        W31214   5.892   7.673   2.338  0.1099 -0.0438  0.0503
12361W        W31215   7.382  16.421  12.380 -0.0473 -0.0760  0.1738
12362W        W31216   7.427   8.285   0.863 -0.0332  0.1528 -0.1978
12363W        W31217  10.705   8.046   0.182  0.3019  0.0881 -0.0493
12364W        W31218  12.899  12.395  13.582  0.1367  0.2518 -0.0792
12365W        W31219  13.071  16.435   3.557 -0.0608  0.3432  0.0474
12366W        W31220   7.481  14.608  16.071 -0.0302  0.0435 -0.0582
12367W        W31221  13.206  14.753   4.233  0.3076  0.0028 -0.0638
12368W        W31222   9.953   1.244   0.485  0.2696  0.0901 -0.3869
12369W        W31223   4.885   1.351   1.861  0.0469 -0.2494  0.2731
12370W        W31224  13.062   5.348  14.530 -0.1445  0.1668  0.0967
12371W        W31225  14.134  15.497  13.242  0.0710 -0.1864  0.0454
12372W        W31226   8.127  14.453  15.203 -0.1934  0.0016 -0.1033
12373W        W31227  11.872  12.150  11.824 -0.1305  0.1069  0.1171
12374W        W31228   1.755   1.017  13.300  0.1415 -0.2126  0.0005
12375W        W31229   2.206   0.089   1.175 -0.0243  0.0316 -0.3201
12376W        W31230   0.822  11.361  14.320 -0.1071  0.1958 -0.2717
12377W        W31231  15.685  16.200  16.679  0.0551  0.0790 -0.0407
12378W        W31232  16.114  16.278  17.001  0.1735  0.0364  0.1770
12379W        W31233   2.278   4.919   2.024 -0.0413 -0.0696  0.0320
12380W        W31234   4.140  16.468  12.590 -0.0647  0.1379 -0.0580
12381W        W31235   3.910   6.967  12.482 -0.2018 -0.0441  0.0014
12382W        W31236   6.490  13.792  13.922  0.0742 -0.1203  0.1150
12383W        W31237   1.623  16.869   3.245 -0.2482  0.0179 -0.0600
12384W        W31238  14.468   2.923   3.805 -0.2682 -0.0307 -0.0937
12385W        W31239  14.359  10.225   3.092 -0.1143 -0.0805  0.0205
12386W        W31240   5.834   1.046  17.174  0.1770 -0.1421  0.0538
12387W        W31241  15.754  15.333   3.199 -0.0796  0.1420  0.2140
12388W        W31242  17.051   3.870   2.649  0.0306 -0.0876 -0.0068
12389W        W31243  16.398  15.697   2.779 -0.3325  0.1409  0.0313
12390W        W31244  12.886   6.021  16.957 -0.1602  0.2158  0.1664
12391W        W31245   8.160   6.704   0.994  0.0009 -0.4539 -0.1562
12392W        W31246   3.680  14.281   0.897 -0.0778  0.2738 -0.0939
12393W        W31247  15.168   7.702   2.822 -0.1787  0.2212  0.1398
12394W        W31248   6.410  16.596   1.624 -0.0388 -0.0209 -0.0932
12395W        W31249   9.849   7.346  13.663  0.0291 -0.1388  0.0148
12396W        W31250   3.904   0.295  17.463  0.1952 -0.1875 -0.1092
12397W        W31251  10.537   6.550   5.094  0.3766  0.1694 -0.0358
12398W        W31252  10.184   0.750  12.861  0.3622  0.0882  0.0633
12399W        W31253   1.598  13.269   4.822  0.2362 -0.0130  0.0739
12400W        W31254   0.210   8.621  13.903 -0.4358 -0.1786 -0.0789
12401W        W31255   5.082   7.439  14.260  0.2080  0.2703 -0.3169
12402W        W31256  16.831   4.090   4.404 -0.0919  0.0749  0.3006
12403W        W31257  11.280  14.383  12.193  0.2026  0.0901  0.2975
12404W        W31258   6.396   7.185  16.499 -0.1178 -0.0531 -0.1103
12405W        W31259   1.278   2.548   2.919  0.2449 -0.1544 -0.4412
12406W        W31260   1.678  12.339  16.216  0.0421 -0.0558 -0.1212
12407W        W31261  15.263  11.065  13.704  0.1248 -0.0250 -0.1553
12408W        W31262   9.071   7.539  13.484  0.3202  0.1304 -0.2493
12409W        W31263   3.371  15.852   3.875  0.0688  0.0970 -0.0524
12410W        W31264   8.103   7.311  15.110 -0.5192  0.2511  0.3147
12411W        W31265  15.936   7.460  13.946 -0.0009  0.0471 -0.3417
12412W        W31266   4.290  16.179  12.983  0.1914  0.0202 -0.2230
12413W        W31267   6.637  17.046   3.631  0.1039 -0.0681  0.0212
12414W        W31268  11.006  11.643   6.216  0.3186 -0.1381 -0.1081
12415W        W31269  16.264  12.682   0.427 -0.2741 -0.0080  0.0617
12416W        W31270   7.652  10.766  13.260 -0.2495  0.0266 -0.2212
12417W        W31271   9.671   2.915   3.396  0.1268 -0.1356 -0.3614
12418W        W31272   4.418   4.793  13.265  0.1002  0.0993 -0.1466
12419W        W31273   6.697  14.308  13.899  0.0293  0.1964  0.2142
12420W        W31274   8.531   1.839   0.849 -0.2404  0.0031  0.0867
12421W        W31275   0.424  17.045  13.198 -0.0528 -0.3964 -0.0431
12422W        W31276  11.759  10.188  15.286 -0.2268 -0.0886 -0.0485
12423W        W31277  16.819  15.456   0.357 -0.0029 -0.1029  0.1908
12424W        W31278   6.790  13.092  13.910  0.1583 -0.0276  0.0095
12425W        W31279  17.111   8.114   6.580  0.1729 -0.1823  0.4893
12426W        W31280  12.003   8.319   2.508  0.0201 -0.0426 -0.0022
12427W        W31281   6.226   6.871   0.335  0.0330 -0.0002  0.1814
12428W        W31282   0.233   5.282  12.311  0.2989  0.1057  0.0556
12429W        W31283  11.731   2.342   3.547 -0.0057 -0.1487 -0.2755
12430W        W31284  15.730   8.344  15.727  0.2034 -0.0462 -0.0872
12431W        W31285  10.604  13.175  11.980 -0.1609 -0.0741 -0.1275
12432W        W31286   7.104  17.113  15.571 -0.0964 -0.3042 -0.2040
12433W        W31287  15.004   9.694  13.886  0.0787 -0.0418  0.1184
12434W        W31288  13.335  12.890  14.414  0.3410 -0.0848  0.0955
12435W        W31289  15.465   5.200   1.998  0.1105 -0.0872 -0.0777
12436W        W31290   5.054  10.486  13.841  0.2608  0.1798  0.2556
12437W        W31291   2.091  15.626  14.985  0.0729  0.0202  0.0302
12438W        W31292   6.669  15.532   2.150  0.0975  0.1705 -0.0267
12439W        W31293   0.517   8.042   2.362  0.2217  0.2560 -0.0382
12440W        W31294   3.385  11.932   3.695  0.0382  0.0721  0.0084
12441W        W31295  13.855  13.346   3.841  0.0415  0.2267  0.3185
12442W        W31296   0.731   4.604  15.133  0.0962 -0.1441  0.1679
12443W        W31297  16.071   2.684  16.424  0.0349  0.6440  0.0181
12444W        W31298   4.996  12.212   0.195  0.0906 -0.1405 -0.0352
12445W        W31299   8.922   1.267   0.021 -0.0599  0.0962 -0.0055
12446W        W31300   3.905  14.440   3.499  0.2090  0.1099  0.2732
12447W        W31301   0.445  16.659  12.371 -0.0945 -0.0834  0.0469
12448W        W31302  13.811   1.889   0.139  0.1029  0.0928 -0.0848
12449W        W31303   9.301  10.490  13.607  0.1814  0.3049 -0.1764
12450W        W31304   8.061  13.320   4.638  0.0788 -0.0490 -0.2545
12451W        W31305  17.218   3.544   3.013  0.0008 -0.1263  0.1560
12452W        W31306   0.511   5.390   1.717 -0.1226 -0.1001  0.2801
12453W        W31307   6.977   1.793  14.121  0.1109 -0.1995 -0.0292
12454W        W31308  12.960   5.046  13.614 -0.0569 -0.1973 -0.0161
12455W        W31309   3.458  17.036   2.638  0.0128  0.0623 -0.1112
12456W        W31310  16.058  13.062   5.187  0.1579 -0.0620 -0.0559
12457W        W31311  11.306   7.108   3.223  0.1369  0.2696 -0.2795
12458W        W31312   3.130   4.768   2.716 -0.0108 -0.1888  0.3271
12459W        W31313   7.832   6.598   0.521  0.1169 -0.1566 -0.0980
12460W        W31314   7.033   2.618  17.253 -0.0353 -0.1950  0.0678
12461W        W31315   3.120  13.145   4.211  0.1193 -0.1771  0.0571
12462W        W31316  12.552   7.902  16.073  0.2189 -0.3115 -0.1692
12463W        W31317   2.783   4.351  14.021  0.2708  0.1248  0.1101
12464W        W31318   2.439   1.732   4.903 -0.2362  0.3844 -0.1746
12465W        W31319  11.216   4.651  16.817  0.2307 -0.1790  0.0045
12466W        W31320  16.866  12.256   2.357 -0.0675 -0.1223  0.3539
12467W        W31321   2.558   3.851  13.185  0.0595  0.0056  0.1027
12468W        W31322   4.480  16.944   0.116 -0.0021 -0.1264  0.0579
12469W        W31323   0.199   6.781  15.621  0.0631 -0.1094 -0.3745
12470W        W31324  11.732   7.252  13.843 -0.0280  0.2007  0.0333
12471W        W31325   3.734  14.242  14.358 -0.1106  0.0867  0.2010
12472W        W31326   2.736   9.179  16.450 -0.0245 -0.0128  0.2117
12473W        W31327   2.912   4.706   3.175 -0.2136 -0.2202 -0.2882
12474W        W31328  17.004  13.329  12.030 -0.3291  0.1247 -0.1599
12475W        W31329   5.366   4.028  16.422 -0.2862 -0.0470 -0.0297
12476W        W31330   0.666   3.242   4.646 -0.2193 -0.2626  0.2016
12477W        W31331  10.389   0.027   3.367  0.0489  0.0735  0.0768
12478W        W31332  13.076   7.760  16.712  0.0612 -0.1377 -0.0367
12479W        W31333   4.484  16.325   4.026  0.0061 -0.0207 -0.3259
12480W        W31334   7.226  14.338   1.719  0.2514 -0.2887 -0.1880
12481W        W31335   1.763   2.652   1.010 -0.2053  0.2894 -0.0662
12482W        W31336  12.082   3.673   3.126 -0.1866 -0.0697 -0.0412
12483W        W31337  11.779  11.696   0.643 -0.4397  0.1045 -0.0187
12484W        W31338  10.623  17.181  12.792  0.2015 -0.0379  0.1886
12485W        W31339  11.376   4.133  12.856 -0.2447 -0.0221 -0.0497
12486W        W31340   6.463  12.500  14.165  0.2367 -0.0064 -0.3869
12487W        W31341  15.600   1.905  13.266 -0.0399  0.2802 -0.1747
12488W        W31342  16.780  12.470  17.147 -0.0419  0.2943  0.0973
12489W        W31343  16.537  12.266  15.583  0.0835 -0.0030 -0.0451
12490W        W31344   3.000  13.429  11.993  0.1470  0.0678 -0.1145
12491W        W31345   1.593   8.111  17.280  0.1191  0.0804  0.3561
12492W        W31346  14.370   9.483  16.307  0.0292 -0.1088 -0.1369
12493W        W31347  10.459   2.898   3.706  0.1044 -0.1754 -0.1492
12494W        W31348   1.326   6.066   0.993 -0.2711  0.2569  0.2107
12495W        W31349  10.068   1.231   4.005  0.2421  0.0803 -0.3742
12496W        W31350   2.983  16.723   3.866 -0.3143  0.0147  0.2317
12497W        W31351  11.964  15.797  16.050  0.2310  0.2835  0.2094
12498W        W31352   2.878  17.009   5.305  0.2989 -0.1269 -0.0384
12499W        W31353   8.684  11.812   3.674  0.0825 -0.0070 -0.2289
12500W        W31354  15.375  10.375  16.594 -0.2253  0.0385 -0.0038
12501W        W31355  11.532   4.575   3.109 -0.2369  0.0947  0.0351
12502W        W31356   6.947  10.834  13.871  0.0501 -0.1633 -0.3240
12503W        W31357   7.344   6.130  13.047 -0.1734 -0.1301  0.0960
12504W        W31358   1.133   3.167  17.322  0.0557  0.4412  0.1758
12505W        W31359  14.393   3.436  17.065  0.0895 -0.0649 -0.1988
12506W        W31360   1.352   4.216  14.947  0.0910 -0.0095 -0.3737
12507W        W31361   7.298  15.834   4.071 -0.1344 -0.2298 -0.0910
12508W        W31362   2.140   7.119  14.779 -0.1932  0.0251  0.0999
12509W        W31363   7.644   0.667   0.395 -0.0308  0.1939  0.2600
12510W        W31364  11.656  10.116   5.037 -0.4970 -0.3141 -0.0172
12511W        W31365   6.332   0.850  17.125  0.1617 -0.1249  0.0627
12512W        W31366  13.063  15.898  12.433 -0.3256 -0.1185  0.0614
12513W        W31367  15.599  10.793   3.300  0.2452 -0.1026 -0.3474
12514W        W31368   7.098   7.590  14.061  0.0778  0.2387 -0.0878
12515W        W31369  15.466   2.602   0.195 -0.1165  0.2106  0.1596
12516W        W31370   3.247   7.066  14.717 -0.3204 -0.0171  0.0082
12517W        W31371  14.016  14.283  16.606  0.2611 -0.0563 -0.1738
12518W        W31372  11.584   1.937  12.392 -0.1321 -0.0496 -0.3019
12519W        W31373   4.328  13.693   2.066 -0.1953 -0.2778  0.0232
12520W        W31374   2.239   1.622  14.853  0.0621 -0.0596  0.0017
12521W        W31375   6.236   5.762   4.199  0.1501 -0.0089 -0.1061
12522W        W31376   5.800   5.852  15.426  0.1551  0.0847  0.0618
12523W        W31377  17.029   2.447  14.601  0.2803 -0.0355 -0.1605
12524W        W31378  10.904  10.693  12.611 -0.0841 -0.0486 -0.1357
12525W        W31379  15.477   5.061   0.881  0.3150  0.2001  0.0816
12526W        W31380  16.542  12.613   3.411  0.2537 -0.1173 -0.1649
12527W        W31381  13.491   1.607  17.355 -0.3619 -0.3479 -0.1688
12528W        W31382  12.528  11.542  14.079  0.0476  0.0003 -0.0443
12529W        W31383   6.862   2.123   2.431  0.2076  0.0088 -0.1458
12530W        W31384  15.518   2.495  17.117  0.0303 -0.3886 -0.0037
12531W        W31385  16.958   2.270   4.836 -0.1903 -0.1199  0.1765
12532W        W31386   5.726   8.151  12.474 -0.0327 -0.0659  0.3075
12533W        W31387   7.482  13.256   2.642  0.1409  0.1336 -0.1164
12534W        W31388  16.357   4.866   0.516 -0.0571 -0.0716  0.0203
12535W        W31389   3.123  13.782  15.951 -0.0829  0.4301 -0.1777
12536W        W31390  15.236   7.555  14.689  0.0997 -0.1122 -0.0693
12537W        W31391  15.181  10.545  13.154 -0.0964  0.0091 -0.3398
12538W        W31392  13.831  11.020  16.235 -0.1245 -0.0301 -0.0573
12539W        W31393   4.296   1.255   0.518  0.1448  0.1529 -0.1681
12540W        W31394  10.448  12.868   3.238  0.0147 -0.0837  0.1158
12541W        W31395  11.030  12.333   4.583 -0.0455 -0.0961 -0.0312
12542W        W31396   2.136   8.961   2.467 -0.1628  0.0532  0.1136
12543W        W31397   9.124  12.505   3.323 -0.0544 -0.2752  0.2205
12544W        W31398   5.650  14.005   5.049 -0.1819  0.0588  0.4161
12545W        W31399  15.300   8.629   4.069  0.3765 -0.2514 -0.4106
12546W        W31400  12.318  17.338   4.691 -0.2670  0.1818  0.2244
12547W        W31401   7.017  14.772   2.676 -0.1575 -0.0699  0.0663
12548W        W31402  17.191  11.173   3.008 -0.1698  0.1045 -0.0633
12549W        W31403   8.489  14.124  12.905  0.3398  0.2428  0.0748
12550W        W31404   7.093   4.620   3.946  0.2524 -0.0455 -0.0269
12551W        W31405  11.489  16.957  12.367  0.0617  0.0155  0.1604
12552W        W31406  12.746  12.972  15.952  0.0417 -0.1454 -0.0565
12553W        W31407   8.584   4.599   0.144  0.1080  0.2214  0.0233
12554W        W31408   8.346   4.700   2.784 -0.0997  0.2075  0.1421
12555W        W31409   7.291   1.668  13.470 -0.2330  0.0336  0.0814
12556W        W31410   3.456  10.486   3.194  0.3872 -0.1768  0.3382
12557W        W31411  13.506   7.502  16.769 -0.1020  0.0800 -0.0157
12558W        W31412  10.734  15.923   5.158 -0.2479  0.2620 -0.0221
12559W        W31413  13.733   9.571  14.272 -0.3022  0.0767  0.0406
12560W        W31414  12.689  16.229   1.757  0.0181 -0.3789 -0.0243
12561W        W31415   8.599  17.326   1.286 -0.0109 -0.3081  0.0915
12562W        W31416   2.127   8.009   5.237 -0.2737 -0.0746  0.0549
12563W        W31417   9.342   7.230   0.290  0.1970  0.0294  0.0320
12564W        W31418   1.836   1.825   0.809 -0.2309  0.2417  0.0567
12565W        W31419  14.814   3.975   0.260 -0.1177 -0.1143  0.0934
12566W        W31420   9.032   8.715  12.576  0.0610 -0.0357 -0.2836
12567W        W31421   4.346   1.743   0.715  0.0410 -0.1194 -0.0622
12568W        W31422   1.769  12.148   1.701  0.3412 -0.1486 -0.1306
12569W        W31423   1.741   1.308  14.565  0.0832 -0.1594 -0.0432
12570W        W31424  16.524  16.627   3.407 -0.2615  0.2461 -0.2643
12571W        W31425   5.386  12.692   2.180  0.0272 -0.0313  0.2675
12572W        W31426  15.508   4.526   3.598 -0.0530  0.1680 -0.0613
12573W        W31427   8.601   5.988   4.246  0.1844  0.1229 -0.1628
12574W        W31428   7.770  16.913   1.407  0.3341 -0.1091 -0.2600
12575W        W31429   1.377  10.710  15.222 -0.1550  0.0948  0.0289
12576W        W31430  11.417  11.691  12.645  0.1003  0.0915  0.0293
12577W        W31431   9.567  14.269  16.780 -0.1563 -0.1861  0.1360
12578W        W31432  16.614   9.470  17.361 -0.1784  0.1744  0.0076
12579W        W31433   4.358   4.507  15.501  0.1371 -0.0556 -0.2238
12580W        W31434   6.870  10.184  17.016  0.0764 -0.0274 -0.1353
12581W        W31435  16.911  10.267   0.464 -0.0902  0.1774  0.1778
12582W        W31436   5.583   2.316   2.214  0.1449  0.0146 -0.1907
12583W        W31437   9.149  14.871   3.822  0.1361 -0.1278  0.3022
12584W        W31438  14.671   4.059   0.868 -0.2454  0.0038  0.0200
12585W        W31439  14.800  10.516  12.404 -0.2599 -0.3571 -0.2012
12586W        W31440  13.128  13.859  15.956 -0.2114 -0.0105 -0.2358
12587W        W31441   0.006  11.418  16.323 -0.0018  0.0709  0.0886
12588W        W31442   2.667   6.915  13.637  0.3210 -0.3503 -0.0275
12589W        W31443  12.558  16.762  15.613 -0.0849 -0.0844  0.0017
12590W        W31444  15.437   4.678   1.909  0.0358  0.0086  0.1086
12591W        W31445  17.148  10.356   4.101  0.1665  0.2969  0.2452
12592W        W31446   5.718  12.648   3.758  0.1104 -0.1527 -0.1314
12593W        W31447   5.547  13.944  13.173  0.0768  0.1201 -0.1778
12594W        W31448   4.848   7.615  14.656 -0.1018 -0.3277 -0.3127
12595W        W31449   9.598  13.213   2.129  0.1418  0.2102 -0.0562
12596W        W31450   5.593  10.599  14.007  0.0251 -0.0453  0.0097
12597W        W31451   7.802   2.815   4.667 -0.3927  0.1726  0.0589
12598W        W31452  10.234   0.175  15.774 -0.1099 -0.1140  0.1524
12599W        W31453  10.140   8.980  14.521 -0.1884  0.2324 -0.3687
12600W        W31454  17.272   4.631  13.998  0.0191  0.0238 -0.0021
12601W        W31455   8.998   9.178  15.123 -0.0765 -0.2463 -0.0773
12602W        W31456   8.502  12.177  10.852 -0.1986 -0.0092  0.0334
12603W        W31457   2.121   0.282   3.311 -0.1140 -0.0151  0.1359
12604W        W31458   8.500  16.101   0.193 -0.2835  0.0975  0.0280
12605W        W31459   6.341   0.271   0.937 -0.2070 -0.1038 -0.0665
12606W        W31460   1.083   9.858   0.192  0.1197  0.0435  0.2258
12607W        W31461  11.912   2.074  16.423  0.1398  0.3762  0.1368
12608W        W31462  17.036   6.117   0.660 -0.0195  0.0573  0.0016
12609W        W31463   7.609   3.296  17.297 -0.0398  0.4282 -0.1597
12610W        W31464  14.878  11.109   2.941 -0.2583  0.0657 -0.0010
12611W        W31465  11.228  16.462   3.900 -0.1159  0.0490  0.0316
12612W        W31466  12.656   4.322  15.397 -0.1722  0.2916 -0.1128
12613W        W31467   5.447   5.554  15.521  0.1782  0.1693 -0.0474
12614W        W31468   4.674  14.719  13.119 -0.0312 -0.0586 -0.1561
12615W        W31469  16.316  17.000  16.189 -0.3780 -0.0817 -0.1096
12616W        W31470   1.050   7.127  12.538 -0.0929 -0.1796 -0.0168
12617W        W31471   2.661   7.604  14.153 -0.4060 -0.0951 -0.0029
12618W        W31472  12.860   8.552   0.718 -0.0815  0.3349  0.0099
12619W        W31473  11.522  12.698  14.124  0.0471 -0.2730  0.0927
12620W        W31474   2.507   2.887   1.509  0.0556  0.2122 -0.0716
12621W        W31475   3.521  11.060   5.394  0.2170 -0.0822  0.2253
12622W        W31476  13.693   9.680   2.205  0.0826 -0.2134  0.0085
12623W        W31477  10.085  14.618  12.889 -0.3569 -0.2748  0.3022
12624W        W31478  16.863  12.739  14.689  0.2407  0.1626  0.0026
12625W        W31479   3.324  13.649  15.396 -0.2389 -0.0207 -0.0174
12626W        W31480   9.196   5.156  13.111 -0.0603 -0.2204  0.0980
12627W        W31481  11.375  14.241   3.811  0.1850 -0.1324  0.0037
12628W        W31482   3.642  10.536   4.252  0.0519  0.1931 -0.2633
12629W        W31483   6.936   7.957  12.216  0.0062 -0.1744  0.0987
12630W        W31484   4.037   5.952  12.589  0.1889  0.0998 -0.0397
12631W        W31485   4.185   0.995  14.410 -0.3009 -0.2033 -0.1656
12632W        W31486   7.991  14.673  11.362 -0.0314 -0.1782 -0.0374
12633W        W31487  11.892  12.886   3.288 -0.1134 -0.0025  0.2792
12634W        W31488   6.181  10.200  14.488 -0.2540  0.0315  0.0127
12635W        W31489  13.682   8.089  11.965 -0.0394 -0.0424 -0.2295
12636W        W31490   4.913  16.095   1.185 -0.1265  0.1639 -0.0612
12637W        W31491   3.204  10.222  17.240 -0.4713  0.0898  0.0065
12638W        W31492   8.209   0.279  15.419  0.0492 -0.0193  0.0316
12639W        W31493  10.809   5.738  12.798 -0.2732  0.0149 -0.0468
12640W        W31494   9.013   9.949  16.755 -0.1321  0.0839 -0.0371
12641W        W31495   7.081   2.431  11.624 -0.0471 -0.0608  0.0135
12642W        W31496  11.227  14.081   3.364 -0.2703  0.1452  0.2308
12643W        W31497   8.776   7.246  14.430  0.1602 -0.0399 -0.0581
12644W        W31498  17.145  11.863  16.170  0.1922 -0.0471  0.4866
12645W        W31499  10.380   4.601   1.318  0.1078 -0.0377  0.0296
12646W        W31500   8.127   0.532  15.847 -0.1990  0.3229  0.1374
12647W        W31501   9.998   0.440  13.228 -0.1651 -0.2706  0.1571
12648W        W31502   6.323   5.204   4.841  0.0071  0.1247 -0.0086
12649W        W31503   9.403  11.661  13.056  0.1720  0.0755 -0.0053
12650W        W31504  14.867   9.424   0.090 -0.1178  0.0633  0.0202
12651W        W31505   6.075  10.759   1.858 -0.2356  0.1605  0.1980
12652W        W31506  15.581   6.998  15.289 -0.1825 -0.1699 -0.2717
12653W        W31507   3.959   2.184  16.180  0.2951 -0.1000 -0.0611
12654W        W31508  16.095   6.468   1.823 -0.0091  0.2083  0.0778
12655W        W31509   1.216  12.298   1.646 -0.2806  0.2958 -0.1214
12656W        W31510  13.217   3.899  14.731  0.0022  0.2267  0.1392
12657W        W31511   6.147   9.024   0.851  0.4084  0.0950  0.0170
12658W        W31512   1.201   0.882   1.021 -0.0585 -0.3042  0.0871
12659W        W31513   9.628   4.493   2.385 -0.1635  0.0969  0.1730
12660W        W31514   0.416   6.816   1.554 -0.2201 -0.0358  0.2468
12661W        W31515  16.662   3.104   1.373 -0.0091  0.0997 -0.0584
12662W        W31516  14.645  11.641  14.099 -0.1855 -0.1828  0.0803
12663W        W31517   4.770   7.822   4.125 -0.0139  0.0002  0.1637
12664W        W31518   6.451  14.660  13.607  0.0820 -0.1783  0.0823
12665W        W31519   7.516  17.001   4.159  0.0195 -0.0781  0.0524
12666W        W31520  10.838   6.273  16.727  0.3312 -0.0074  0.2467
12667W        W31521  12.614   9.826   0.534  0.1537 -0.3942 -0.0941
12668W        W31522   4.416  10.275   3.381 -0.2111 -0.0919  0.0108
12669W        W31523   0.611  14.832  12.660 -0.2629  0.1546  0.1129
12670W        W31524  10.774  14.242   3.442 -0.2267  0.1076  0.1831
12671W        W31525  15.903   5.563   5.224 -0.0577 -0.1199 -0.0737
12672W        W31526   5.987   8.570  15.492 -0.0698  0.2901  0.1002
12673W        W31527   6.906   2.703  16.589  0.0503 -0.0444 -0.1793
12674W        W31528  13.253   6.817   1.556 -0.0919 -0.0921 -0.1355
12675W        W31529   9.887  17.238   3.497 -0.2931 -0.2105 -0.0200
12676W        W31530   0.397   9.586  15.846 -0.2727 -0.0737  0.0065
12677W        W31531  13.571  12.859   1.315 -0.0508 -0.0621  0.2009
12678W        W31532   4.376   7.154   4.009 -0.2733 -0.4989  0.1443
12679W        W31533  13.195   4.534   0.854  0.1411 -0.1656 -0.2404
12680W        W31534   2.860   0.523   1.866  0.0322  0.0626  0.0907
12681W        W31535  10.051   3.167  12.788  0.0567  0.0955  0.0862
12682W        W31536   6.609  13.507  16.624  0.3424  0.1403  0.2282
12683W        W31537  10.307   7.740   2.558 -0.1390  0.0552 -0.0221
12684W        W31538  13.993   3.167  16.921 -0.1109  0.1594  0.1999
12685W        W31539  10.090   9.193   3.429 -0.1368 -0.4140 -0.2867
12686W        W31540   6.491  16.129   1.608  0.0441 -0.0230  0.0336
12687W        W31541  11.435   5.415   3.635  0.1267 -0.3326  0.2402
12688W        W31542  10.055   1.021  14.320  0.0036 -0.2955  0.1430
12689W        W31543   9.748  10.841   3.909  0.1936 -0.1245  0.0939
12690W        W31544   8.395  11.157  17.447  0.1762 -0.1921  0.0260
12691W        W31545   7.986   2.307   2.753 -0.2735  0.0718  0.4725
12692W        W31546   4.169   3.199   1.041 -0.0328  0.0466  0.3504
12693W        W31547  11.141   9.593   3.351  0.1421  0.1591  0.2325
12694W        W31548  10.417  10.474  12.564 -0.0089  0.2205  0.0594
12695W        W31549   8.710   9.108  17.180 -0.0077 -0.1644 -0.0932
12696W        W31550   1.632  14.069   1.029  0.1537  0.1106 -0.0639
12697W        W31551   5.776   0.632  15.044 -0.3980 -0.0289 -0.2078
12698W        W31552  15.691   7.704  12.401 -0.1003 -0.1496  0.0712
12699W        W31553  11.825  14.153  14.931  0.0089  0.1949 -0.2026
12700W        W31554  13.225   0.400  14.554 -0.1496 -0.1014 -0.0171
12701W        W31555   0.844   7.813   3.995 -0.0337 -0.0478  0.2002
12702W        W31556  11.194  10.696   3.327  0.0247  0.1148 -0.1541
12703W        W31557   2.926  10.745  14.828  0.0366  0.0679  0.2547
12704W        W31558   2.937   6.463  16.753  0.0501  0.1001 -0.0097
12705W        W31559   9.928  14.315   3.027  0.1482  0.1637  0.1122
12706W        W31560   8.868  11.558  16.043  0.0105  0.0592  0.3286
12707W        W31561  16.924  11.523   1.709 -0.1530  0.2713 -0.1661
12708W        W31562  10.057   6.467  14.584 -0.0343 -0.3374 -0.2690
12709W        W31563   0.596   0.528  16.015  0.0843  0.0566  0.1266
12710W        W31564   6.984   0.874   1.661  0.1173  0.1512  0.4420
12711W        W31565  15.227   9.114   3.327 -0.0712 -0.0472  0.0852
12712W        W31566   4.438  10.719  12.574 -0.1437 -0.0906 -0.1264
12713W        W31567   5.301  16.841   3.177 -0.1391 -0.0852 -0.0070
12714W        W31568   4.511   1.599  15.077 -0.2341  0.1532 -0.1247
12715W        W31569   0.431  10.582  12.435  0.0318  0.3354 -0.0253
12716W        W31570   5.490  12.678  14.467 -0.3289  0.1627  0.2109
12717W        W31571  13.802   0.328   5.454 -0.0181 -0.3273  0.2523
12718W        W31572   0.656   2.066  14.384  0.2849  0.1965 -0.3624
12719W        W31573   0.085  13.144  16.751  0.2613 -0.0366 -0.3184
12720W        W31574  14.529   5.868  14.362 -0.0434  0.2906 -0.0319
12721W        W31575   1.553   9.250  12.583  0.1058 -0.1268 -0.0108
12722W        W31576   3.641   5.461   4.393 -0.2770 -0.1902  0.4559
12723W        W31577  14.185   1.922  14.235  0.0768 -0.3671  0.2296
12724W        W31578  14.889   8.114  16.144 -0.1857 -0.2271  0.2494
12725W        W31579  15.890   4.469   3.299 -0.0473  0.0660  0.1467
12726W        W31580   3.479   7.368  14.087  0.5261 -0.0352 -0.0456
12727W        W31581  15.242  12.751  12.779 -0.0060 -0.1191  0.1605
12728W        W31582  13.498  12.431  17.452 -0.0775 -0.0621 -0.1759
12729W        W31583  12.913  14.487   1.772 -0.1427 -0.1765  0.2153
12730W        W31584   4.191   6.837  16.786  0.1644  0.0847 -0.3661
12731W        W31585   3.952  11.418  13.444  0.2952  0.0031  0.2475
12732W        W31586   6.612   5.591  14.200 -0.1398 -0.3814 -0.0407
12733W        W31587   0.017   6.556   3.366  0.0706  0.1283  0.3617
12734W        W31588   4.490   4.014  15.527  0.1071  0.0607  0.0609
12735W        W31589  10.789   9.852   4.192 -0.3773 -0.2851 -0.1285
12736W        W31590   5.325   0.410  14.858 -0.2514 -0.0749  0.0675
12737W        W31591   4.561   6.576  13.969 -0.3139 -0.0770 -0.2993
12738W        W31592   0.991   7.985   2.083 -0.2397 -0.1083  0.2751
12739W        W31593   0.967  16.376   3.874  0.0350  0.0010 -0.1637
12740W        W31594  16.338  14.610   5.003  0.1778  0.0917 -0.0083
12741W        W31595   2.964   6.702  12.767  0.0443 -0.2123  0.1457
12742W        W31596   2.980   3.180   3.921  0.0566  0.2417  0.1508
12743W        W31597   1.301   6.914   3.871  0.0401 -0.0718 -0.3274
12744W        W31598   6.302  11.493  12.653  0.1480 -0.1871 -0.0420
12745W        W31599   2.418  17.104   5.053 -0.0973 -0.3174 -0.2458
12746W        W31600  14.877  15.484  16.815  0.0331  0.4099  0.0958
12747W        W31601  13.326  12.527  12.679 -0.2136 -0.0315  0.1845
12748W        W31602  11.306   6.571  14.305  0.0045 -0.0685  0.1126
12749W        W31603   9.859  11.355  13.791  0.0338 -0.0513 -0.1827
12750W        W31604  14.082   4.456   4.263 -0.0324  0.1099 -0.2526
12751W        W31605   8.200  13.128  14.222  0.0790 -0.1403 -0.1136
12752W        W31606   1.422   1.586   5.132  0.2734 -0.1021  0.2545
12753W        W31607   8.700   4.211   3.371  0.0132  0.2656  0.1647
12754W        W31608   5.108   7.836   5.102  0.0605  0.2091 -0.2567
12755W        W31609  14.054   2.126  14.650  0.0484  0.0175  0.0032
12756W        W31610   1.123  10.045   3.796 -0.0360 -0.0676  0.0358
12757W        W31611   7.971  12.189  14.527  0.0280  0.1117  0.1028
12758W        W31612  11.792   4.512   4.263  0.1020 -0.1426 -0.3709
12759W        W31613   7.256  11.339  13.842 -0.1136 -0.1985  0.3517
12760W        W31614   9.215   5.919   1.013 -0.1085  0.2257 -0.1459
12761W        W31615   4.237   4.766  17.089  0.0730  0.0384  0.0105
12762W        W31616   7.297   9.494  12.672  0.1333 -0.0711 -0.0761
12763W        W31617  13.787  15.772  13.531 -0.1023 -0.0090  0.2635
12764W        W31618   7.818   5.877   2.236  0.1155  0.1261  0.0013
12765W        W31619   4.140   3.052   3.635 -0.1537 -0.3239 -0.0671
12766W        W31620   7.779  11.362   2.060  0.0183  0.1192 -0.0631
12767W        W31621   1.279   2.033  14.858  0.1019  0.1123  0.3539
12768W        W31622   6.696   5.678   1.588 -0.0182  0.1119  0.0782
12769W        W31623   7.528   2.828  17.396 -0.2069 -0.1231  0.0080
12770W        W31624   1.687  15.103   2.205 -0.1280  0.0832 -0.2884
12771W        W31625   5.341  16.891  13.093  0.1694 -0.4039 -0.0715
12772W        W31626  16.442  12.558   2.181 -0.0141  0.2946 -0.0291
12773W        W31627   4.906  14.804   0.948 -0.1573  0.1184  0.4960
12774W        W31628   9.339  17.110  15.690 -0.2004  0.1008 -0.2978
12775W        W31629  11.626   1.843  16.908  0.1731  0.3170 -0.1143
12776W        W31630   3.883   2.581  16.975  0.0581 -0.1131  0.0361
12777W        W31631   5.823   0.596  17.002 -0.2632 -0.1124 -0.1754
12778W        W31632  14.275  13.873  13.396 -0.3543  0.2019 -0.0672
12779W        W31633  11.128   3.113  14.371  0.0873  0.0603  0.3389
12780W        W31634   1.984  17.131  16.572  0.3234 -0.1304 -0.1021
12781W        W31635   6.564  14.202   3.435  0.0393  0.2889  0.0742
12782W        W31636  16.427   6.627   5.394  0.2796  0.0079 -0.1698
12783W        W31637   6.152  13.349   2.494 -0.0648 -0.2545  0.1347
12784W        W31638   6.730   4.021   1.501  0.0627  0.2608 -0.0020
12785W        W31639   6.670  15.653  16.131  0.1054 -0.2101 -0.1385
12786W        W31640   8.609   9.023  12.161  0.0034 -0.0907  0.0824
12787W        W31641   7.497   8.036  14.996 -0.1652 -0.0660  0.1015
12788W        W31642   9.315  12.944  14.398  0.0746  0.1303  0.2559
12789W        W31643   4.686   9.333   2.451 -0.3196  0.1118 -0.3482
12790W        W31644  10.238  10.834  12.014  0.1518  0.0491  0.2174
12791W        W31645  15.308  11.488  16.717  0.0394 -0.3729  0.2426
12792W        W31646  17.319  14.984   3.431  0.0030 -0.1202  0.0181
12793W        W31647   3.184   4.478   3.574 -0.1766  0.1203 -0.0318
12794W        W31648   3.980   5.805   1.132 -0.0010 -0.1773 -0.0057
12795W        W31649  14.096  10.044   4.039 -0.2283 -0.0446  0.2254
12796W        W31650  16.286   3.270   4.223 -0.3249 -0.1137  0.0648
12797W        W31651   0.830   6.226  13.956  0.1693  0.1566 -0.1597
12798W        W31652  11.688  16.216  14.533 -0.0168  0.0340  0.0193
12799W        W31653   5.036  17.322  14.985 -0.1259  0.1376  0.3692
12800W        W31654   6.470   9.749  13.702 -0.1555  0.0819 -0.3771
12801W        W31655   7.222  14.752   0.693 -0.1022  0.0105  0.1069
12802W        W31656   3.949   7.381   0.386  0.1506  0.1118 -0.0834
12803W        W31657   5.538   9.999   0.900 -0.0345  0.0436  0.0492
12804W        W31658  10.111  15.833   1.845  0.1639 -0.1286 -0.1921
12805W        W31659   6.208  15.201  15.777  0.1896 -0.1827 -0.0209
12806W        W31660   9.923  14.422  14.278  0.0302  0.0284  0.1656
12807W        W31661   1.533   9.581  16.963 -0.1595  0.0583 -0.1535
12808W        W31662  14.874   5.337  17.046  0.1227  0.0535  0.0871
12809W        W31663  17.050   0.049   3.591 -0.1730  0.2385 -0.2097
12810W        W31664   0.689  16.561   2.367 -0.2475 -0.0526  0.0536
12811W        W31665   0.758   8.398   0.624  0.0382  0.1104  0.0534
12812W        W31666  12.315   6.367   3.804  0.1409 -0.0419  0.0473
12813W        W31667   5.058   2.957  16.961 -0.1006  0.3169 -0.0831
12814W        W31668  13.616  13.599  17.172  0.0967  0.0629 -0.1517
12815W        W31669   4.042   5.109  12.994 -0.0467  0.0792 -0.2388
12816W        W31670   0.247   6.703  13.066 -0.0767 -0.1683 -0.1097
12817W        W31671  14.601  15.014   4.074  0.4277 -0.0223 -0.0979
12818W        W31672  14.723   8.711   6.205  0.0653  0.1455 -0.0753
12819W        W31673   9.776  12.319   5.543  0.0694  0.0456  0.0746
12820W        W31674   9.655   3.449   3.474  0.2042 -0.2118 -0.0780
12821W        W31675  12.856   9.156   1.096 -0.1937 -0.3020  0.1485
12822W        W31676  16.981   7.900  12.334 -0.0167  0.2806  0.1047
12823W        W31677   1.871   1.531  13.602 -0.0646 -0.0045  0.1279
12824W        W31678   2.560   3.850  13.755  0.1554  0.3577  0.0707
12825W        W31679   8.581   2.436   2.073  0.3502 -0.1355  0.2644
12826W        W31680  11.208   8.809   3.114 -0.4264 -0.0334 -0.1243
12827W        W31681   0.194  10.522   2.502  0.1231  0.1614  0.3286
12828W        W31682  11.278   3.413  12.048 -0.2874  0.2758  0.0133
12829W        W31683  10.007   8.925  13.771 -0.0526  0.1645 -0.1664
12830W        W31684  15.325   8.173  16.376 -0.3227 -0.0221  0.1907
12831W        W31685   9.368  13.688   3.994  0.0280  0.0491 -0.1638
12832W        W31686  16.310  10.880  16.935 -0.3766 -0.0248 -0.1254
12833W        W31687  16.898   4.448   4.034  0.5101  0.0377  0.1444
12834W        W31688  12.286   5.443   4.170 -0.1515 -0.3906  0.1670
12835W        W31689   6.435  10.961   1.483  0.3133  0.1316  0.0293
12836W        W31690   0.206   6.412  13.457  0.1993 -0.3003  0.0609
12837W        W31691  10.808  12.900  13.362 -0.0572  0.1701 -0.1602
12838W        W31692   5.285  16.497  14.915 -0.0498 -0.0254  0.1058
12839W        W31693   4.191  12.649  17.357 -0.0513 -0.1221 -0.2266
12840W        W31694  14.130   8.523   4.366  0.0655 -0.0610  0.1201
12841W        W31695   2.460   3.102   0.441  0.0365  0.0649  0.0279
12842W        W31696  13.335  15.362  14.879  0.0793  0.0585  0.1141
12843W        W31697  16.778   3.675   4.139  0.0585 -0.1560 -0.0484
12844W        W31698  14.748  17.225   2.419 -0.1184 -0.0267  0.2015
12845W        W31699  11.036   4.056  14.722 -0.3337 -0.2543  0.0811
12846W        W31700  15.318   5.545   0.943 -0.0005 -0.1022  0.2655
12847W        W31701   9.737  15.889   2.215 -0.0260 -0.3232 -0.1295
12848W        W31702  11.953   8.802   4.960 -0.0026 -0.0176  0.0272
12849W        W31703   4.311  10.193   4.261 -0.0497 -0.0353  0.2262
12850W        W31704  10.097  10.167   4.021 -0.3650  0.1170 -0.0352
12851W        W31705   8.778   3.171  17.369 -0.0210 -0.1734  0.1333
12852W        W31706  16.566  10.889  13.345  0.1794 -0.4070 -0.2171
12853W        W31707  15.042   1.673   1.918 -0.3064  0.1404  0.0472
12854W        W31708   6.901   0.630   5.092  0.1810  0.3742 -0.2571
12855W        W31709   3.746  13.648   2.277 -0.0328 -0.3278 -0.3243
12856W        W31710  13.967  12.017   2.584  0.0185 -0.2818  0.2515
12857W        W31711   4.392  15.666  14.018 -0.1292  0.2415 -0.0414
12858W        W31712  16.724  11.290   1.061 -0.0427  0.0238  0.1171
12859W        W31713  12.764   2.613  13.822  0.1434 -0.1925  0.2206
12860W        W31714  10.360   7.347  16.215 -0.3556  0.0401 -0.0102
12861W        W31715   1.737  15.322   4.969 -0.2182  0.0891 -0.0977
12862W        W31716   4.940   8.044   0.694  0.2239 -0.4439  0.3279
12863W        W31717   0.300   2.945  16.786  0.2641  0.2408 -0.1232
12864W        W31718   5.466   0.832  12.382  0.0877 -0.4009 -0.2487
12865W        W31719   1.509  12.760   1.692 -0.1698  0.2173  0.0044
12866W        W31720  15.908   6.739  14.464 -0.0989 -0.0803 -0.0504
12867W        W31721   2.737   4.871   0.433  0.1210 -0.1577 -0.0818
12868W        W31722  16.118   1.959  13.141 -0.0154  0.4033  0.1033
12869W        W31723  16.664  16.777  14.488  0.0824 -0.1967 -0.0662
12870W        W31724  12.656  13.737   5.027 -0.2949  0.4507 -0.1032
12871W        W31725   1.354   8.255  14.332 -0.3182  0.0804  0.0688
12872W        W31726  16.981   7.693  14.262  0.1127  0.1317  0.3397
12873W        W31727   3.507   1.206   3.525  0.0554  0.2187 -0.1255
12874W        W31728   3.879   8.561   0.403 -0.3208 -0.3484 -0.1519
12875W        W31729   2.298   5.833   3.981 -0.1290 -0.1620 -0.0631
12876W        W31730   2.459   6.894   2.871  0.1969 -0.2766  0.1751
12877W        W31731   0.136   1.121   1.126  0.0249 -0.0821 -0.2740
12878W        W31732   0.193   8.834   3.399 -0.3579 -0.0532 -0.1509
12879W        W31733  13.822   9.238   1.972  0.2310 -0.0104 -0.1618
12880W        W31734   8.078   3.558   1.134  0.1768  0.5298  0.0146
12881W        W31735  16.166   9.444   2.057 -0.0226  0.0828 -0.1123
12882W        W31736   5.378  14.691  12.017 -0.0988 -0.2038  0.0681
12883W        W31737   5.210  13.353   0.121  0.1848  0.3710 -0.0926
12884W        W31738  10.826   0.855  14.599  0.1651  0.0426  0.0187
12885W        W31739  15.789   7.266   1.492 -0.2684  0.2996 -0.3367
12886W        W31740  15.153  17.185  12.280  0.2009  0.3421  0.0520
12887W        W31741  11.633  16.701  11.948 -0.0891  0.1919 -0.1469
12888W        W31742   5.020   8.128  17.143  0.2663  0.1009  0.4323
12889W        W31743  17.204  13.946  16.420  0.3023  0.2281 -0.1613
12890W        W31744   3.272   8.622  15.725  0.1785 -0.2803 -0.0498
12891W        W31745   3.983  13.298  13.139 -0.1698 -0.2829 -0.0876
12892W        W31746  17.154   3.411  13.748 -0.2200  0.0798  0.0882
12893W        W31747   7.907  15.774  12.298 -0.0249 -0.1022  0.1966
12894W        W31748   6.351  10.047  13.337 -0.0837  0.3206  0.0787
12895W        W31749   4.088  13.807   2.970 -0.1856  0.0467 -0.1005
12896W        W31750  13.432   0.946   4.471 -0.0754  0.0288  0.1337
12897W        W31751   3.956  12.652  12.523  0.1262  0.0673  0.0019
12898W        W31752  16.649   2.589   3.761 -0.0165  0.0795 -0.2096
12899W        W31753   6.826   5.760  16.407  0.0167 -0.1189  0.3702
12900W        W31754   2.449   4.724  14.101 -0.3327 -0.0932 -0.1824
12901W        W31755   5.627   9.439   2.732  0.0709  0.0770  0.0001
12902W        W31756   3.619   9.026   0.280  0.5218 -0.2221 -0.1230
12903W        W31757  16.522  13.619   3.706  0.2080  0.0603  0.4594
12904W        W31758   8.678   8.210  16.946  0.1582 -0.1190  0.0821
12905W        W31759   7.487  13.163   1.469 -0.1822  0.0163 -0.2270
12906W        W31760   8.596   8.668  16.164 -0.1984 -0.0264  0.0178
12907W        W31761   0.868   8.505  16.626  0.1565  0.0214 -0.0033
12908W        W31762   8.356  15.286   2.875 -0.0721  0.2543  0.0943
12909W        W31763  13.118   4.857  13.218 -0.1885  0.0140  0.2639
12910W        W31764  16.928  14.104   4.982  0.0154 -0.1839  0.3267
12911W        W31765   5.592  13.455   3.127 -0.1328 -0.1769 -0.0395
12912W        W31766   2.994  14.696   4.896 -0.0751  0.2266  0.0209
12913W        W31767   5.706   3.086  15.226  0.0482  0.0756  0.0080
12914W        W31768   7.648   7.051   3.090  0.0788 -0.2006  0.2587
12915W        W31769   1.342  14.888  13.656  0.1472  0.2001 -0.4183
12916W        W31770   4.860  11.104  13.225  0.0714  0.0460  0.2220
12917W        W31771   1.970   6.426   0.956 -0.0297 -0.2480 -0.1805
12918W        W31772   4.911   9.786  14.705  0.1282  0.0783  0.2024
12919W        W31773  13.381  14.868  14.816  0.0712  0.2590 -0.1254
12920W        W31774   7.206  10.511   3.489  0.1678 -0.3956  0.0859
12921W        W31775  11.425   4.953  15.331  0.3573 -0.0433 -0.4838
12922W        W31776   9.998  12.925  17.252 -0.1685 -0.0788 -0.2824
12923W        W31777  15.384  13.336   4.336  0.0946 -0.2762 -0.3671
12924W        W31778  14.626  12.762  12.691 -0.0092  0.4215 -0.2091
12925W        W31779   4.812   0.929   5.056 -0.0352  0.0315 -0.2322
12926W        W31780  17.133   2.663   2.816  0.1407 -0.1412  0.0601
12927W        W31781   8.246   2.667  17.056 -0.3538 -0.0703  0.1390
12928W        W31782  10.536  11.348   4.550 -0.1466 -0.1624  0.0043
12929W        W31783  15.813   6.292  12.797 -0.0277 -0.2502  0.0730
12930W        W31784   7.574  17.003  12.888  0.0460 -0.1838  0.1498
12931W        W31785   0.381  10.176  12.772 -0.1291 -0.0492 -0.1370
12932W        W31786   2.455  15.309  15.044  0.2334  0.0354  0.1516
12933W        W31787  15.280   2.440  15.947 -0.2035 -0.0638  0.0037
12934W        W31788  16.270   1.174  13.656  0.0724 -0.0681  0.3971
12935W        W31789   2.847  10.848   1.554  0.0785  0.2094 -0.0283
12936W        W31790  13.924  10.205  16.660 -0.2352 -0.1803 -0.0953
12937W        W31791   3.392  16.798  15.498 -0.1810 -0.1657 -0.2354
12938W        W31792   6.426  13.444  14.262  0.2610 -0.2911 -0.1587
12939W        W31793   1.224   8.253   3.524 -0.1803 -0.2818 -0.0304
12940W        W31794  12.037  13.782   3.479 -0.0008 -0.0129  0.1026
12941W        W31795  10.557   9.615   4.920  0.0387 -0.0672  0.0490
12942W        W31796   5.465   2.971   3.827  0.1721  0.0946  0.2620
12943W        W31797   7.685   7.597   3.218 -0.0896  0.0676  0.2764
12944W        W31798   1.192  12.966  13.899 -0.1720 -0.6060 -0.2069
12945W        W31799  16.001  11.617   2.618 -0.1992 -0.0237  0.0301
12946W        W31800   0.747   8.685  17.090 -0.0517 -0.1339  0.2046
12947W        W31801  11.637   6.731   3.386  0.1016  0.2869  0.0100
12948W        W31802   0.753  14.742  16.188 -0.1864  0.0143 -0.3544
12949W        W31803   4.027   1.052  16.314  0.2499 -0.1470 -0.0280
12950W        W31804  10.267   1.777   2.981  0.2230 -0.1098  0.5276
12951W        W31805  10.891  10.613   1.214  0.3114 -0.0270  0.1030
12952W        W31806  15.598  13.233   2.413  0.2987 -0.0319 -0.0640
12953W        W31807   2.070  14.153   0.687 -0.1062 -0.0414 -0.1310
12954W        W31808  14.354   5.447  12.228  0.3041 -0.0599  0.2358
12955W        W31809   3.521  10.935  13.155  0.2090 -0.3000  0.0533
12956W        W31810  14.651   5.912   2.228 -0.1397  0.1363 -0.2265
12957W        W31811   4.245   1.803  16.526  0.0091 -0.1115 -0.2980
12958W        W31812  12.443  13.601  15.677 -0.0881  0.2298 -0.1043
12959W        W31813   3.420   5.775  16.512  0.1494 -0.1065 -0.0984
12960W        W31814   7.300   2.955   0.612  0.1906 -0.0849  0.3920
12961W        W31815   9.338   9.819   5.223  0.2069  0.2069 -0.0634
12962W        W31816   1.840   1.131   3.715 -0.1479  0.1305 -0.1253
12963W        W31817   4.080  11.090   0.857 -0.0930  0.0906 -0.2695
12964W        W31818   1.086  11.456   4.178 -0.2538 -0.0632 -0.0471
12965W        W31819   2.043  14.058  12.359 -0.2028 -0.0918  0.0169
12966W        W31820   1.824  13.230  17.440  0.0995 -0.2876  0.1958
12967W        W31821  13.078   2.400   2.984  0.0534 -0.1619 -0.1160
12968W        W31822   9.981   3.216   1.250  0.0472  0.3683 -0.0298
12969W        W31823   3.727  11.572   3.769  0.0422  0.0650  0.2865
12970W        W31824  12.838   1.593   6.066  0.1012  0.1895 -0.2159
12971W        W31825   6.257   1.658  14.673 -0.2839 -0.0671 -0.2571
12972W        W31826   2.884   5.075   3.549 -0.1071  0.0621 -0.1697
12973W        W31827   1.594   3.068   0.054 -0.1835 -0.0285  0.1124
12974W        W31828  10.249   0.564  17.331  0.1564  0.2343  0.2467
12975W        W31829  16.809   6.928  13.873  0.2497 -0.0783  0.0278
12976W        W31830   8.973   9.389   2.465 -0.0031  0.2162 -0.1320
12977W        W31831   2.349  10.785  17.233 -0.3284  0.0764  0.2400
12978W        W31832   7.190   9.800  16.823  0.2837 -0.0198  0.0013
12979W        W31833   9.890  11.437   0.790 -0.2397  0.0286 -0.1548
12980W        W31834   3.227   3.933   2.064 -0.2540  0.1345 -0.1960
12981W        W31835  10.414  12.236   3.818  0.0384 -0.0775 -0.1895
12982W        W31836   3.553   9.274  15.116 -0.3163  0.0282 -0.1733
12983W        W31837   9.421   9.520   2.485 -0.0048  0.0704  0.2087
12984W        W31838   6.203  15.503   0.067 -0.1700 -0.1017 -0.1400
12985W        W31839   7.691   6.419  14.520  0.0796  0.1780 -0.2908
12986W        W31840  12.080  12.663  16.349  0.4122  0.3014 -0.0578
12987W        W31841  14.875   0.131  15.238 -0.1495  0.0850  0.1115
12988W        W31842  16.923   1.786  15.196  0.3526 -0.2165 -0.1258
12989W        W31843   0.765  11.748  13.195  0.2504 -0.2687 -0.2458
12990W        W31844   7.777  13.219  14.451 -0.0971  0.1181 -0.0108
12991W        W31845  12.275  13.791   5.400  0.0013  0.2334 -0.1854
12992W        W31846   1.282   0.839   4.485 -0.1059  0.0330  0.3656
12993W        W31847  12.231   7.352  16.966 -0.0926 -0.0113 -0.0163
12994W        W31848   0.288  14.150  16.681 -0.3195  0.0009 -0.1173
12995W        W31849   3.871  12.188  12.661 -0.4462 -0.0072 -0.2207
12996W        W31850  14.856   5.745  15.648  0.1637  0.1638 -0.0204
12997W        W31851   5.665  12.868  12.545  0.2326 -0.2095 -0.1141
12998W        W31852   4.100   2.675   5.410  0.1249 -0.0787 -0.0148
12999W        W31853   3.065   1.979   2.199  0.0873 -0.2894  0.0816
13000W        W31854  16.074   1.264  15.436  0.0025 -0.2913  0.2760
13001W        W31855   0.616   8.818  14.149  0.1624  0.1964  0.1124
13002W        W31856   9.856  13.946  15.078  0.2718 -0.0651  0.1554
13003W        W31857   2.692   0.860   0.270 -0.1030 -0.1087  0.0181
13004W        W31858   1.545   3.487  16.159 -0.2123 -0.1404 -0.0025
13005W        W31859  11.076   5.172   4.478 -0.2682  0.0081 -0.1408
13006W        W31860   3.760   7.034  17.034  0.0536 -0.2711 -0.1049
13007W        W31861  16.149   9.120  15.699  0.1367 -0.4195 -0.1013
13008W        W31862   6.801  12.592   0.215 -0.4042 -0.0992  0.0559
13009W        W31863   9.692   8.727  14.704  0.0641 -0.1647  0.3128
13010W        W31864   0.061  13.842   1.819 -0.1381 -0.1416  0.0160
13011W        W31865   0.302   3.307   2.934 -0.1190 -0.0065  0.1384
13012W        W31866   3.606  13.904   4.551 -0.0255 -0.0793 -0.1240
13013W        W31867   2.787  10.059   2.032  0.0340  0.4141  0.1885
13014W        W31868  12.818   5.534  16.874  0.2254  0.1458 -0.1733
13015W        W31869   9.237  13.546  15.547  0.3006 -0.1797 -0.0323
13016W        W31870   9.989  16.278   1.981 -0.1474 -0.0725  0.0420
13017W        W31871   4.066   0.180  16.738 -0.0753  0.0549  0.2994
13018W        W31872  16.372   3.554   2.947 -0.1178  0.2349  0.1462
13019W        W31873  16.572   6.664   0.101 -0.1113 -0.2133 -0.0466
13020W        W31874   7.138   4.521  14.671  0.1008  0.0917 -0.2588
13021W        W31875  16.995  17.321   1.393 -0.0534 -0.0104 -0.3797
13022W        W31876   7.586   7.677  15.853  0.2668 -0.1698  0.0667
13023W        W31877   8.464   0.393  13.197  0.2397 -0.1255 -0.1772
13024W        W31878   4.197   4.224  12.371  0.0441  0.1088  0.0224
13025W        W31879  12.696   7.248  14.286  0.0302  0.0244 -0.1841
13026W        W31880   5.883   0.237   4.571 -0.1680  0.1970  0.0707
13027W        W31881  11.646  11.641  13.252  0.3818  0.1772  0.0114
13028W        W31882  10.747  15.128  12.462 -0.0716  0.0868 -0.1532
13029W        W31883  11.811  15.551  12.751  0.0750 -0.0723 -0.1219
13030W        W31884  13.998   5.650  13.793  0.0897 -0.0318 -0.0095
13031W        W31885  16.806  13.085   2.515 -0.1399 -0.0289 -0.3327
13032W        W31886   0.087  13.491   0.391 -0.1950 -0.3790 -0.1882
13033W        W31887  10.749   4.831   1.039  0.1027  0.2598 -0.2470
13034W        W31888   1.346   8.170  12.946  0.2224  0.3362 -0.2008
13035W        W31889   9.967  16.174   0.662  0.2836  0.1683 -0.0276
13036W        W31890   4.666   6.805   3.746 -0.3453 -0.2149  0.1000
13037W        W31891   9.908   2.246   4.162 -0.2523 -0.1476 -0.0437
13038W        W31892   5.645   8.365   4.024 -0.0371 -0.0009  0.2131
13039W        W31893  17.318  15.843  15.839 -0.0415  0.1262 -0.0620
13040W        W31894   2.003  17.207   3.084  0.2807  0.0630 -0.1152
13041W        W31895  15.418  16.974   1.648 -0.1191  0.4244 -0.3090
13042W        W31896   3.680   6.590  11.231 -0.0984  0.0408 -0.3600
13043W        W31897   8.430   0.379  17.352 -0.1853 -0.0655  0.0310
13044W        W31898  14.098  12.392   0.953  0.0987 -0.3213 -0.0158
13045W        W31899   8.677   6.350   3.907 -0.0106 -0.1652 -0.0274
13046W        W31900   5.325  10.986  15.859 -0.1254 -0.0569 -0.2032
13047W        W31901   8.328  16.066   2.492 -0.1723 -0.0394 -0.1655
13048W        W31902   4.068  11.623  15.332  0.0897  0.2073 -0.0129
13049W        W31903   3.345  10.261   4.512 -0.2252 -0.0147  0.1709
13050W        W31904  14.162  14.980  14.273  0.0919  0.1343  0.0654
13051W        W31905   0.642   8.977   3.243  0.0719  0.2565 -0.1849
13052W        W31906   6.015  15.188   0.536  0.1855 -0.1864 -0.0023
13053W        W31907   5.684   1.617   0.765 -0.1347 -0.0925 -0.0610
13054W        W31908   6.025   3.286  14.870  0.2309 -0.3193 -0.0300
13055W        W31909   5.464  16.420  12.529 -0.0978  0.2060  0.2016
13056W        W31910  16.716  17.314   1.996  0.1095  0.1377  0.2655
13057W        W31911  11.744   6.956   1.391 -0.1193  0.1941 -0.3270
13058W        W31912   1.411  14.868  13.085  0.1094 -0.0113  0.0532
13059W        W31913   1.017  12.362  16.169 -0.0752  0.1322  0.0493
13060W        W31914  16.126   1.411  16.225 -0.0818  0.2315  0.2523
13061W        W31915  15.650   0.955   2.199  0.0421 -0.0201 -0.0063
13062W        W31916   1.027   7.227  13.096 -0.0148 -0.1862 -0.1936
13063W        W31917   7.178   8.068  17.457 -0.3132 -0.1731  0.1749
13064W        W31918   2.237   2.893   3.249  0.1190 -0.2914  0.1578
13065W        W31919   3.746   0.081  12.662 -0.1983  0.1681  0.1069
13066W        W31920   2.622  12.525   5.227  0.1055  0.1397 -0.1215
13067W        W31921   5.262   9.958   4.901 -0.1839  0.2559 -0.1494
13068W        W31922   3.803   4.531  17.181 -0.0201  0.1883  0.5061
13069W        W31923   3.492   5.635  16.029  0.2886  0.3612  0.0050
13070W        W31924  13.194   8.509   4.357 -0.0418 -0.0042 -0.1103
13071W        W31925   7.516   1.077   4.521 -0.0409  0.2808 -0.1426
13072W        W31926  12.294  11.267   3.334 -0.3774  0.2173 -0.1514
13073W        W31927   6.313   4.302   5.567  0.0455 -0.0393 -0.0710
13074W        W31928   7.815   2.573   2.332 -0.0372  0.0873 -0.0477
13075W        W31929   3.558   2.088  12.218 -0.4388  0.0220 -0.0377
13076W        W31930   8.444  15.408  16.100 -0.1084 -0.5364 -0.1727
13077W        W31931   6.615   6.298  12.403  0.1000  0.5133  0.1255
13078W        W31932  15.455  11.507   1.012 -0.0641  0.1275 -0.1446
13079W        W31933   7.668  15.485   3.823  0.0264  0.1811 -0.1030
13080W        W31934   2.595   6.817  17.250  0.0449 -0.1095 -0.1119
13081W        W31935  11.687   6.614   2.822 -0.0357  0.0549  0.1085
13082W        W31936  16.743  12.129   4.305 -0.1168 -0.0610 -0.2790
13083W        W31937  14.142   6.406  16.026  0.0211  0.1277 -0.0506
13084W        W31938  15.447  13.712   1.547 -0.0291  0.0148  0.1717
13085W        W31939   5.351   8.750  12.825 -0.2044  0.2328  0.1165
13086W        W31940   8.181  13.242   0.682  0.1896  0.0572  0.1468
13087W        W31941   9.733  16.225  14.036 -0.1174  0.0863 -0.1685
13088W        W31942  14.714  13.433   2.171  0.0959 -0.0573 -0.0189
13089W        W31943  12.941  13.454  12.725 -0.1230 -0.0733 -0.2527
13090W        W31944  12.074  14.412   1.901 -0.1798 -0.4064 -0.0415
13091W        W31945  10.202  10.698  15.841  0.1801 -0.0639 -0.1455
13092W        W31946  11.036  16.295  15.284  0.0153  0.0234  0.3555
13093W        W31947  13.738  10.163   2.734 -0.1056 -0.0245 -0.3418
13094W        W31948   6.092   3.629   1.038  0.0048  0.0702  0.2173
13095W        W31949  16.101   6.234   3.076 -0.0601 -0.0269  0.1082
13096W        W31950  13.149   1.212  15.899  0.1083  0.1713 -0.3349
13097W        W31951   8.192   9.848  13.036  0.1136 -0.0057  0.1093
13098W        W31952   9.372  13.234   3.403 -0.1620  0.1860  0.1627
13099W        W31953   9.525   4.398   3.753  0.4194 -0.1385 -0.0605
13100W        W31954  10.146  16.976   5.006  0.2274  0.1556 -0.0452
13101W        W31955   1.894   5.053  17.370 -0.1012 -0.0401 -0.2736
13102W        W31956  10.667   8.976   4.325  0.2952 -0.0543 -0.0310
13103W        W31957  14.727   1.773   2.888  0.0091 -0.2431 -0.1447
13104W        W31958  13.284   7.230  12.698 -0.1464 -0.0314 -0.1043
13105W        W31959   2.292  14.365   3.631  0.0313 -0.1993 -0.1406
13106W        W31960  10.230   8.188   2.719 -0.0404  0.1394 -0.1926
13107W        W31961   6.566  13.408  15.270 -0.0630 -0.2904 -0.3262
13108W        W31962  15.295   7.476   1.381  0.3227  0.3292 -0.1178
13109W        W31963  14.127  12.927  15.604 -0.0038 -0.1089 -0.0693
13110W        W31964   6.322  15.780  17.153 -0.1832 -0.2006 -0.0407
13111W        W31965   4.065   8.281   0.016  0.0200  0.2261 -0.0545
13112W        W31966  13.697  17.278  13.096  0.0527  0.1114  0.0471
13113W        W31967   0.149   4.146   1.158 -0.0507  0.0983  0.0468
13114W        W31968  10.759  11.865   1.790  0.0700  0.0581  0.0686
13115W        W31969   3.642  12.868  12.904 -0.1770  0.2987 -0.1869
13116W        W31970  15.330  16.683   3.902  0.1060  0.2989 -0.0428
13117W        W31971   5.468   1.906  13.084  0.0524  0.0660 -0.3216
13118W        W31972   2.533  10.147   0.306  0.0411  0.1223 -0.0641
13119W        W31973  12.287  14.291   1.168 -0.0603  0.1448 -0.3458
13120W        W31974   0.820   6.714   3.843  0.0892  0.2825 -0.1405
13121W        W31975  12.351  12.173  14.357  0.0307  0.0102  0.0946
13122W        W31976   8.011  16.888   1.001 -0.2594 -0.1808  0.1052
13123W        W31977   0.360   2.516   2.005 -0.4032 -0.0037 -0.0963
13124W        W31978   0.166   3.441  15.407  0.0617 -0.0752 -0.3902
13125W        W31979  14.841   6.846   4.378 -0.2083 -0.1064 -0.1355
13126W        W31980   8.553   7.674  13.500  0.1449 -0.0512 -0.0187
13127W        W31981  10.079   0.656   5.352 -0.0671 -0.0975  0.1206
13128W        W31982  16.860  14.760  12.899  0.1247 -0.2330 -0.1443
13129W        W31983  13.536   2.501   3.315 -0.1100 -0.0734  0.0302
13130W        W31984   8.862  15.849   6.090  0.1876  0.0618  0.1651
13131W        W31985   0.783   0.652  14.969 -0.0222  0.0069  0.1321
13132W        W31986   2.722   8.563   1.836  0.1479  0.0009  0.2624
13133W        W31987  17.301   1.866   2.385 -0.2347 -0.0501 -0.3246
13134W        W31988  10.399  12.366   3.304  0.1687  0.1476  0.1613
13135W        W31989   8.887  16.909   3.960 -0.3357 -0.0595  0.0709
13136W        W31990   5.632  10.841  13.204  0.0405 -0.3626  0.3846
13137W        W31991  13.033  10.931  15.837  0.0310  0.2096  0.0921
13138W        W31992  12.316  15.224   4.866  0.0287 -0.1205  0.6283
13139W        W31993  16.856   9.554   4.964 -0.0795  0.0917 -0.1787
13140W        W31994   9.676   0.169   2.422 -0.0329  0.0884  0.3365
13141W        W31995   3.923   5.266   2.367  0.1213  0.1314  0.1947
13142W        W31996  16.671   5.800   2.001  0.1684 -0.1918  0.2223
13143W        W31997  12.953   3.643   3.645  0.2340  0.2853  0.0198
13144W        W31998   2.785   5.461  12.365  0.0665 -0.1318  0.0317
13145W        W31999  14.497  17.146   2.005  0.2384 -0.0050 -0.3505
13146W        W32000   4.308  13.189  13.501 -0.3392 -0.0264 -0.1166
13147W        W32001   0.062   2.663   3.437  0.3210  0.1800  0.0085
13148W        W32002  10.611  17.187   0.355 -0.0280 -0.1543  0.2332
13149W        W32003  10.059   9.884   5.006 -0.1647 -0.0206 -0.1464
13150W        W32004   8.615   7.013   0.308  0.0563  0.1355 -0.0958
13151W        W32005   6.377  13.123   5.158  0.1565  0.0220 -0.0959
13152W        W32006   2.894  13.849  13.957  0.1318  0.1756  0.0811
13153W        W32007   0.899   8.069   0.234 -0.0111 -0.2468 -0.1376
13154W        W32008  13.961   5.446   1.980 -0.2747  0.0931 -0.0364
13155W        W32009   0.532   4.389   1.494 -0.3430  0.3212  0.0470
13156W        W32010  12.360   4.168   3.029  0.1308  0.2441  0.1076
13157W        W32011  13.263   0.546   4.677 -0.0231 -0.1225  0.1006
13158W        W32012  11.964   0.854   2.228 -0.1358 -0.0440 -0.0244
13159W        W32013   4.915  14.264   2.451 -0.1877 -0.1585  0.2320
13160W        W32014   0.863   6.344  12.088 -0.2525  0.3125 -0.0642
13161W        W32015   5.622   9.543   1.066 -0.0934  0.0504  0.2345
13162W        W32016   6.001   0.455  14.070 -0.2839 -0.3500  0.1169
13163W        W32017   5.396   5.764  13.695 -0.0990 -0.0661  0.1821
13164W        W32018  16.643  16.639  13.102  0.0210 -0.2348  0.0054
13165W        W32019   9.632  15.749  15.437 -0.0202  0.1693 -0.2076
13166W        W32020   3.003   8.676   2.222  0.3092 -0.0310  0.0590
13167W        W32021   9.465   0.518   1.729 -0.0980 -0.0161 -0.0107
13168W        W32022  17.115   6.339  13.234  0.2681  0.2734 -0.0581
13169W        W32023  12.157  13.533   4.437 -0.0354 -0.0665  0.0925
13170W        W32024  10.633   7.702  14.062  0.1635  0.1037  0.0542
13171W        W32025   5.042   0.997  14.042 -0.0236  0.0334 -0.2474
13172W        W32026   8.357   1.374   4.432 -0.0316 -0.1445 -0.1414
13173W        W32027  13.415   7.631  16.007 -0.0652  0.5347  0.0322
13174W        W32028  11.715  10.533  14.256  0.1233 -0.2658 -0.2084
13175W        W32029  13.075   8.405  16.148  0.0986 -0.0547  0.1569
13176W        W32030   4.030  12.379  15.472  0.0336  0.1308 -0.0933
13177W        W32031   4.556  14.238  14.521 -0.0961  0.0572 -0.3785
13178W        W32032  10.132   0.023   5.293  0.1570  0.0338 -0.0918
13179W        W32033   5.434  10.575   2.332  0.0577 -0.1685 -0.0890
13180W        W32034  16.936   0.749   4.842 -0.1534  0.2167  0.1233
13181W        W32035   5.525   3.917  14.338 -0.3533  0.2506 -0.0186
13182W        W32036  14.572   4.703   1.910  0.0558  0.1372  0.1571
13183W        W32037  11.433   9.690   2.566  0.2208 -0.1577 -0.0436
13184W        W32038  14.575   4.266  14.162 -0.1537 -0.0009  0.0531
13185W        W32039   7.515   2.870   1.071 -0.1238 -0.2551 -0.0781
13186W        W32040   5.895   2.318   3.673 -0.1577  0.1551  0.3068
13187W        W32041   0.911   1.629  15.710 -0.2079 -0.0818 -0.1162
13188W        W32042  10.005   0.465  14.056  0.0940  0.5255  0.0788
13189W        W32043  14.860  15.039  13.427  0.0218  0.1126 -0.0312
13190W        W32044   3.179   4.657  12.632  0.0815 -0.0249  0.0665
13191W        W32045  15.973  16.590  13.862  0.1181  0.0592  0.4775
13192W        W32046   2.680   2.677   0.787 -0.0402  0.0649  0.0714
13193W        W32047  15.439   4.961   1.462  0.0590 -0.1393  0.0183
13194W        W32048   3.311  17.262  15.253  0.0130  0.1489 -0.4541
13195W        W32049  13.243   0.593   2.646  0.2617  0.2375  0.2428
13196W        W32050  14.083   1.836   2.396 -0.2111  0.0827  0.2127
13197W        W32051  15.556  13.558   0.544  0.3257  0.2220 -0.3582
13198W        W32052   1.355   8.568  12.460 -0.0059  0.3962  0.2316
13199W        W32053  11.906   9.743   0.960 -0.0612 -0.0102  0.3540
13200W        W32054  13.424   7.298   4.005  0.0385 -0.2237  0.0475
13201W        W32055  14.535  15.808  14.131  0.0973 -0.1668 -0.0427
13202W        W32056  14.438  15.333   3.679 -0.0326 -0.1884 -0.1469
13203W        W32057   1.850   5.073  12.904 -0.2286  0.0593  0.1910
13204W        W32058   2.597  11.016  13.007 -0.1619 -0.0507  0.1716
13205W        W32059   3.928   9.080  13.356  0.3378 -0.0216  0.1070
13206W        W32060  14.733  15.730  14.628 -0.3874  0.0185 -0.0374
13207W        W32061   3.881  13.349   0.920 -0.0293  0.0970 -0.0828
13208W        W32062   4.769  16.938   3.259  0.1736  0.1347 -0.0332
13209W        W32063  14.365  16.617   3.630  0.2342 -0.1519 -0.1597
13210W        W32064   9.569   9.739  12.176 -0.0714  0.0186 -0.0175
13211W        W32065  13.360   5.897   1.883  0.1612  0.2086  0.0817
13212W        W32066   1.107  14.778  12.602 -0.0436  0.1833  0.0062
13213W        W32067   1.860   5.933  13.788  0.0417  0.0868  0.2896
13214W        W32068   0.395  17.090   1.522  0.1949 -0.0688  0.0859
13215W        W32069  15.256  15.300  13.586  0.1186 -0.0163  0.1239
13216W        W32070   6.721  11.491   0.182  0.0484  0.0840 -0.1817
13217W        W32071   8.263  11.725   3.257 -0.2430  0.0877 -0.2319
13218W        W32072   8.028  14.399   3.351 -0.0744  0.0613  0.2353
13219W        W32073   5.978  13.024  13.433  0.1244 -0.1377  0.1456
13220W        W32074   1.587  12.716  15.460 -0.1228 -0.2166 -0.2195
13221W        W32075   7.408   5.490   3.630  0.3555  0.0116 -0.3149
13222W        W32076  16.719  15.127  15.264  0.0035  0.3189 -0.3206
13223W        W32077  15.083   0.326   3.923 -0.0099 -0.1293  0.1990
13224W        W32078  11.833   7.979   3.905  0.0151 -0.0618  0.0344
13225W        W32079  14.890   0.123   0.627 -0.1731  0.1147  0.0811
13226W        W32080   6.152  16.062  12.618  0.1179 -0.1911 -0.0528
13227W        W32081   9.290   8.817   1.355 -0.0295  0.3010 -0.0912
13228W        W32082  10.846   4.062  16.121  0.0330  0.0806  0.0536
13229W        W32083  14.090   6.624   0.155 -0.1101 -0.1446  0.2012
13230W        W32084  10.937   2.537   2.121  0.1312 -0.0037  0.3003
13231W        W32085  14.054  11.519   2.476 -0.5497  0.2652  0.0473
13232W        W32086   9.345  13.110   1.738  0.0109  0.2305 -0.2686
13233W        W32087   0.583   8.432  14.857 -0.1665 -0.0368 -0.4389
13234W        W32088   2.584   8.808  13.683  0.0322 -0.0297 -0.1780
13235W        W32089   6.848   1.095   1.165 -0.2100 -0.0669 -0.2282
13236W        W32090   4.857  14.154  12.438 -0.1545  0.0912 -0.2147
13237W        W32091   3.685  15.854   0.915  0.1923  0.0373  0.0179
13238W        W32092   2.218  14.943  14.373  0.0596  0.0975 -0.3129
13239W        W32093  13.782  10.149  15.848  0.4720  0.0279  0.0021
13240W        W32094   1.645  10.374   0.620  0.1350  0.0994 -0.4017
13241W        W32095  10.736  14.793  15.614 -0.0497 -0.2613  0.0639
13242W        W32096  14.639  15.843   3.754  0.0333  0.0893  0.2376
13243W        W32097  16.793  12.324  14.108  0.1091  0.0690 -0.0009
13244W        W32098  17.119  14.709   1.964  0.2385 -0.2855 -0.2007
13245W        W32099  13.469  14.538   2.459 -0.3708 -0.0265 -0.1275
13246W        W32100   2.324  13.244  16.108 -0.0776 -0.2463 -0.1426
13247W        W32101   4.393   7.504   4.820 -0.1585  0.1915  0.0716
13248W        W32102   4.566  11.745   3.642  0.3255 -0.2305 -0.2130
13249W        W32103   7.672   4.509  11.535 -0.0813  0.1718  0.1719
13250W        W32104   7.946   4.113  14.088  0.0228  0.0942 -0.2328
13251W        W32105  16.388   9.168   4.312  0.1527  0.2262  0.0468
13252W        W32106   9.690   3.117  13.743 -0.0581  0.2722 -0.1640
13253W        W32107  12.265   1.175  13.414  0.1706 -0.0036  0.3575
13254W        W32108   2.473  16.872   3.782  0.0142 -0.1772 -0.2157
13255W        W32109  10.514   1.920  16.765  0.0157  0.1511 -0.1373
13256W        W32110   1.739  13.000   2.414  0.0373  0.1336 -0.0233
13257W        W32111   1.506   3.883   3.127  0.2561 -0.0800  0.1363
13258W        W32112   0.615  12.447   2.634 -0.0211  0.0239 -0.1176
13259W        W32113  15.216   2.397  16.667 -0.0894  0.1907  0.4410
13260W        W32114   0.447   4.752  14.117  0.1852  0.1495  0.2333
13261W        W32115   8.484   6.522   0.475  0.1888 -0.1091  0.1114
13262W        W32116   7.020  15.407   3.273 -0.1345  0.2965  0.0895
13263W        W32117   4.115  11.311  16.910 -0.1643  0.1913  0.3907
13264W        W32118  11.085  10.903  17.080  0.2232  0.0625  0.1617
13265W        W32119  11.643  15.307  17.336  0.0134  0.2409 -0.0566
13266W        W32120  16.903  11.693  17.051  0.0217  0.1054  0.0290
13267W        W32121   3.467  13.651  13.844 -0.1028  0.0004  0.0885
13268W        W32122  12.325   2.773   0.276  0.1467  0.1098  0.0507
13269W        W32123   6.933   0.060  14.302 -0.1003 -0.0752  0.3565
13270W        W32124   6.179   9.334  16.148 -0.1364  0.2324  0.4626
13271W        W32125  13.026   6.095   5.438 -0.2615 -0.0793  0.0466
13272W        W32126   6.843  15.802   5.335 -0.0553  0.1752 -0.2065
13273W        W32127   3.100  11.724  13.388 -0.4146  0.0302 -0.0389
13274W        W32128  14.673   0.675   4.238 -0.1482  0.1198  0.1237
13275W        W32129   6.398  14.451   0.174  0.1222 -0.1293  0.2359
13276W        W32130  16.548   9.605   2.932  0.0572  0.0803 -0.0780
13277W        W32131   9.386  14.473   1.113  0.2025 -0.2746  0.1047
13278W        W32132   8.553   0.983   0.754 -0.2364 -0.0026  0.3727
13279W        W32133   6.710  12.285   2.033 -0.0741 -0.2606 -0.1060
13280W        W32134   9.534  10.577   2.047 -0.2612  0.0591  0.4545
13281W        W32135   4.748   2.163  12.510  0.2057 -0.0410 -0.2867
13282W        W32136  14.893   6.274   0.597  0.0680  0.0934  0.1761
13283W        W32137   0.270  15.533   2.851 -0.0514  0.1896  0.0217
13284W        W32138   7.936   9.340   2.424  0.2210  0.1903  0.1612
13285W        W32139   3.177  14.014  13.417  0.1300  0.0483  0.1047
13286W        W32140   0.101  10.680   3.686  0.1672  0.0936  0.0613
13287W        W32141   1.668   0.631   4.890 -0.0676  0.0036  0.0167
13288W        W32142  11.241   3.546  16.038  0.0607 -0.1229 -0.3924
13289W        W32143   6.049  16.338   1.403 -0.0372 -0.1310 -0.1951
13290W        W32144  10.134  15.322  16.527 -0.0422  0.0448 -0.0132
13291W        W32145   2.402  12.312  14.403 -0.1754 -0.0225 -0.1128
13292W        W32146  13.185   1.983  15.979 -0.2238 -0.1800  0.0706
13293W        W32147   5.962   7.168  17.460 -0.3302 -0.1040  0.0101
13294W        W32148  16.116  15.702  13.406 -0.1162  0.2506 -0.1027
13295W        W32149  14.162   9.074  16.424  0.0674  0.4526 -0.0652
13296W        W32150   5.559   3.395   5.694  0.2245 -0.3219 -0.1804
13297W        W32151   1.273   0.256  13.707 -0.0899 -0.0023 -0.1086
13298W        W32152   1.367  14.348   1.384  0.0516 -0.3087  0.1290
13299W        W32153  11.966  12.312  15.445  0.2491  0.0725  0.1609
13300W        W32154  15.613  16.014   0.985  0.0852 -0.0246 -0.0904
13301W        W32155  16.855  11.671   2.168  0.2677 -0.0238 -0.5500
13302W        W32156  13.664   2.462  13.866  0.1646 -0.0972  0.1173
13303W        W32157   9.065   2.583  13.071 -0.1644 -0.1128  0.1597
13304W        W32158   9.266  14.534  11.609  0.0769  0.0745  0.1377
13305W        W32159   7.890   9.714  14.241 -0.1014  0.1091  0.2044
13306W        W32160  14.958   7.546  13.529  0.1722  0.1065  0.1434
13307W        W32161   2.474   0.110  16.524 -0.0976  0.1352  0.1386
13308W        W32162   7.862  12.151  13.598 -0.1293  0.0907 -0.2397
13309W        W32163   5.820   8.378  12.948  0.1600  0.0013 -0.2822
13310W        W32164  11.459  15.808   4.704 -0.1291  0.1579 -0.1825
13311W        W32165  12.545   1.074   0.660 -0.0622 -0.0153 -0.0356
13312W        W32166   9.810   8.331   0.996 -0.4445  0.0854 -0.1421
13313W        W32167  13.709   7.564   2.069 -0.3422  0.0267 -0.1529
13314W        W32168   4.668  15.130   4.102 -0.2025 -0.2560  0.2222
13315W        W32169   3.912   4.773   3.751  0.1107  0.1384 -0.1693
13316W        W32170   2.494   0.324   2.463 -0.2306  0.3473  0.0382
13317W        W32171   2.739  10.694  13.385 -0.0207  0.0317  0.0021
13318W        W32172  16.276  10.828   6.211 -0.1066 -0.1542  0.1684
13319W        W32173   6.491   6.770  16.842  0.5812 -0.1816 -0.0154
13320W        W32174   8.781   7.204   2.562 -0.0609 -0.0313  0.2662
13321W        W32175   4.187   4.527   4.729  0.0893 -0.0900 -0.2679
13322W        W32176  13.806   8.887  16.180 -0.2527 -0.0774  0.2268
13323W        W32177  14.869  10.811   2.470  0.2863  0.0342 -0.1092
13324W        W32178  12.431   1.847  16.435  0.1568  0.3465  0.1778
13325W        W32179  12.603  14.376  13.038  0.0986 -0.0765  0.0126
13326W        W32180   8.949  14.160  13.977  0.2202 -0.2830 -0.0232
13327W        W32181   7.236  16.659  15.484  0.1585 -0.1575 -0.2365
13328W        W32182   7.242   1.306   0.848  0.0486 -0.0395  0.0103
13329W        W32183  14.835   7.944  17.096  0.4216  0.2060  0.1511
13330W        W32184  16.315   4.808   1.239 -0.3546 -0.3122 -0.1469
13331W        W32185   0.048  16.341   0.432 -0.2150 -0.0349 -0.0060
13332W        W32186   4.312  12.803  15.640  0.0974  0.0541  0.3084
13333W        W32187  16.255  11.492  14.524  0.0819  0.2368  0.0512
13334W        W32188   8.463   0.779  14.022 -0.4336  0.1230 -0.0288
13335W        W32189   2.483  14.349  12.522 -0.1151  0.0666 -0.1738
13336W        W32190   0.143  16.030   0.075 -0.1109 -0.1427 -0.1481
13337W        W32191  13.942   4.328  16.198  0.0842 -0.2877 -0.0241
13338W        W32192  13.586   3.252   3.929  0.0976 -0.0044 -0.1920
13339W        W32193   5.981  10.209  17.297  0.0373 -0.0450  0.2459
13340W        W32194   1.932  15.563  16.907 -0.0900 -0.0831  0.0701
13341W        W32195  13.205  11.174   2.293 -0.2624 -0.1457  0.0881
13342W        W32196   4.603  16.463  17.457 -0.1960 -0.0241  0.1290
13343W        W32197  12.326   4.697  14.819  0.0839 -0.0138  0.2773
13344W        W32198   5.646  14.138  15.955 -0.0600 -0.5585 -0.2191
13345W        W32199  13.180  12.391   2.351 -0.0734  0.3016 -0.0928
13346W        W32200   9.183   4.206  15.976  0.1172 -0.0469  0.1895
13347W        W32201  16.939   5.656  14.854  0.2185 -0.1489  0.0140
13348W        W32202  16.379   3.799  17.397  0.1159 -0.2630  0.0932
13349W        W32203   4.738  16.710   1.914 -0.1307  0.0980  0.0583
13350W        W32204   3.982  13.871  13.090  0.2539 -0.0412  0.1825
13351W        W32205   4.754  12.974   2.841 -0.2691  0.2170 -0.1568
13352W        W32206   7.240  13.664   0.530 -0.0740  0.1199 -0.0333
13353W        W32207   9.521   0.115   0.551  0.0890 -0.0105 -0.0344
13354W        W32208  16.313  13.852   2.222 -0.0554  0.4125  0.1876
13355W        W32209  14.432   6.197   3.963  0.0981 -0.0060  0.0078
13356W        W32210  13.822   8.572  14.233 -0.2603  0.1159 -0.3671
13357W        W32211  11.860   5.936  13.806  0.2982 -0.1661 -0.2361
13358W        W32212   9.161  15.665  15.651 -0.4024  0.1125  0.1563
13359W        W32213   1.285   2.710   0.984 -0.1470 -0.3996 -0.0822
13360W        W32214  14.577  16.912  14.052 -0.0198 -0.1512 -0.0316
13361W        W32215   7.952   5.436   1.953  0.2912 -0.2177 -0.2710
13362W        W32216   0.366   5.306   0.461  0.1714 -0.1711  0.0131
13363W        W32217   8.392  13.575   4.351  0.1189  0.0452 -0.1666
13364W        W32218   7.482   6.055   2.655  0.0332 -0.2113  0.3140
13365W        W32219  13.248   5.112   5.509 -0.1498 -0.2207  0.0093
13366W        W32220   0.269   8.963  17.042 -0.1195  0.3132 -0.2970
13367W        W32221   1.194  16.773  17.303 -0.2326 -0.0912 -0.2820
13368W        W32222  10.193   3.778  16.851 -0.0491 -0.1211  0.0073
13369W        W32223  12.982  10.134   2.825 -0.0831  0.0185  0.0788
13370W        W32224  16.811   5.351   4.051 -0.0881  0.0315 -0.3040
13371W        W32225   3.613   1.153   1.398  0.0710  0.0805  0.0661
13372W        W32226   0.654   3.077  17.119 -0.3195 -0.0797 -0.0936
13373W        W32227   2.515  14.864  14.747  0.1471 -0.1984  0.4419
13374W        W32228  12.923   2.162  14.164 -0.1049 -0.0578 -0.0827
13375W        W32229   0.320  13.007   2.050  0.0121  0.0030  0.1694
13376W        W32230   8.777  10.409   2.286  0.2645  0.1685 -0.1622
13377W        W32231  13.653   3.532  12.270 -0.0477 -0.2069  0.0093
13378W        W32232   7.899   1.718  16.611 -0.4088 -0.0309 -0.4809
13379W        W32233  13.904   0.052   1.390 -0.1298  0.2518 -0.0534
13380W        W32234  11.104  13.399   4.261  0.2200 -0.2066 -0.2202
13381W        W32235  16.350   5.566   1.008  0.2070  0.2625  0.0445
13382W        W32236   2.991   2.016  16.271  0.2490 -0.3477  0.1788
13383W        W32237  15.805  15.487   4.423 -0.4757  0.1700  0.2330
13384W        W32238  16.692  10.432  15.114 -0.0541 -0.0520  0.1330
13385W        W32239   4.669   6.481  13.031 -0.1171  0.1975  0.0742
13386W        W32240   4.858   0.443  17.012  0.3265 -0.1472  0.1023
13387W        W32241  15.069   6.255  16.349  0.0548 -0.1306  0.0140
13388W        W32242  13.993  14.431  15.137 -0.0684  0.2323 -0.0319
13389W        W32243  11.173   9.680  17.398 -0.3266  0.0408  0.0600
13390W        W32244   8.190  15.990   1.142 -0.0317 -0.0489  0.0006
13391W        W32245   8.060  15.573   0.166  0.0320 -0.0814 -0.0366
13392W        W32246  14.715   6.629  16.519 -0.3842 -0.2409 -0.1258
13393W        W32247   4.029  13.011   1.711  0.0636  0.0173 -0.2917
13394W        W32248   4.390   6.398  16.884  0.3593 -0.3186  0.2579
13395W        W32249   7.448  11.182   4.812  0.3491  0.2813  0.1642
13396W        W32250  16.437   1.084   0.378  0.0402  0.0111 -0.4608
13397W        W32251  14.996   7.725   1.695 -0.1232 -0.2270 -0.0507
13398W        W32252  15.394  10.543   5.275 -0.1428 -0.0183  0.2208
13399W        W32253  12.691  12.552  17.412  0.3715 -0.1373 -0.0986
13400W        W32254  14.232  13.649   2.258 -0.1206 -0.1839 -0.0595
13401W        W32255   7.182   4.134  13.060 -0.3965  0.0530  0.1402
13402W        W32256   2.662   6.825  16.444  0.0408 -0.2420 -0.2924
13403W        W32257  12.510  14.825  12.937 -0.0178 -0.1246  0.1446
13404W        W32258  14.006   1.553   0.775  0.0706  0.0012  0.0020
13405W        W32259  10.919  13.458   2.616 -0.1955 -0.2004 -0.0847
13406W        W32260   7.408   6.858   0.432  0.2833  0.0287 -0.3811
13407W        W32261  15.161   9.174   1.838 -0.2748 -0.2059 -0.1218
13408W        W32262  14.376  13.291  16.047 -0.2238  0.1068 -0.0627
13409W        W32263   6.625   2.455  12.542  0.0912 -0.0436  0.0608
13410W        W32264   6.609   0.021  15.517 -0.2319  0.1036  0.2689
13411W        W32265   2.208  10.026   2.398 -0.1167  0.0217  0.0425
13412W        W32266   6.256   7.495  13.556  0.0473 -0.0077 -0.0708
13413W        W32267   1.178   8.134   0.703  0.2078 -0.0654 -0.0563
13414W        W32268  12.621   5.459   4.801  0.0137 -0.1574  0.0216
13415W        W32269   4.602   4.698   4.953 -0.0065 -0.1797 -0.2472
13416W        W32270   0.054   3.977  16.954  0.3462 -0.1878 -0.1436
13417W        W32271   9.283  14.945   2.475 -0.0840  0.1879  0.0924
13418W        W32272   4.330  15.068  12.714 -0.1353 -0.0879 -0.0753
13419W        W32273   2.640  14.055  13.425 -0.3789 -0.0068  0.2045
13420W        W32274  15.404   4.324   2.346 -0.0942 -0.0897 -0.1591
13421W        W32275  10.238  10.961   1.809  0.2825 -0.2195 -0.1983
13422W        W32276   5.243   9.529  12.350 -0.0228  0.1047  0.0815
13423W        W32277   8.060  15.253  15.769  0.0271  0.3442  0.0588
13424W        W32278  14.353  15.730  16.118  0.2742  0.0490  0.0859
13425W        W32279  16.112  16.951   0.930  0.2872 -0.2091  0.1819
13426W        W32280  13.594   6.063   3.812  0.3415  0.2406 -0.1363
13427W        W32281   8.734   9.245  14.577  0.0470  0.2369  0.0056
13428W        W32282   0.166   4.441  14.391  0.0870 -0.1595  0.1220
13429W        W32283   7.197  15.280  16.210 -0.0043  0.3243  0.2488
13430W        W32284  11.378   4.222   4.186 -0.2413  0.2708  0.0493
13431W        W32285   0.438  13.945   2.096 -0.1610 -0.0405 -0.1846
13432W        W32286  10.709   3.567   3.584  0.0174  0.3135 -0.1383
13433W        W32287   4.053   8.187   4.277 -0.0087 -0.0154  0.0539
13434W        W32288   4.609   8.605   3.654  0.4359  0.2639  0.1481
13435W        W32289  16.958  11.252  13.331  0.0532  0.2091  0.1853
13436W        W32290   6.020   4.315  15.880  0.0560 -0.2303 -0.1529
13437W        W32291   5.194  14.250  16.280 -0.1226  0.2074  0.0239
13438W        W32292   3.794  16.925  13.433  0.1359 -0.0187  0.0134
13439W        W32293   2.964   7.479  11.545 -0.2914 -0.0522  0.3148
13440W        W32294   1.805   8.408  13.198 -0.0212 -0.0615 -0.0059
13441W        W32295  14.912  13.053   0.353 -0.1462 -0.0289  0.2866
13442W        W32296  14.468   8.165   0.986 -0.1889 -0.1932 -0.2783
13443W        W32297   0.434  13.043  15.075  0.1428  0.0217 -0.1526
13444W        W32298  15.554  14.301  12.119 -0.1098  0.3535  0.3823
13445W        W32299  12.837  11.441  14.477  0.1017  0.1412 -0.1821
13446W        W32300   5.861   5.724   2.506  0.0286  0.2457 -0.1042
13447W        W32301   0.329  11.537   1.123  0.0893 -0.1399 -0.2916
13448W        W32302   5.008   2.380   2.025  0.1168  0.0466 -0.0041
13449W        W32303  14.537   8.568  13.662 -0.3626 -0.1107 -0.0230
13450W        W32304   8.632   6.819   5.496  0.0198 -0.3642 -0.0402
13451W        W32305   6.080   2.625  15.200  0.3520 -0.1237  0.0227
13452W        W32306   8.371  12.206   3.678  0.0631  0.1820 -0.3029
13453W        W32307   3.545  12.908   5.067  0.0708 -0.0494  0.2644
13454W        W32308   3.352  15.330   4.126  0.0241 -0.0726  0.2495
13455W        W32309  15.782  10.415   4.455 -0.0837  0.2399 -0.0724
13456W        W32310   9.448   9.701  16.793 -0.1163  0.1460 -0.2074
13457W        W32311   3.027   9.528  16.791 -0.0284 -0.0810  0.0539
13458W        W32312  17.191  16.000   2.497  0.0787 -0.1721 -0.3229
13459W        W32313   2.215  11.484  16.053 -0.1732 -0.1473  0.1762
13460W        W32314   3.417  14.675  15.848  0.0134 -0.2719  0.0449
13461W        W32315   4.362   6.034  12.990  0.1593  0.0877 -0.0002
13462W        W32316   6.662   7.909   2.191  0.3195 -0.1746 -0.0670
13463W        W32317   1.953  14.176   2.657 -0.0517 -0.0783 -0.3324
13464W        W32318  17.173   5.872   2.089  0.0572  0.0576  0.0957
13465W        W32319  14.874   3.012   5.321  0.0892 -0.1926  0.1771
13466W        W32320   4.485   8.318   0.316  0.2258 -0.1024  0.0453
13467W        W32321   5.289   3.126   0.724 -0.2395 -0.0839  0.0039
13468W        W32322   6.654  12.411   1.185 -0.1661  0.2020  0.0704
13469W        W32323   2.313  11.383  12.896 -0.0021  0.3489  0.1645
13470W        W32324   1.817  15.538  14.527  0.2767  0.1540  0.0025
13471W        W32325  13.617   3.371  13.412  0.0632 -0.1372 -0.2175
13472W        W32326  10.727   0.661  16.974 -0.0862 -0.1598  0.0325
13473W        W32327  16.577  11.828  13.749  0.0573 -0.1306  0.1111
13474W        W32328  14.702  10.172  15.722 -0.1824 -0.4665  0.0259
13475W        W32329   4.552  14.555   5.482  0.0742  0.1112  0.1331
13476W        W32330  14.102   6.094   0.255  0.1419 -0.1351 -0.3329
13477W        W32331   2.652  14.685  14.204 -0.0258  0.3177  0.0667
13478W        W32332  16.581   2.091  15.413 -0.0679 -0.0451 -0.1718
13479W        W32333   4.058   8.206   2.748  0.0829 -0.0492 -0.0690
13480W        W32334  11.106  16.056  17.330 -0.2408 -0.2327  0.0622
13481W        W32335   5.496  16.492   2.299 -0.2050 -0.4787 -0.1571
13482W        W32336  16.433  14.441  15.757  0.2540 -0.2444 -0.1078
13483W        W32337   6.705  14.907   4.746  0.2512 -0.0217 -0.2279
13484W        W32338   2.645  11.017   3.027  0.1399 -0.1346  0.1205
13485W        W32339  11.277  14.361  15.599  0.2238  0.1405  0.2596
13486W        W32340  15.235   0.014  13.641 -0.2457  0.1289 -0.0071
13487W        W32341   7.924  11.495   1.200  0.0787 -0.0652 -0.3424
13488W        W32342   0.452  10.467   2.930  0.0495 -0.1577 -0.3691
13489W        W32343  14.422   9.889   0.961  0.3078  0.4449  0.2999
13490W        W32344   8.405   9.827   1.149  0.0599 -0.0436  0.0346
13491W        W32345   1.854  11.028  12.870  0.1397  0.0068 -0.3385
13492W        W32346   3.327   1.716  14.092  0.2407  0.0952  0.2713
13493W        W32347   7.815  11.882   0.011 -0.3309  0.1534 -0.1892
13494W        W32348   6.828   0.215   3.065 -0.3213  0.1026  0.1194
13495W        W32349   1.919  12.084   1.018 -0.0686  0.1265  0.0866
13496W        W32350   1.983   9.136  15.971 -0.4003  0.0691  0.2219
13497W        W32351   6.584  13.822  15.616  0.1362  0.3074 -0.1350
13498W        W32352   9.353  10.025  13.705 -0.0992 -0.0506 -0.0658
13499W        W32353   6.886   5.355  13.314  0.0021 -0.1188 -0.1103
13500W        W32354   4.508   0.026   1.117 -0.1725  0.4775 -0.1251
13501W        W32355   5.087   0.436   5.085  0.2568  0.1982 -0.0414
13502W        W32356  16.947  14.201  17.248 -0.0047  0.1718  0.0443
13503W        W32357  10.862   2.361  14.925  0.3180  0.0479  0.0085
13504W        W32358   3.108   2.860   3.004  0.0578 -0.1722  0.0540
13505W        W32359  13.533   3.969   1.038 -0.3368 -0.1986 -0.1358
13506W        W32360  16.889  13.103  12.520 -0.0682 -0.1088  0.1626
13507W        W32361   1.623  15.164  14.006 -0.0789  0.2260 -0.0705
13508W        W32362   3.158  13.254   5.129  0.0805 -0.0125 -0.3292
13509W        W32363  12.730  17.159   0.605 -0.3486  0.0837  0.0190
13510W        W32364  13.469   6.915  14.273 -0.1077 -0.2423  0.0548
13511W        W32365  13.335  10.226  12.473  0.1182  0.0757  0.2016
13512W        W32366  13.897   3.242  16.373 -0.0972  0.2050  0.0324
13513W        W32367   1.217   3.985   1.930  0.0619  0.0411  0.0110
13514W        W32368   8.014   8.208   0.761  0.0552  0.1245 -0.2059
13515W        W32369  16.586   5.822   0.575  0.1474 -0.0377 -0.0895
13516W        W32370  12.186   3.101  14.737 -0.1101 -0.3401  0.2093
13517W        W32371   0.552   7.451  15.461  0.0823 -0.1546  0.0434
13518W        W32372   1.196  14.046   0.786 -0.1547  0.1455  0.0940
13519W        W32373   9.852  16.531   1.007 -0.1762 -0.1872  0.0996
13520W        W32374   5.673   7.092   5.358  0.1022  0.0941  0.1965
13521W        W32375   3.888   5.744   3.597  0.3569  0.0677 -0.1287
13522W        W32376   3.604   7.708  12.880  0.1700  0.0063  0.1014
13523W        W32377   4.910   0.057   0.349 -0.0314  0.0268 -0.2045
13524W        W32378   9.449   3.160   1.219  0.2114 -0.1233  0.3357
13525W        W32379  10.744  13.682  13.163  0.0448 -0.2030  0.0003
13526W        W32380  14.679  10.969   4.733  0.0163  0.0975  0.2432
13527W        W32381  12.040  11.874  15.175  0.1297  0.1002  0.0487
13528W        W32382   2.941   4.309   5.084 -0.2773  0.1401  0.1145
13529W        W32383  10.018   0.059  16.665  0.0366 -0.2044 -0.0098
13530W        W32384   1.538   7.259   2.019 -0.1433  0.0200  0.1928
13531W        W32385  15.107   5.277   0.514  0.1012  0.0656 -0.1183
13532W        W32386  13.905  12.361  13.272 -0.0466 -0.0620  0.1996
13533W        W32387  13.864   0.681   0.704  0.0503  0.0772  0.0003
13534W        W32388   1.175   2.523  13.594  0.0969 -0.1682 -0.1900
13535W        W32389  10.673   7.319  14.939 -0.0050  0.0291 -0.1069
13536W        W32390  10.216  16.585   0.634 -0.5283 -0.5194 -0.0764
13537W        W32391  14.127  15.455  14.334 -0.2280 -0.1439  0.3804
13538W        W32392  16.593   7.400  12.394  0.3218  0.0136  0.0669
13539W        W32393   3.053   9.521   4.127  0.1056 -0.1359  0.1939
13540W        W32394  16.121  17.312   3.258  0.0729  0.1405 -0.1179
13541W        W32395   4.527   8.788  12.639 -0.1942  0.0428 -0.1092
13542W        W32396  16.641  15.639  13.349  0.3228  0.0399  0.0338
13543W        W32397   1.459  10.922  17.097  0.0133 -0.3219 -0.2891
13544W        W32398   6.993   4.324   1.896 -0.0885  0.2089  0.1390
13545W        W32399  14.685  13.089   1.768 -0.0694  0.2349  0.1064
13546W        W32400  15.264   4.233  16.922 -0.1036 -0.1209 -0.1446
13547W        W32401   1.383   4.321   3.960  0.1367 -0.1182  0.1410
13548W        W32402  13.893  16.046  17.439  0.3115  0.0347  0.2326
13549W        W32403  11.893  11.341   2.024 -0.0164 -0.2190 -0.3061
13550W        W32404   8.031  16.329   3.888  0.0688  0.0707 -0.3049
13551W        W32405  15.640  11.475  17.425  0.2515 -0.0312  0.1203
13552W        W32406  14.163   5.426  16.254 -0.3594 -0.2010 -0.0958
13553W        W32407   8.984  11.345   2.729 -0.1838  0.1540  0.0997
13554W        W32408   4.466  14.795   1.997  0.1828  0.1690  0.0461
13555W        W32409  17.072   9.838   5.322  0.1043  0.1791  0.1082
13556W        W32410   4.892   0.694  12.786  0.0296 -0.3137  0.0748
13557W        W32411  11.467   0.217  14.511 -0.0824  0.1252 -0.0353
13558W        W32412   4.602  14.826  15.570 -0.1735  0.0187  0.1580
13559W        W32413  16.038  11.199   3.501  0.2686  0.2238 -0.2359
13560W        W32414  13.831   6.377  13.151 -0.1519  0.2274 -0.1530
13561W        W32415  16.344   9.003   4.751  0.0509 -0.1997  0.2577
13562W        W32416   1.591   3.425  13.901 -0.2963 -0.3981 -0.1518
13563W        W32417   4.854   8.091   2.086 -0.0137 -0.0985 -0.4395
13564W        W32418   0.551   1.890   0.416 -0.0203 -0.1493  0.1908
13565W        W32419  12.319  17.255  15.127  0.2193 -0.1788 -0.1989
13566W        W32420  16.322  15.094   4.915 -0.0525  0.1645 -0.1026
13567W        W32421   1.454  10.088  12.977  0.2065 -0.1219  0.0800
13568W        W32422  10.975  11.690  12.195 -0.0687 -0.2379 -0.2032
13569W        W32423  14.898   8.591  17.245 -0.0072  0.0244  0.2641
13570W        W32424   9.535   5.144  14.738  0.2111 -0.0984 -0.1798
13571W        W32425   6.817   4.501   5.266  0.0102  0.0259  0.1914
13572W        W32426   0.652  15.928  12.407 -0.0029  0.1185  0.2421
13573W        W32427   5.812   3.271  16.871 -0.3255 -0.2078  0.1582
13574W        W32428  12.918  16.937  15.979 -0.1079 -0.1023  0.1729
13575W        W32429   5.090   4.184  16.850  0.0031 -0.1762  0.0049
13576W        W32430   6.141  17.096  17.386 -0.0890 -0.2716  0.2667
13577W        W32431   0.020  14.000   3.359 -0.0817  0.0815 -0.1094
13578W        W32432   1.152  13.027  13.095  0.0564 -0.0184  0.1844
13579W        W32433   9.430   9.108  14.207  0.3789  0.0963  0.2764
13580W        W32434  13.295  17.275   0.539  0.0584  0.2463 -0.2003
13581W        W32435   0.497  13.860  17.049  0.2019 -0.0313 -0.1211
13582W        W32436  10.360   4.811   0.320 -0.1102  0.0924  0.3440
13583W        W32437   5.665  14.218  13.792 -0.1950  0.0967 -0.2139
13584W        W32438  13.151  16.525  16.326  0.2953 -0.0341  0.1798
13585W        W32439   5.031   1.917  13.781 -0.0460  0.2674 -0.1573
13586W        W32440   2.184   6.399  13.142 -0.0761 -0.3625 -0.2290
13587W        W32441  12.653  12.626  15.001  0.0371  0.0667  0.1306
13588W        W32442   1.768  15.461  15.791  0.3996  0.0924 -0.0684
13589W        W32443  14.736   9.952  13.526  0.0300  0.0865 -0.0273
13590W        W32444  16.826   6.918  15.519  0.2344  0.0116 -0.0364
13591W        W32445   7.772   4.276  13.005  0.4341  0.0006 -0.1785
13592W        W32446   2.443  10.398   1.866 -0.1822  0.1110 -0.1587
13593W        W32447   4.496  10.766  17.251 -0.0589 -0.1525 -0.2119
13594W        W32448   9.428   0.666   2.287  0.1292  0.1357 -0.2121
13595W        W32449  15.287   9.492  16.985  0.0575 -0.2282 -0.2391
13596W        W32450   6.625   1.649   2.220 -0.1084 -0.1457  0.0875
13597W        W32451   5.528  13.937   3.115 -0.0071  0.0870  0.0502
13598W        W32452  10.996  17.033   2.154  0.1338  0.2155  0.3109
13599W        W32453  14.266   3.388  16.070  0.2663  0.1694  0.0625
13600W        W32454   4.833  14.332  16.721 -0.1337  0.0070  0.1100
13601W        W32455  11.591   8.717  13.828 -0.0116 -0.1956  0.3944
13602W        W32456  13.389   6.907  12.336 -0.0845 -0.1659  0.2027
13603W        W32457  13.368   4.541   1.354 -0.1704  0.0465  0.1519
13604W        W32458  13.296   3.788  17.448  0.1129  0.2072 -0.0592
13605W        W32459   6.247   4.901   2.414 -0.0914  0.0132 -0.1334
13606W        W32460   9.886  13.892   3.307 -0.2669  0.2650 -0.0184
13607W        W32461   8.836   9.586   1.126  0.0688  0.1431 -0.0324
13608W        W32462   1.216   9.618  14.424  0.3286  0.1494  0.3644
13609W        W32463   2.817  12.363  14.119  0.2971 -0.2582 -0.1071
13610W        W32464   7.238  11.920  14.120  0.4202 -0.0542  0.0344
13611W        W32465   2.953   3.470   5.050  0.1168 -0.3645 -0.1825
13612W        W32466  13.628  12.246  15.674  0.0850  0.3433 -0.1420
13613W        W32467   4.256  15.011  13.244  0.2496  0.1159 -0.2801
13614W        W32468   7.285  11.714   3.674 -0.0020  0.0458  0.0195
13615W        W32469  10.634  15.221   4.407 -0.0401 -0.1775  0.1331
13616W        W32470  15.360  13.627   1.060 -0.2591  0.2342 -0.1622
13617W        W32471   4.278  13.817  12.024  0.0855 -0.1442 -0.1967
13618W        W32472  14.643   8.398   2.342  0.1406 -0.0703  0.0026
13619W        W32473  11.788   9.612   2.217  0.0565  0.1371  0.1991
13620W        W32474   1.446   8.422   5.332 -0.0381  0.0451  0.2967
13621W        W32475  11.899   4.860   4.599  0.0068 -0.1573  0.0410
13622W        W32476   2.149  11.738   2.486 -0.1042 -0.0444  0.1557
13623W        W32477  14.357   6.806  13.373 -0.0864  0.3564 -0.1683
13624W        W32478  11.658   0.569   4.895  0.1634 -0.1627 -0.2778
13625W        W32479   5.683   8.837   4.052  0.0003 -0.2661 -0.0673
13626W        W32480  15.168   0.872  14.604 -0.5354  0.0506  0.2981
13627W        W32481   6.780   6.812   4.665  0.0114 -0.0091 -0.0979
13628W        W32482  14.095  13.465   5.677  0.0952 -0.1350 -0.0365
13629W        W32483   8.455  13.984   0.311  0.0888 -0.0243 -0.0692
13630W        W32484   3.632  12.562   4.290  0.1990  0.1281 -0.4211
13631W        W32485   6.385   9.804   5.552  0.0434  0.0126  0.1757
13632W        W32486  14.985  15.083   4.364  0.1640  0.1763 -0.0727
13633W        W32487  12.222  12.451  13.567 -0.1470  0.1556  0.1956
13634W        W32488   1.983  16.867   5.241  0.0615 -0.1386  0.2330
13635W        W32489   9.321   9.696   1.013  0.2116  0.1200  0.1314
13636W        W32490  16.400   4.559  13.736  0.0637 -0.2319  0.1897
13637W        W32491   0.517   5.331   2.546  0.0612  0.0493  0.1510
13638W        W32492   9.269  13.769  14.184  0.3211  0.1087  0.0703
13639W        W32493   7.737   4.500   3.204  0.0321  0.0295 -0.0849
13640W        W32494   6.491  14.428   4.640 -0.0363 -0.0224  0.0247
13641W        W32495   6.261  12.580  16.387  0.0023  0.1109  0.0319
13642W        W32496   9.074  13.529   1.213  0.0790 -0.0411 -0.1885
13643W        W32497   3.347   7.091   1.655  0.1217 -0.2022  0.2384
13644W        W32498   6.087   9.851   0.163 -0.0903  0.1727  0.0888
13645W        W32499   8.276   0.551  14.889 -0.0528  0.2775  0.3272
13646W        W32500  10.632  10.027   1.762  0.1283  0.1546  0.1081
13647W        W32501   2.392  10.879   1.757 -0.3687 -0.1834  0.2369
13648W        W32502  17.303   3.179  14.184 -0.0182 -0.1253 -0.0420
13649W        W32503  11.906   2.616  13.494 -0.1059 -0.1520  0.2771
13650W        W32504   3.808   8.091  11.927 -0.1773 -0.2927  0.0030
13651W        W32505  15.068   1.623  13.427  0.0236  0.1064  0.1577
13652W        W32506   8.985   7.945   0.310  0.3135 -0.1152  0.0379
13653W        W32507  10.234  14.999   3.840 -0.2750 -0.3017 -0.0567
13654W        W32508  11.144   5.434  12.642 -0.0707  0.0020  0.1763
13655W        W32509   2.777  13.621   3.922 -0.0118 -0.0382  0.1598
13656W        W32510   9.424   7.727  14.457 -0.3292 -0.0431 -0.0292
13657W        W32511   7.984  16.516   5.013 -0.3327  0.0249 -0.2349
13658W        W32512  11.200   9.416  14.401 -0.0570  0.1098  0.2623
13659W        W32513  10.693  15.642   4.164  0.0138 -0.0123 -0.1217
13660W        W32514   7.947   2.278   3.297 -0.1889 -0.0053 -0.1251
13661W        W32515   4.242  16.877   2.054  0.0147  0.1388 -0.1194
13662W        W32516  12.492  13.840   4.092  0.0194  0.2205 -0.1382
13663W        W32517   2.391  10.282  16.955 -0.1468 -0.0636 -0.0058
13664W        W32518   2.910   9.821   0.015 -0.0854  0.1170  0.2187
13665W        W32519   4.280  10.677   2.440  0.0407 -0.0713  0.1767
13666W        W32520  15.390   0.814   1.564 -0.0383  0.2595  0.2479
13667W        W32521  16.451   7.046  15.211  0.1059  0.0056 -0.1071
13668W        W32522   7.385  11.367   5.633 -0.1166  0.2047 -0.0735
13669W        W32523  16.576  11.989   0.916  0.0643 -0.0808  0.2442
13670W        W32524   5.907   8.031   2.735 -0.0087 -0.0764  0.1653
13671W        W32525   7.092   9.798   4.294  0.1254 -0.0991 -0.1819
13672W        W32526   4.070   4.203  16.960 -0.3104  0.1272  0.4632
13673W        W32527   9.195   8.659   0.854 -0.0518 -0.0671 -0.1619
13674W        W32528   3.815   2.870   0.832 -0.0752 -0.2776  0.3502
13675W        W32529  14.398   7.135  15.845  0.1741  0.0929  0.2838
13676W        W32530   6.804   4.909  16.744  0.1005  0.1057 -0.1558
13677W        W32531   7.048   8.867  14.797  0.1232 -0.1152  0.0651
13678W        W32532   4.466   2.186   2.976 -0.2345 -0.1082  0.0001
13679W        W32533  14.386   5.723  14.837 -0.2961 -0.1038  0.0851
13680W        W32534   8.202   0.795  17.236 -0.3563 -0.0602  0.0281
13681W        W32535  14.588   7.813  15.285 -0.3211 -0.0260  0.2331
13682W        W32536   3.006  16.933  12.759 -0.0704  0.0395 -0.0370
13683W        W32537   6.468   9.518   0.022  0.2021  0.1068 -0.0426
13684W        W32538   4.847   6.350   1.117  0.2870  0.1712  0.1233
13685W        W32539   8.423  16.680   5.198 -0.0920 -0.0300  0.1790
13686W        W32540  15.347   9.645   1.873 -0.1577  0.0502  0.2546
13687W        W32541  13.213  17.147  14.455  0.0985 -0.0371  0.0378
13688W        W32542   8.814   4.557   2.479  0.0986 -0.0697  0.2005
13689W        W32543   8.821  14.765   5.398  0.0616  0.0460  0.4798
13690W        W32544  15.812   3.802   4.087 -0.1833 -0.0718 -0.1241
13691W        W32545   2.539   8.102   2.842 -0.2582 -0.0309 -0.0399
13692W        W32546  14.599  17.247  12.217  0.0170 -0.1995  0.0940
13693W        W32547   7.356   0.735  12.339  0.1669  0.1219  0.0595
13694W        W32548  13.120  12.785  17.199 -0.4734  0.0117 -0.0871
13695W        W32549   8.371   2.337   0.534  0.3714  0.2339  0.2890
13696W        W32550   4.829   7.844  12.924  0.0839  0.2354  0.2436
13697W        W32551   2.801   6.353  16.267 -0.2833 -0.1425 -0.0675
13698W        W32552  15.432   8.193   4.299  0.1253 -0.0490 -0.0152
13699W        W32553   3.449   6.391   1.818  0.1292 -0.0062  0.2181
13700W        W32554   0.244   3.962  16.269  0.0697  0.2251  0.2151
13701W        W32555   0.943  11.070   4.568 -0.1421  0.1386 -0.1683
13702W        W32556  10.472   6.178  12.764  0.1203 -0.0705 -0.0564
13703W        W32557  10.457  16.784  13.246  0.0831  0.1417  0.0412
13704W        W32558   0.208   2.947   1.851 -0.1638  0.1207  0.0471
13705W        W32559   6.229  10.098   3.796  0.1821 -0.0626 -0.0064
13706W        W32560  17.129  14.172   2.004  0.0283 -0.1158 -0.3897
13707W        W32561   7.549   2.284   2.964  0.2254 -0.0072 -0.1109
13708W        W32562   7.138  11.688   0.529  0.0622  0.1746 -0.3712
13709W        W32563   5.884   5.111   0.329 -0.0333 -0.0180  0.1215
13710W        W32564   5.900  13.290  14.281  0.0496  0.0535 -0.1123
13711W        W32565  16.959   0.289  12.292  0.0548  0.2524  0.2119
13712W        W32566   7.551   6.372  13.459  0.2678 -0.3452 -0.0145
13713W        W32567  16.843   1.501   5.810 -0.0481 -0.2608  0.0218
13714W        W32568   7.489  10.555  14.587 -0.0068 -0.0552 -0.0632
13715W        W32569   3.838  12.370   1.501  0.0927 -0.1622  0.0515
13716W        W32570   6.367  14.124  17.218  0.0470 -0.1202 -0.1183
13717W        W32571   3.201   6.537  13.560 -0.2546 -0.2436 -0.1097
13718W        W32572   4.192  16.217  13.953 -0.2931  0.0767  0.2104
13719W        W32573  14.983   2.318  17.378 -0.2710 -0.0418  0.2882
13720W        W32574   9.105   6.774   2.052  0.0106  0.0549  0.1323
13721W        W32575  12.071  11.058   1.138  0.0871 -0.3218  0.0019
13722W        W32576   1.265   8.449  15.630 -0.4432  0.1101  0.2189
13723W        W32577  13.503   0.335   2.296  0.1090  0.0664  0.1127
13724W        W32578  13.523   1.973  15.480  0.0638  0.0069  0.1559
13725W        W32579   4.335  15.608   4.356 -0.1386  0.1877 -0.0426
13726W        W32580  12.472  16.729   2.944 -0.0704 -0.1262 -0.0028
13727W        W32581  14.143  11.951  16.981 -0.1224  0.1722  0.5213
13728W        W32582   9.760   3.380   0.230  0.1379 -0.1972 -0.5583
13729W        W32583   5.639  14.277   0.303 -0.2201  0.1215  0.2306
13730W        W32584   8.871   4.284   4.476 -0.2783 -0.2994  0.1563
13731W        W32585   0.794   4.241  15.514 -0.1267  0.0139 -0.0151
13732W        W32586   9.074  12.672   2.844  0.1124 -0.1024 -0.0096
13733W        W32587  14.489   9.288  14.391 -0.3167  0.0929 -0.2555
13734W        W32588  14.289   0.774   0.109 -0.0231  0.0032  0.0345
13735W        W32589   3.988   9.402  14.309  0.0334 -0.2037  0.1283
13736W        W32590   0.290   2.817   2.843  0.1883 -0.0858  0.1417
13737W        W32591   7.077   7.471  12.503  0.1634 -0.1767  0.0236
13738W        W32592   4.785  16.164  12.637 -0.1852 -0.0280  0.0268
13739W        W32593   7.250   3.195  12.055  0.1146  0.1752 -0.1222
13740W        W32594   2.336  15.938  12.428 -0.0378 -0.1095 -0.3250
13741W        W32595  13.925  13.419  16.300 -0.0480 -0.2176 -0.0789
13742W        W32596   7.640  12.257   0.287 -0.1049  0.0132  0.0917
13743W        W32597   5.957  15.039  13.433 -0.1512 -0.1520  0.2610
13744W        W32598   1.812   3.989  14.786  0.0666 -0.0988  0.3495
13745W        W32599   6.913  11.267   3.071  0.2383  0.0023 -0.0756
13746W        W32600   0.403  16.259   1.415  0.1886 -0.1013 -0.0462
13747W        W32601   0.747  16.697  14.045  0.1185  0.2000 -0.1439
13748W        W32602   0.936   6.942   5.110 -0.1300 -0.0259 -0.1725
13749W        W32603   8.819   0.432   4.283  0.0861  0.2086  0.2742
13750W        W32604   5.823   1.395   2.209 -0.0993 -0.0383 -0.4794
13751W        W32605  15.481   5.905   0.567 -0.1031 -0.2035 -0.2556
13752W        W32606   5.284   0.797   1.153 -0.1933 -0.0022  0.2158
13753W        W32607   5.221   5.736   2.965  0.2571 -0.1652 -0.0825
13754W        W32608  10.783   7.562  14.497  0.0849 -0.0691 -0.2715
13755W        W32609   0.133   6.566  12.580 -0.1728 -0.1102 -0.0057
13756W        W32610  13.932   0.918  14.045  0.3530 -0.1020  0.0425
13757W        W32611   7.547   6.553   2.888  0.0265 -0.0160 -0.1285
13758W        W32612   7.254   2.264  14.003  0.0207 -0.0315 -0.6598
13759W        W32613   4.444   7.581  14.934  0.0150 -0.1233 -0.0361
13760W        W32614  12.058   8.429   3.802 -0.0136  0.2665  0.4114
13761W        W32615   3.169   1.809   0.890 -0.4296  0.2343  0.0328
13762W        W32616  12.500   3.083   2.755  0.1383  0.0814 -0.3295
13763W        W32617  15.307  16.022   0.598 -0.0942  0.2998  0.0126
13764W        W32618   3.989   1.905   2.164 -0.2146 -0.1383  0.1731
13765W        W32619   9.568  14.719  16.493 -0.0325  0.3636 -0.1217
13766W        W32620   9.121   3.287  16.241 -0.5525  0.0721 -0.1393
13767W        W32621  12.596   6.529  12.592 -0.1853  0.3887 -0.0936
13768W        W32622   4.232  14.600  14.527  0.1011  0.0520  0.0821
13769W        W32623  13.900   3.060  12.127  0.0677  0.2359  0.1171
13770W        W32624   8.420   5.012  12.816 -0.0839 -0.0612  0.1681
13771W        W32625   1.767  12.532  12.110  0.1603 -0.2026 -0.0660
13772W        W32626   6.618   7.146  15.390 -0.1027 -0.3096 -0.1555
13773W        W32627  10.648   8.208  12.850 -0.0400  0.1464 -0.2401
13774W        W32628  11.174   9.373  14.904 -0.0331  0.1158  0.1957
13775W        W32629   5.750   2.870   2.909 -0.1723  0.1732 -0.2015
13776W        W32630  10.383  13.261   2.393 -0.0492  0.1591 -0.1026
13777W        W32631  14.020   4.705  12.075  0.0247  0.0250 -0.0364
13778W        W32632  10.485   0.747  16.506 -0.2476  0.0529  0.0113
13779W        W32633  17.117   3.623  14.254 -0.1829 -0.2899 -0.0237
13780W        W32634   3.933   0.791   4.943 -0.2342  0.0228  0.0510
13781W        W32635  13.173   0.264  14.108  0.1231 -0.1005  0.2260
13782W        W32636   6.171  11.877   2.303  0.2174 -0.0202  0.3246
13783W        W32637   4.399   5.996  16.622  0.2677  0.1448 -0.0087
13784W        W32638  14.231  12.738   1.781  0.1390 -0.0817  0.1163
13785W        W32639   7.576   7.496  12.407 -0.2861 -0.0691  0.0170
13786W        W32640   0.786   4.870  13.273  0.0883  0.2090 -0.1473
13787W        W32641  16.165   2.830  14.785 -0.0253 -0.1381 -0.0805
13788W        W32642  10.399   6.728  13.771 -0.3179 -0.0247  0.0390
13789W        W32643  13.777  12.824  17.063  0.3920 -0.0264  0.2064
13790W        W32644   2.201  16.667   4.826  0.2990  0.0873 -0.2705
13791W        W32645  10.931   5.206   3.916  0.0744  0.1111 -0.0561
13792W        W32646  13.403   0.131   3.737  0.0487  0.0776  0.1304
13793W        W32647   3.826   4.497  13.887 -0.0971  0.0339  0.2656
13794W        W32648  13.879  12.827   2.261 -0.2704  0.2631 -0.0472
13795W        W32649  10.464   3.158   1.034 -0.3574  0.0057  0.2334
13796W        W32650   3.106   3.796  12.901  0.1402  0.1559  0.3324
13797W        W32651   8.023   7.970  15.866  0.0157 -0.3047  0.0528
13798W        W32652   0.681  14.997  15.168 -0.2631 -0.0045 -0.1355
13799W        W32653  11.224  10.104   1.653 -0.0713 -0.2407 -0.0324
13800W        W32654   3.370  15.514  16.544  0.0170 -0.1013 -0.2882
13801W        W32655  16.624   5.688   4.807  0.1435 -0.1472  0.0490
13802W        W32656   6.630   3.060   5.204 -0.1248  0.2165  0.0388
13803W        W32657  15.565  14.388  12.610 -0.1617 -0.0911  0.0283
13804W        W32658   1.512   0.733   2.261  0.1482  0.3644 -0.0753
13805W        W32659   6.435   3.258   4.742  0.1581  0.0227 -0.0976
13806W        W32660  16.352   3.006   0.158  0.0708  0.2080 -0.1794
13807W        W32661  14.984  13.515  13.780  0.2235  0.1947  0.1066
13808W        W32662  10.005   4.016   0.105  0.0841  0.1829 -0.1756
13809W        W32663  17.277  11.800  16.659 -0.1386  0.1592  0.1462
13810W        W32664  14.846   7.456  13.996 -0.0527  0.0352  0.2014
13811W        W32665   1.740   5.063  14.941 -0.1883  0.2198  0.0303
13812W        W32666   8.748   3.003   3.636 -0.0902  0.1402 -0.0246
13813W        W32667   1.492   9.203  16.088  0.2322  0.3390 -0.0509
13814W        W32668  13.332   0.960  13.375  0.1476  0.1612 -0.4304
13815W        W32669  11.184   0.270   3.018 -0.1123 -0.2516  0.2808
13816W        W32670   1.290   4.038   5.643  0.0465  0.1366 -0.0402
13817W        W32671  14.228   6.701  15.067  0.1319 -0.1128 -0.2174
13818W        W32672  12.513   1.926  14.296  0.2570  0.1420 -0.0631
13819W        W32673  11.835   1.998   4.616 -0.0545  0.0662 -0.2063
13820W        W32674   6.873   1.730  16.361 -0.1105  0.1422 -0.0266
13821W        W32675   6.886  14.624   4.398  0.0876 -0.1997 -0.1442
13822W        W32676   6.672  10.776   3.581  0.0732  0.1698 -0.0946
13823W        W32677   7.771   7.688  14.714  0.0694  0.0723  0.0251
13824W        W32678  12.401   8.504   4.967  0.0999  0.0380 -0.0270
13825W        W32679   9.154   9.472  12.333  0.0849  0.0739  0.1045
13826W        W32680   0.143  17.172  13.994  0.2852  0.0241  0.1821
13827W        W32681  12.002   8.687   1.076 -0.1131  0.2081 -0.1992
13828W        W32682   7.533  15.425   4.346 -0.2254  0.0015  0.0424
13829W        W32683   4.596   1.210  14.043  0.0392  0.1322 -0.3209
13830W        W32684   3.862  16.003  15.216  0.0773 -0.1183 -0.2069
13831W        W32685   0.344  10.138  15.286 -0.1086  0.2581  0.5598
13832W        W32686  10.899  14.449  15.940 -0.1282  0.2712 -0.2444
13833W        W32687  15.635  10.750   1.798 -0.1282 -0.1271 -0.2474
13834W        W32688  12.254   0.789   0.335  0.0244 -0.0540 -0.2076
13835W        W32689  16.110  11.169  14.144 -0.4582  0.1623 -0.0193
13836W        W32690  10.452   2.539  14.758  0.1448  0.0329 -0.0663
13837W        W32691  12.206  14.013  15.743  0.2946  0.0428  0.1249
13838W        W32692  13.558  12.766  13.121 -0.1271 -0.1722  0.0406
13839W        W32693   2.572   7.513   5.074 -0.0842 -0.0989 -0.0148
13840W        W32694   6.012   1.798  16.762 -0.1676  0.1652 -0.0587
13841W        W32695   8.628  15.349  14.254  0.2753  0.1587 -0.2319
13842W        W32696   0.030   6.662   0.511 -0.1638  0.2894  0.0170
13843W        W32697   9.336  13.624   2.039  0.0435  0.2002 -0.0520
13844W        W32698   7.420  11.946  16.495  0.1323 -0.0902  0.0391
13845W        W32699  16.812  14.010   2.361 -0.3422 -0.2761 -0.5101
13846W        W32700  12.840   1.234   5.264 -0.0750 -0.1281  0.1171
13847W        W32701   1.283   3.176   1.214  0.1416 -0.2520 -0.0663
13848W        W32702  14.092   2.478   2.368  0.3410  0.1191 -0.2243
13849W        W32703   6.971   9.217   4.255 -0.1201 -0.0504 -0.1954
13850W        W32704   4.339  12.313  12.885 -0.0418  0.0686 -0.1443
13851W        W32705  15.357   1.997   2.127  0.1943 -0.2033  0.6244
13852W        W32706   7.067   1.569  15.010  0.0345 -0.1301  0.2081
13853W        W32707  15.700   5.055  15.124  0.2365 -0.0909 -0.1502
13854W        W32708  12.507   1.849  12.446  0.1394  0.1437  0.1893
13855W        W32709  17.143  14.486   2.445  0.0167  0.0860  0.3048
13856W        W32710  10.441   3.618   4.801  0.1021 -0.0475  0.1002
13857W        W32711  15.094  14.598  12.690 -0.1168  0.2259 -0.0247
13858W        W32712   0.395   1.747   2.606  0.0708 -0.2115 -0.2587
13859W        W32713   8.062   8.780  13.862  0.0806  0.0153 -0.1199
13860W        W32714   0.941  17.317   2.892 -0.0976 -0.2864 -0.2815
13861W        W32715   9.065  17.107   2.302  0.0850  0.2538 -0.0563
13862W        W32716   7.640   5.246  12.832 -0.0503  0.1350  0.1715
13863W        W32717   6.840  10.056  13.372  0.0700 -0.0212  0.1226
13864W        W32718   7.565  13.265  12.859  0.3955  0.1901  0.0613
13865W        W32719   9.981  12.006  13.861  0.2152 -0.1061 -0.0656
13866W        W32720  12.894   4.034  17.093  0.0045  0.2306 -0.0660
13867W        W32721  14.793  10.141  17.066 -0.3432 -0.1020  0.0611
13868W        W32722  16.521   1.800  16.001  0.0147  0.0718  0.0197
13869W        W32723  11.702   1.008   1.046 -0.0435 -0.3635 -0.1488
13870W        W32724   4.719  15.553   3.812 -0.1613  0.0996 -0.0843
13871W        W32725   1.047   8.646  14.883  0.2152 -0.2551 -0.0270
13872W        W32726  16.108  11.477   0.237 -0.0940  0.1917 -0.0124
13873W        W32727   3.583  12.961  13.717  0.1793  0.1433  0.2199
13874W        W32728  12.229   1.841   1.193  0.0310  0.2408  0.1927
13875W        W32729   7.693   3.078  13.787  0.1107  0.3352 -0.2435
13876W        W32730   5.696   4.404  13.428  0.0216 -0.0963  0.0804
13877W        W32731   3.223   0.810  16.316 -0.0942 -0.2511 -0.0559
13878W        W32732  14.256  11.231  16.352  0.0740 -0.0119 -0.1556
13879W        W32733   1.308   0.930  11.575  0.0790  0.0438 -0.2483
13880W        W32734  12.428  16.903  13.162 -0.0821  0.3674  0.0469
13881W        W32735  16.833  10.557   3.093 -0.3248  0.1219  0.0388
13882W        W32736   2.967  10.217   2.479 -0.2213  0.0383  0.1607
13883W        W32737   2.490   3.322   2.436  0.0373  0.2133  0.2576
13884W        W32738   0.744   6.116   2.170  0.1723 -0.2084 -0.1624
13885W        W32739   3.474  13.613  16.281 -0.0687 -0.1583 -0.0952
13886W        W32740  16.840  11.509  16.564 -0.0814 -0.0209  0.0723
13887W        W32741   7.266  13.515   3.705  0.0095 -0.0067 -0.1039
13888W        W32742  11.682  13.172  12.503  0.0924  0.0370  0.0750
13889W        W32743   1.949  13.499  12.634 -0.0538  0.2201  0.0189
13890W        W32744   5.472  15.024  13.792 -0.3278 -0.0625  0.0010
13891W        W32745  16.886   8.501   0.092 -0.1564  0.1045 -0.0735
13892W        W32746   8.372   2.019  13.219 -0.1837  0.0473 -0.1026
13893W        W32747   3.330  16.463   0.516  0.3270  0.1888 -0.2759
13894W        W32748  15.803  17.211   1.866  0.2513 -0.1554 -0.2264
13895W        W32749   6.351   0.867  14.135 -0.1458 -0.0789  0.1843
13896W        W32750   6.105   2.524   3.021  0.1099 -0.3890  0.0672
13897W        W32751   0.100   6.745   2.000  0.1438 -0.0980 -0.2049
13898W        W32752   4.698   5.235   3.545  0.0473  0.2246 -0.1172
13899W        W32753   5.777   6.115  14.474  0.0065 -0.1960 -0.5639
13900W        W32754   7.086   9.342   2.079 -0.0388  0.0736 -0.1538
13901W        W32755   5.493   2.976   1.580  0.2764 -0.2049 -0.1700
13902W        W32756  10.968  10.600  16.704 -0.0153 -0.1334 -0.1978
13903W        W32757   4.369  12.228  17.042 -0.1829 -0.1773 -0.2671
13904W        W32758  15.608  10.052  13.657 -0.1136 -0.1630 -0.0744
13905W        W32759   2.464  16.650   1.606 -0.0815  0.0076 -0.0566
13906W        W32760   0.948   6.679   1.695 -0.0237 -0.0764 -0.0509
13907W        W32761  16.929  12.724   2.071  0.1149 -0.1728  0.2667
13908W        W32762   5.070   6.689  14.494 -0.2800  0.1356 -0.2811
13909W        W32763  10.361  13.794  14.947  0.1006 -0.1533  0.0042
13910W        W32764  11.282  12.547   0.465 -0.0933  0.1883  0.2266
13911W        W32765   2.882  15.262  12.614 -0.0085  0.2268 -0.1940
13912W        W32766   2.604  11.719   0.122 -0.1454  0.0234 -0.0174
13913W        W32767   3.478  16.864  16.022 -0.1226 -0.1162 -0.0353
13914W        W32768  13.045   4.777  11.820  0.2468  0.0030 -0.1018
13915W        W32769   9.469  16.459   1.598 -0.1733  0.2037  0.0349
13916W        W32770   1.627   1.660  13.185 -0.0488  0.5473  0.1836
13917W        W32771  14.484   7.685   4.403  0.0874  0.2371  0.1329
13918W        W32772  15.439  14.769   5.008 -0.1305  0.1397  0.1274
13919W        W32773  16.592  11.879   0.091  0.1639  0.4167 -0.0470
13920W        W32774   6.316   7.753   4.475  0.1928  0.0525 -0.0118
13921W        W32775   2.844   4.246  14.781  0.2129  0.0972  0.0009
13922W        W32776   1.638  15.519  15.298 -0.0420  0.1550 -0.4585
13923W        W32777   6.774  16.969  15.215 -0.3083  0.1771  0.3328
13924W        W32778  10.391  10.037  15.813  0.1130 -0.2004  0.0756
13925W        W32779  15.747   0.403   1.989  0.0214  0.1160  0.1035
13926W        W32780  15.320  16.174   3.209 -0.0114  0.1845 -0.1568
13927W        W32781   1.874   2.664   2.061  0.3498  0.1672 -0.0043
13928W        W32782   6.577  17.009   1.313  0.3369 -0.2128 -0.1307
13929W        W32783   6.979   3.763   4.988 -0.0968 -0.0311 -0.1194
13930W        W32784  13.135   5.325   3.175 -0.0614 -0.0227  0.1417
13931W        W32785   3.760   5.135   0.288  0.4090  0.2528  0.0283
13932W        W32786  14.223   4.036  12.194 -0.2937  0.0979 -0.1691
13933W        W32787  10.437   7.347   5.689  0.0814  0.2920  0.0730
13934W        W32788   5.277  17.267  15.537 -0.0675  0.0629  0.0587
13935W        W32789   3.975   2.946  17.414 -0.1352 -0.1316  0.3547
13936W        W32790   6.444  12.379   5.280  0.2201  0.0772  0.0426
13937W        W32791   3.507  10.863   0.880 -0.1751 -0.0270 -0.0903
13938W        W32792   5.161   3.964   1.357  0.1720 -0.2734 -0.1958
13939W        W32793   3.038  12.727   3.923 -0.2042  0.0238 -0.0156
13940W        W32794   3.609   6.193  13.499  0.0709 -0.1474  0.1168
13941W        W32795  14.321   9.312   0.244 -0.2674  0.0361 -0.3314
13942W        W32796  15.868   4.992   1.751  0.0301 -0.1982  0.1497
13943W        W32797   0.987   1.658   2.740  0.0665  0.1684 -0.3241
13944W        W32798   5.386  14.246   1.700 -0.1653  0.0098  0.0478
13945W        W32799   4.741   0.623   2.966 -0.1703  0.3979 -0.3047
13946W        W32800  12.659   5.125  16.570 -0.1520  0.0385  0.0036
13947W        W32801  12.991   9.655  16.853  0.1577  0.0889 -0.1620
13948W        W32802  11.566  11.734  14.969 -0.2881 -0.1733 -0.1249
13949W        W32803   1.561  13.297   1.588  0.1536  0.1128 -0.0132
13950W        W32804  12.322  10.366  16.504 -0.1179 -0.0193 -0.2147
13951W        W32805  12.825  14.388   4.157  0.0778  0.2048 -0.2048
13952W        W32806   7.222   5.051   0.780  0.2438  0.0821  0.0050
13953W        W32807  16.102   9.951  13.363 -0.0982  0.1212 -0.0352
13954W        W32808  11.981  12.674   0.613  0.1522 -0.2680  0.0698
13955W        W32809   7.773   3.779  14.628 -0.2282  0.0014 -0.0955
13956W        W32810   5.215   1.104   4.610  0.1174 -0.1512 -0.0881
13957W        W32811   3.181  15.659  14.604  0.1109  0.2995 -0.2205
13958W        W32812   6.005   0.055  13.682 -0.2407  0.0230 -0.0193
13959W        W32813  13.108   4.610   2.477 -0.2901 -0.0183  0.1113
13960W        W32814   5.787   8.765  16.422  0.0799 -0.1231  0.0965
13961W        W32815   7.147   1.531   3.503  0.3342  0.3636 -0.1758
13962W        W32816  10.835  14.239   1.500  0.1215  0.0517  0.0064
13963W        W32817  14.077   5.937  16.211 -0.0154 -0.0942  0.0102
13964W        W32818   0.146   0.604   4.104 -0.1416 -0.0559  0.1721
13965W        W32819   5.949  16.355   2.008 -0.1060  0.0583 -0.3143
13966W        W32820   0.995  14.516   0.983 -0.1608 -0.0742  0.0136
13967W        W32821  10.570   2.669  13.903  0.1822 -0.0073  0.0667
13968W        W32822   7.226  10.143   0.705 -0.2187 -0.1684 -0.2879
13969W        W32823   1.129   2.245   1.735 -0.0021  0.0392 -0.1663
13970W        W32824  13.994   9.071   4.765  0.4086 -0.0116  0.2910
13971W        W32825  11.950   2.400   1.881 -0.0616  0.2047  0.0381
13972W        W32826   3.623   0.497  14.734  0.1648  0.1321 -0.1278
13973W        W32827   8.079  13.819   1.748  0.0338 -0.1010  0.2116
13974W        W32828   2.593   1.119  14.014  0.1376 -0.1891  0.0079
13975W        W32829  16.722  13.627   4.272  0.0037 -0.1075  0.2667
13976W        W32830   5.160  11.122  11.980  0.0794 -0.1157  0.0822
13977W        W32831   4.989  10.106   1.401 -0.0668 -0.1343  0.0483
13978W        W32832   2.303   5.129  12.494 -0.1018 -0.0688  0.4348
13979W        W32833   3.295   3.175  13.226 -0.2705  0.0470  0.0646
13980W        W32834  11.505   9.445   0.887 -0.1920  0.0379 -0.2756
13981W        W32835   0.491   5.672  14.644  0.2900 -0.2101 -0.0252
13982W        W32836   5.468  13.831   0.222  0.0790 -0.2308  0.2085
13983W        W32837  12.295   8.694  15.998  0.4213 -0.0017  0.2663
13984W        W32838   4.074   4.986  15.465  0.0374  0.1033 -0.0440
13985W        W32839  13.330  10.873   3.178  0.0567  0.2032  0.0186
13986W        W32840   4.210  17.010  12.534  0.0628  0.1495 -0.3331
13987W        W32841  12.944  16.922  13.154  0.5255  0.0238 -0.1817
13988W        W32842   4.203  11.659   4.520  0.2684 -0.0026  0.0436
13989W        W32843  13.602   4.133   4.031  0.2773  0.0276 -0.0001
13990W        W32844  17.073   0.065  14.719  0.2277 -0.1752  0.0503
13991W        W32845   2.966  14.996  15.059 -0.1783 -0.3702  0.3027
13992W        W32846   4.789  12.956   5.297 -0.1720  0.1620 -0.4305
13993W        W32847   8.015  10.559  14.654  0.0136 -0.2113 -0.0602
13994W        W32848  17.131   6.366   2.020  0.0528 -0.0701 -0.0533
13995W        W32849   9.249   3.206   3.633 -0.1239  0.1088  0.1673
13996W        W32850   9.741  12.032  13.066 -0.0453  0.0496  0.0843
13997W        W32851   6.405   4.565  16.818 -0.1639 -0.1809 -0.1400
13998W        W32852   7.345  16.506  17.009 -0.0539 -0.0255  0.1007
13999W        W32853   1.423   4.684  15.808 -0.0987  0.1605 -0.0960
14000W        W32854   6.291  15.222   4.929  0.1089 -0.1128  0.2535
14001W        W32855   2.768   1.359   3.141  0.4149 -0.1762 -0.1636
14002W        W32856   2.110  12.494   0.501  0.1643  0.2461 -0.1883
14003W        W32857  12.125   3.158   2.455  0.0532 -0.0591  0.0891
14004W        W32858  12.357   3.104  15.937  0.0090 -0.0781 -0.2765
14005W        W32859  14.627   4.216  12.644 -0.0813  0.2497  0.1850
14006W        W32860   7.290  13.567  12.430  0.0588 -0.0589 -0.0042
14007W        W32861   4.329   5.418  15.852 -0.1133 -0.2586  0.2904
14008W        W32862   4.010   8.652  13.051 -0.3108  0.1837  0.0905
14009W        W32863  17.073  16.047  17.247  0.0106  0.0103  0.1314
14010W        W32864   4.010   3.650  12.564 -0.2683 -0.1328  0.1018
14011W        W32865   4.026  10.587  17.289  0.1922  0.2540 -0.0267
14012W        W32866   2.325  16.386  12.746 -0.1588 -0.2800 -0.1074
14013W        W32867   8.401  13.353  12.355  0.2033 -0.0653 -0.0661
14014W        W32868   7.654   4.473   1.191  0.0351  0.2190 -0.1760
14015W        W32869   3.261  11.263   2.687  0.0958 -0.1119 -0.0476
14016W        W32870  12.455  12.301   2.763 -0.1605 -0.1175  0.2721
14017W        W32871  11.251  12.230  12.205  0.0814  0.2745 -0.0530
14018W        W32872  13.162  11.357   3.381  0.1021  0.0516  0.2232
14019W        W32873  13.668   5.249  14.540  0.3209 -0.0733 -0.1373
14020W        W32874  10.129  15.568  13.350  0.0023 -0.1092  0.0470
14021W        W32875  17.220   6.763  13.581  0.2367  0.2238  0.4126
14022W        W32876  10.582  11.055  13.351 -0.2268 -0.4103  0.3493
14023W        W32877  12.163   4.083   0.750 -0.2093 -0.2449  0.0753
14024W        W32878  10.528  14.150   1.047  0.1774  0.0098  0.1967
14025W        W32879  16.941   6.777  14.501 -0.2802  0.1608 -0.1682
14026W        W32880  14.053   9.227  13.758  0.0397  0.2828 -0.0603
14027W        W32881  16.609   7.432  11.907 -0.0036 -0.1128 -0.1002
14028W        W32882   2.335   7.709   3.031 -0.1086 -0.0650  0.3939
14029W        W32883  15.558   3.388   0.036 -0.2003 -0.0077  0.0850
14030W        W32884  10.461   5.256  14.734  0.0811  0.0399 -0.0857
14031W        W32885   0.274  16.411  16.361 -0.1193 -0.2743  0.0371
14032W        W32886   1.258   0.806   5.173  0.0158  0.1207  0.1226
14033W        W32887  14.259   7.564   2.262  0.0087 -0.1987 -0.0369
14034W        W32888  12.802   0.043   3.756  0.1298  0.0708  0.2396
14035W        W32889   1.360   5.346   0.529  0.0376  0.0451  0.2166
14036W        W32890   9.486   8.494  16.089 -0.2149  0.0717 -0.0732
14037W        W32891   0.969  13.891   4.849  0.0411  0.1475  0.1009
14038W        W32892  14.694   2.989  13.515  0.1876  0.3048 -0.2753
14039W        W32893  15.052   2.147  13.195  0.4973  0.1163 -0.3144
14040W        W32894  16.341  12.693  16.305  0.0059  0.1159 -0.1151
14041W        W32895   3.221   1.776  17.207  0.1649 -0.2283 -0.0767
14042W        W32896   0.848   1.534  16.199 -0.1053 -0.2178 -0.2297
14043W        W32897   3.937  15.393  12.428 -0.2322 -0.2294 -0.1136
14044W        W32898  12.004   9.087  12.835  0.0009  0.3075  0.0268
14045W        W32899  11.552   4.322  13.755  0.0723  0.4365  0.0318
14046W        W32900   0.859   8.187  17.070  0.2883 -0.1002  0.0755
14047W        W32901  14.940   8.830  14.334 -0.1683  0.0027 -0.1139
14048W        W32902   6.804  10.769  15.985 -0.0880 -0.0045  0.3833
14049W        W32903   6.908   5.012   4.442  0.1543  0.1041  0.0781
14050W        W32904  11.228   0.894   1.884  0.0483  0.0155  0.0003
14051W        W32905  17.283   1.488   1.417  0.2408  0.2417 -0.1541
14052W        W32906   2.455   3.109   3.859 -0.1212  0.2197  0.1524
14053W        W32907   5.171  17.297   5.235 -0.0241 -0.1336 -0.0348
14054W        W32908  16.784  13.978   3.437  0.0088  0.2049  0.1952
14055W        W32909   7.192   9.102  15.413  0.2779 -0.0007 -0.1213
14056W        W32910  14.492   5.399  16.672  0.0646  0.0851 -0.0985
14057W        W32911   7.832   1.266  13.026 -0.0107 -0.0302  0.2027
14058W        W32912  13.948   5.464  16.764  0.1380  0.0403 -0.0867
14059W        W32913   2.748   7.035   5.442 -0.1288  0.0451 -0.0461
14060W        W32914   1.039   2.839  14.986 -0.0616  0.0377  0.0165
14061W        W32915  12.883  10.616   2.981 -0.0009 -0.0044  0.0899
14062W        W32916  16.989  10.954   3.911  0.1066 -0.0553 -0.0778
14063W        W32917  10.184  16.371   0.145  0.0587 -0.3391 -0.0708
14064W        W32918  13.066  13.378  16.517  0.1130 -0.1300 -0.2359
14065W        W32919  10.570  10.915   1.426  0.2316 -0.2586  0.2144
14066W        W32920  15.554   9.844   0.541  0.0423  0.3260  0.1330
14067W        W32921  10.188  12.560   4.150  0.2315 -0.3182  0.0132
14068W        W32922  13.256   1.332  15.062 -0.1930  0.4495 -0.1328
14069W        W32923   3.606  14.626   0.361 -0.1257  0.0809 -0.0341
14070W        W32924   3.595   4.963   0.743  0.1938  0.2694  0.1024
14071W        W32925  13.241  10.003  14.804 -0.1720 -0.0815  0.3825
14072W        W32926   8.330   3.826   0.458  0.1016 -0.0981 -0.1986
14073W        W32927  11.953   1.054   5.054  0.1510  0.1963  0.1516
14074W        W32928   3.987   7.788   4.595  0.0974  0.1301  0.0384
14075W        W32929  16.613   3.812  12.449 -0.1593 -0.0515 -0.0738
14076W        W32930   2.213  13.213  16.690 -0.0113  0.1040  0.1493
14077W        W32931   4.921   5.392   0.781 -0.0195 -0.0517  0.1957
14078W        W32932  16.168   3.284  15.149  0.0623  0.2817 -0.3163
14079W        W32933   6.002  13.759  14.059 -0.1352  0.0530  0.0174
14080W        W32934   6.336  12.407   2.333  0.1374  0.1806 -0.0104
14081W        W32935  12.908   2.457   3.995  0.1144  0.1128 -0.1284
14082W        W32936   6.285   1.126   3.767 -0.0895 -0.0262 -0.0113
14083W        W32937  13.147  14.143   4.973 -0.0689 -0.1006 -0.0720
14084W        W32938  15.036  10.337   1.432 -0.2392 -0.2656  0.3519
14085W        W32939  16.844   6.992   2.721 -0.1223  0.0989 -0.2752
14086W        W32940   0.537  14.417  17.059  0.1140  0.2365 -0.1122
14087W        W32941   4.353  11.336   4.927  0.0481  0.0818  0.0297
14088W        W32942  15.521  16.397  15.083 -0.1571  0.3598 -0.0154
14089W        W32943   3.338  15.081  12.654  0.0959  0.1559  0.2746
14090W        W32944   5.665  15.932  12.829 -0.0688 -0.2448 -0.1423
14091W        W32945  13.762   0.712  13.162  0.3306 -0.1198  0.2767
14092W        W32946   3.323   7.233  17.222 -0.2123 -0.0499  0.0596
14093W        W32947   0.578  12.487  13.871 -0.1182  0.0981  0.0861
14094W        W32948  10.543   1.818  12.799 -0.1220 -0.0465 -0.4898
14095W        W32949   1.422   5.680  13.976  0.0203 -0.2307 -0.3069
14096W        W32950   2.507  14.622   2.391 -0.0025 -0.0124  0.2266
14097W        W32951  11.529  14.006   0.028  0.0093 -0.0936  0.0478
14098W        W32952  13.707  15.235  13.127 -0.1954  0.2641  0.1118
14099W        W32953   9.333  10.304  12.628 -0.0517  0.0039  0.1534
14100W        W32954   8.693  15.348  13.759  0.0269  0.3493 -0.0059
14101W        W32955  11.669  15.476   5.126 -0.3080  0.2543  0.1352
14102W        W32956   7.612   9.592   5.769  0.1664 -0.3338 -0.2095
14103W        W32957   0.570   5.094   2.093  0.0907 -0.2339  0.1217
14104W        W32958   4.770   7.011  14.208 -0.1353 -0.0121  0.1647
14105W        W32959   0.547  10.632   3.398 -0.2360  0.2031  0.2143
14106W        W32960   3.569  12.966   3.942  0.1736  0.0457 -0.1474
14107W        W32961   6.213  16.330  12.109  0.1373 -0.1215 -0.2125
14108W        W32962   5.148  15.828  12.784  0.0531 -0.1286  0.2225
14109W        W32963  15.028  13.374   2.586  0.0663  0.0676  0.2251
14110W        W32964   2.443   0.944  12.949 -0.0042  0.0170  0.0115
14111W        W32965   3.870   5.669   0.044  0.5333 -0.0050  0.0574
14112W        W32966   6.160   6.440  12.547 -0.0496 -0.0373 -0.1786
14113W        W32967   6.166   1.380  14.089 -0.0514  0.0345  0.0284
14114W        W32968  16.573   1.805   4.250  0.0102  0.0442 -0.3225
14115W        W32969  10.313  10.586  13.473  0.2316  0.0319  0.1078
14116W        W32970  10.380   7.168   2.767  0.0946  0.1273 -0.1973
14117W        W32971   3.042   0.500   3.729  0.2046  0.1710  0.1017
14118W        W32972  15.913  13.047  15.498 -0.0049 -0.1906 -0.0040
14119W        W32973   9.495   0.471  13.293  0.0317  0.0858 -0.0176
14120W        W32974  15.562  11.416  14.812  0.1549  0.0666  0.0576
14121W        W32975  12.890  13.238   4.942  0.3994 -0.0425 -0.1191
14122W        W32976   1.535   8.730  15.918 -0.0535  0.2624  0.1726
14123W        W32977   8.542  11.088  14.107  0.1557 -0.0261 -0.1124
14124W        W32978  15.337   8.546  14.458 -0.3042 -0.0644 -0.0075
14125W        W32979  11.674  10.872   1.992  0.0661 -0.2198 -0.0366
14126W        W32980   4.197  11.188   4.314 -0.0285 -0.2882  0.1484
14127W        W32981   0.354   3.596  16.569  0.0069 -0.1230 -0.2274
14128W        W32982  13.350   5.385   0.104 -0.0365 -0.2077 -0.1558
14129W        W32983   6.877  13.627   3.370 -0.0313  0.1609 -0.1304
14130W        W32984   8.320  12.504  12.260  0.1129  0.4040  0.3310
14131W        W32985  12.547  15.813   0.497  0.2495  0.0869  0.3641
14132W        W32986   4.273  15.863  16.146 -0.0614 -0.0344  0.1242
14133W        W32987   1.716   9.562   0.076 -0.3578  0.1745  0.2222
14134W        W32988  14.876   1.998  16.498  0.1439 -0.1547  0.0168
14135W        W32989  17.329   7.079   1.481 -0.0288 -0.0663 -0.1055
14136W        W32990   1.243   6.834   1.284 -0.1670 -0.1482 -0.1486
14137W        W32991  13.113   0.697   6.196 -0.1297 -0.0003  0.2176
14138W        W32992   3.203  15.257   3.654 -0.1011  0.1054 -0.2091
14139W        W32993  10.333  12.292  12.074  0.0029 -0.5347 -0.0764
14140W        W32994   8.843  13.046   5.082  0.0780 -0.1494  0.0043
14141W        W32995   1.064   9.745  15.260 -0.2434 -0.1177 -0.0045
14142W        W32996  16.175   1.663  16.801 -0.0882 -0.0373 -0.2298
14143W        W32997   4.454  13.691  13.404  0.2379 -0.0697  0.0610
14144W        W32998   6.261  12.587  15.080  0.0140  0.0209 -0.1701
14145W        W32999  17.330   5.710  13.813  0.1355 -0.1352 -0.1741
14146W        W33000  15.206   2.382  14.057  0.1195  0.0537 -0.0116
14147W        W33001   5.676   5.997   2.125 -0.2067 -0.0298  0.1272
14148W        W33002   9.639  17.222   0.033 -0.2041 -0.0640 -0.4114
14149W        W33003  15.572   3.948   1.406  0.1418 -0.1309 -0.1110
14150W        W33004  17.001  13.892   0.993 -0.2747 -0.0279  0.3397
14151W        W33005  15.434   0.633  12.805 -0.3918  0.0987  0.0149
14152W        W33006  14.024   8.442   4.865  0.1464  0.0474  0.0243
14153W        W33007   3.239   4.499   4.536 -0.0484  0.0195 -0.3076
14154W        W33008  15.631  10.604   2.843 -0.4435 -0.0895 -0.0582
14155W        W33009   6.897   0.397   4.438 -0.0682 -0.0356  0.2044
14156W        W33010  11.503   1.188   4.749  0.0747 -0.0581  0.2552
14157W        W33011  12.725   5.154  12.034  0.0862 -0.2227 -0.2661
14158W        W33012  13.664   0.122   1.810 -0.0608 -0.1588 -0.0381
14159W        W33013   7.319  10.211   4.691  0.2287 -0.0506 -0.2742
14160W        W33014   5.891   9.276   4.180 -0.1112 -0.1060 -0.0000
14161W        W33015   5.102   7.410  15.893  0.3227 -0.1356 -0.0275
14162W        W33016   0.689   5.519  16.900 -0.1027  0.1251  0.0093
14163W        W33017   5.421  15.394   4.491 -0.0601 -0.0141 -0.0563
14164W        W33018  16.786   4.139   2.244 -0.0302  0.1705 -0.0641
14165W        W33019  17.345   9.888   4.341  0.2080 -0.0761 -0.1385
14166W        W33020  12.141   8.783   4.468  0.0481  0.2704 -0.0170
14167W        W33021   8.024   3.050   1.124 -0.2770  0.0325 -0.2141
14168W        W33022   8.966   3.801   2.123  0.0227  0.4302  0.1191
14169W        W33023   4.994  13.222   3.236 -0.3585 -0.1786  0.3516
14170W        W33024   5.733  11.779   5.784  0.3079 -0.2615 -0.0775
14171W        W33025   7.546   9.247   5.261 -0.0977 -0.0724 -0.0953
14172W        W33026  10.785   0.621  13.987 -0.2052 -0.1220 -0.3305
14173W        W33027  11.724  12.946   0.199  0.3078 -0.0743 -0.1446
14174W        W33028   2.657   7.475   4.010  0.1902  0.2741  0.3497
14175W        W33029   6.269  16.816   3.381 -0.0031  0.0368  0.0704
14176W        W33030   3.632   5.252  13.229 -0.3186 -0.2461  0.2155
14177W        W33031  15.368  10.357   1.723  0.1782 -0.0293  0.0262
14178W        W33032  13.643   1.912  16.237  0.0145  0.0707 -0.2843
14179W        W33033  17.335   9.010  14.641  0.3382 -0.2453  0.0604
14180W        W33034  12.857  12.812  15.477 -0.1970  0.0861  0.2464
14181W        W33035   2.503  12.075   4.945 -0.3417 -0.0559  0.0717
14182W        W33036   4.968  15.006   0.388 -0.0968 -0.3245 -0.2044
14183W        W33037   6.122   5.898   0.850  0.0991  0.2019 -0.0217
14184W        W33038  11.081  15.804   1.990  0.0312 -0.0082 -0.1983
14185W        W33039   6.771   1.913   3.336  0.2245 -0.2928  0.2211
14186W        W33040  16.061  17.119  15.776  0.0663  0.0351  0.0924
14187W        W33041   6.398   6.283   4.214 -0.0410  0.0872 -0.0056
14188W        W33042   7.535  17.087  13.498 -0.0264  0.0040 -0.2051
14189W        W33043   2.922   8.471  13.883  0.1463  0.4454  0.1213
14190W        W33044  13.428   2.652   4.702 -0.1119  0.0728 -0.0537
14191W        W33045   7.120   8.144   1.217  0.1253 -0.0936 -0.3062
14192W        W33046   2.319   7.527   0.342 -0.1674 -0.0301 -0.1490
14193W        W33047   2.163  13.582  17.252  0.0497 -0.0976 -0.5401
14194W        W33048   9.503  12.870  13.099 -0.4817 -0.0621  0.0807
14195W        W33049   0.976  14.655   1.471  0.2614  0.0434  0.2593
14196W        W33050  10.834  15.183  13.719 -0.0843  0.2312  0.0157
14197W        W33051   7.846   8.155   1.635  0.1722  0.0040 -0.2694
14198W        W33052   5.346   3.847   0.314 -0.0289  0.0558 -0.0250
14199W        W33053  13.261   5.465  13.273 -0.0543 -0.1270 -0.2726
14200W        W33054   2.120   4.166  13.169  0.0459  0.1727 -0.0879
14201W        W33055  12.283   0.683   4.196  0.0394 -0.0587 -0.0797
14202W        W33056   1.654  12.449   0.244 -0.0517  0.1595  0.1462
14203W        W33057   5.865   6.941   3.103 -0.0138  0.1306 -0.1223
14204W        W33058  12.649   7.938  12.795 -0.0993 -0.1806  0.0416
14205W        W33059   0.016   9.922   4.894 -0.0852  0.2454  0.2259
14206W        W33060   8.325   3.969   1.134 -0.1043  0.2831 -0.1074
14207W        W33061  10.024   3.243  16.502  0.0356  0.1864  0.1697
14208W        W33062   6.302   3.623  12.307 -0.0261 -0.0885  0.0575
14209W        W33063   3.183  16.621   2.876  0.1615  0.0400  0.2147
14210W        W33064  10.136   5.821  12.846 -0.0299 -0.0406 -0.1269
14211W        W33065   6.902  12.022   3.882 -0.0941 -0.2057 -0.0139
14212W        W33066   0.807   2.751   4.572  0.0876  0.1938  0.0978
14213W        W33067   1.382   9.126   0.798  0.2267 -0.3798 -0.1685
14214W        W33068  16.933  12.081   0.477 -0.0413  0.0985  0.1965
14215W        W33069   5.123  11.768   1.410  0.0391 -0.1917 -0.1716
14216W        W33070  11.758  11.205  16.687 -0.2083 -0.1298 -0.0929
14217W        W33071   3.568   3.993  14.078  0.1424  0.0311  0.0136
14218W        W33072  11.555   6.503   1.786  0.1970 -0.1218  0.1696
14219W        W33073  10.637  13.839   2.345 -0.0078 -0.2196  0.2745
14220W        W33074   1.558  14.869  16.452  0.0342  0.1476 -0.1295
14221W        W33075   5.456   8.263   0.604  0.0695  0.2158 -0.3320
14222W        W33076  14.408   2.256  16.677  0.0324  0.0074 -0.0300
14223W        W33077  15.876   4.475   4.417 -0.0744 -0.2276  0.1158
14224W        W33078   4.560   0.262  14.429 -0.0017  0.0736 -0.1889
14225W        W33079   0.065  13.702   1.348  0.1030  0.3263 -0.1912
14226W        W33080  15.752   7.116  12.380 -0.3508  0.0356  0.1352
14227W        W33081  12.620   9.948  16.457 -0.1859  0.0062  0.1977
14228W        W33082  14.169   7.603  14.508  0.0640  0.3394 -0.0591
14229W        W33083   8.010  15.182  12.695 -0.0614 -0.1682  0.2338
14230W        W33084   2.228   9.621  14.050 -0.0153 -0.1043 -0.1653
14231W        W33085   9.981   6.110   0.175 -0.0602  0.0637 -0.0432
14232W        W33086  15.553  13.465  14.612  0.0889  0.0776 -0.0350
14233W        W33087   2.947   5.757  14.277  0.0505 -0.0856 -0.4362
14234W        W33088   3.276  17.245  15.806 -0.0668 -0.1329  0.0481
14235W        W33089   1.165   9.979  15.660 -0.0889 -0.2314 -0.4151
14236W        W33090   4.098   6.562   2.501 -0.0134  0.5235 -0.1424
14237W        W33091   8.617   3.899  14.005 -0.3261  0.0949  0.0954
14238W        W33092   1.078   3.470   4.755 -0.2106  0.3438 -0.0558
14239W        W33093   0.694   4.728   3.333  0.0930  0.0621 -0.1681
14240W        W33094   5.923  12.699  12.086 -0.1600  0.0036  0.3640
14241W        W33095  15.318   3.959  17.379  0.0527 -0.0767 -0.0068
14242W        W33096   9.175   6.753   4.719  0.1147  0.0969  0.2323
14243W        W33097  10.870  12.505   0.188  0.0252 -0.2045 -0.1231
14244W        W33098   1.952  10.505  13.780 -0.3123 -0.3419 -0.1043
14245W        W33099  11.960   4.431   3.343  0.1120 -0.3276  0.0840
14246W        W33100   3.590  14.890   1.699 -0.1582  0.1857 -0.1128
14247W        W33101   6.692   4.327   3.082  0.0325  0.2327  0.1324
14248W        W33102  14.395   4.604  16.058  0.1327 -0.0105 -0.0004
14249W        W33103   8.891  12.136  17.369 -0.1119 -0.0951  0.0503
14250W        W33104   8.599  12.794   4.640  0.0074  0.0197 -0.0406
14251W        W33105  12.137   6.816  16.633 -0.1696 -0.0989  0.0193
14252W        W33106   7.445   3.843  12.686 -0.0373 -0.0490 -0.0293
14253W        W33107   5.949   6.648   3.593 -0.2314 -0.0638  0.2166
14254W        W33108  14.187  10.309   0.779  0.1134  0.1425 -0.2115
14255W        W33109  12.293   9.067  14.234  0.0238 -0.3735  0.0419
14256W        W33110   9.437   9.769   1.612  0.4657 -0.2583  0.0264
14257W        W33111  11.817  10.065   1.411  0.0114 -0.0071  0.0871
14258W        W33112  13.593  11.243  12.650 -0.1874  0.0507 -0.2520
14259W        W33113  13.631  10.683  14.181 -0.0235 -0.1174 -0.2895
14260W        W33114   2.374   4.054   3.015 -0.2735 -0.2403  0.4678
14261W        W33115   9.869   3.524   3.926 -0.3287  0.0713  0.0906
14262W        W33116   9.576   4.603  17.349  0.1361 -0.3109  0.2724
14263W        W33117   3.920  17.297   1.908 -0.0448 -0.3564 -0.0350
14264W        W33118  14.366   0.893   2.040 -0.2838  0.1892 -0.0112
14265W        W33119   7.782   1.497  17.305  0.0578  0.1181  0.1058
14266W        W33120   4.960   3.031  12.382 -0.0509 -0.2198 -0.1751
14267W        W33121   1.740   9.899   3.396 -0.1097 -0.0271 -0.0814
14268W        W33122  10.251   6.559   5.520 -0.3762 -0.2282 -0.2404
14269W        W33123   1.054  15.594   6.327 -0.0077  0.0007  0.1011
14270W        W33124   5.420  14.150   1.156  0.1818  0.0048 -0.0823
14271W        W33125   1.496  14.334  17.355  0.1395  0.0933 -0.1380
14272W        W33126   3.032  15.769  13.440 -0.0482 -0.0886  0.1335
14273W        W33127  14.105  11.131   3.253 -0.1684 -0.1006  0.0062
14274W        W33128   4.314   9.484   4.652  0.0440 -0.1831 -0.0747
14275W        W33129  14.386   6.181  13.158  0.0631 -0.0981  0.1294
14276W        W33130   2.986  13.922  16.382  0.1469 -0.1224  0.0317
14277W        W33131   7.850   3.877   0.627  0.0436 -0.0882 -0.3508
14278W        W33132   0.542   8.777  15.192  0.0258  0.1048  0.3530
14279W        W33133  10.226  14.094   3.620  0.0663 -0.0517  0.1437
14280W        W33134  16.229   8.476  14.183 -0.3388 -0.0557  0.2216
14281W        W33135  14.482   7.679  16.811  0.1199 -0.0214 -0.2037
14282W        W33136   6.294  12.214   4.294 -0.0786 -0.0999  0.0886
14283W        W33137   4.417  11.536  13.189  0.1554 -0.0685 -0.1838
14284W        W33138   9.144  12.567  17.256  0.0951 -0.0611 -0.0015
14285W        W33139   8.172   1.547  13.343 -0.2241 -0.1422 -0.0774
14286W        W33140  10.002   7.663  16.217 -0.1547 -0.1044 -0.1076
14287W        W33141  13.348   2.407   0.997  0.0226  0.0575  0.1938
14288W        W33142   2.234   2.979   1.923 -0.0804  0.0541 -0.2818
14289W        W33143   0.202   5.665  14.268  0.1049  0.0458  0.0799
14290W        W33144   4.116  14.763   0.318 -0.4945  0.0830  0.2244
14291W        W33145   1.130  13.261  12.627 -0.0091 -0.0680  0.2803
14292W        W33146  14.330   5.348  13.541  0.1416 -0.0657 -0.1112
14293W        W33147  10.268   9.448  14.684 -0.0234 -0.0373 -0.1045
14294W        W33148  14.152  12.370   0.314 -0.3685 -0.1764  0.1051
14295W        W33149   1.907  11.329   3.333 -0.2841 -0.1139 -0.1072
14296W        W33150  10.404   0.467   4.505  0.2411 -0.0082  0.1417
14297W        W33151  14.836   9.913   1.348 -0.1123 -0.1844 -0.0623
14298W        W33152   3.010   3.762  15.928  0.3563  0.0022  0.0084
14299W        W33153   6.595   9.512   1.961  0.3273 -0.1000  0.0748
14300W        W33154   3.404   3.133  13.700 -0.2790 -0.0145 -0.0354
14301W        W33155   9.102   1.627   3.438 -0.5428 -0.1464  0.3557
14302W        W33156   0.716   7.248   1.733 -0.1748 -0.2327 -0.4189
14303W        W33157   5.396  16.158  16.797 -0.1056  0.0160 -0.3488
14304W        W33158   8.481   9.481  12.787  0.2030 -0.1093  0.0414
14305W        W33159   7.482   2.700   2.676  0.1914  0.0336  0.2782
14306W        W33160   5.294   3.837  14.792  0.2376  0.1403  0.2868
14307W        W33161  12.586  12.698   1.406 -0.0701 -0.0920 -0.0623
14308W        W33162   1.223  11.257   5.011  0.2307  0.1218  0.1782
14309W        W33163   7.265  10.571  16.237  0.2709  0.2761  0.0858
14310W        W33164  11.551  15.068   2.978  0.2863  0.3911 -0.0005
14311W        W33165   7.217  11.569  12.439  0.1973 -0.3424 -0.3793
14312W        W33166   9.637   2.975   3.900  0.2268  0.1433  0.2099
14313W        W33167   3.406   0.394  15.502  0.0334 -0.0718  0.0022
14314W        W33168   0.769  14.703  14.748  0.1134 -0.0129  0.0560
14315W        W33169  13.229   4.332  16.909  0.2105 -0.2260  0.0987
14316W        W33170  12.117  10.482  15.532  0.2548  0.4387  0.1118
14317W        W33171   2.296   2.536   1.095 -0.1176 -0.4104  0.0300
14318W        W33172   8.689   6.560  15.031  0.1255 -0.0721  0.0111
14319W        W33173   1.465  16.374  15.903  0.0808 -0.1707  0.1574
14320W        W33174   7.644  11.488   4.423 -0.0751  0.1169 -0.1195
14321W        W33175   2.695  14.184   5.708  0.1214 -0.0487 -0.0465
14322W        W33176   4.453   8.969  16.519 -0.0467 -0.1429  0.2291
14323W        W33177   0.725   7.735   4.571 -0.2267 -0.2900 -0.0258
14324W        W33178   9.218  16.204   3.411  0.1648 -0.0193 -0.0626
14325W        W33179  14.142  14.459  11.597 -0.0292 -0.1295  0.3158
14326W        W33180  15.870   4.006  12.275  0.0889 -0.0520  0.1938
14327W        W33181   1.578   7.407  16.560  0.0761 -0.1778  0.1784
14328W        W33182  12.750  16.500  17.027 -0.0817  0.2414  0.1555
14329W        W33183  12.813   9.027   0.062  0.1930  0.3485 -0.1709
14330W        W33184  12.713   0.004   2.509 -0.1351 -0.1045  0.2424
14331W        W33185   7.006  13.409   1.446  0.1161  0.1089  0.0926
14332W        W33186   5.386   6.936   2.967 -0.1357  0.1435  0.2276
14333W        W33187   6.194   0.506  14.644  0.1202  0.2690 -0.1173
14334W        W33188   3.652   8.583  16.285  0.1473 -0.2866  0.3511
14335W        W33189  14.351   8.039   3.129 -0.1717  0.1179 -0.0040
14336W        W33190   3.679   5.139   2.815 -0.1972  0.3669 -0.2589
14337W        W33191   3.554   6.463  14.488 -0.0595  0.0977 -0.0382
14338W        W33192  13.307  15.651  13.349  0.1835  0.4480 -0.3192
14339W        W33193  10.784   4.356   1.508  0.1464  0.0233  0.1341
14340W        W33194   3.384   4.894   0.016 -0.3862  0.0380  0.2999
14341W        W33195   4.973   6.021  16.216  0.4735 -0.1181  0.3100
14342W        W33196  17.117   8.544  12.598 -0.2183 -0.1925 -0.2783
14343W        W33197  13.076  14.530   0.589  0.4045  0.2770 -0.0956
14344W        W33198   7.480   5.165   3.081 -0.0755 -0.1816 -0.0607
14345W        W33199   5.042   7.952   4.575  0.1505 -0.1069  0.2193
14346W        W33200   9.822  11.346   3.852  0.2730 -0.2999  0.1114
14347W        W33201   0.183   9.802   5.546 -0.1215 -0.1590  0.1298
14348W        W33202   4.061  13.584   4.379  0.0209 -0.0615 -0.1944
14349W        W33203   9.816   2.482  15.536  0.1217 -0.0662  0.1020
14350W        W33204  11.821  16.360  13.932 -0.2070  0.0140 -0.4434
14351W        W33205   7.667   0.845   0.873 -0.2026  0.0422 -0.1715
14352W        W33206  10.928   3.374  13.145 -0.0560  0.0841 -0.1098
14353W        W33207  10.689   3.784   4.053 -0.0167  0.0897  0.0969
14354W        W33208  16.728   3.946   4.915  0.0577 -0.1908 -0.2411
14355W        W33209  15.385   2.433   0.884 -0.1334 -0.2677  0.0087
14356W        W33210  12.378   0.897  15.999  0.2499  0.0268  0.0685
14357W        W33211   1.311   0.824   2.758  0.0663  0.0028 -0.1582
14358W        W33212  10.546   5.903   0.045 -0.3278 -0.0514 -0.1696
14359W        W33213  11.576  10.699  14.785  0.0387 -0.5739  0.0081
14360W        W33214   8.320  10.122   0.553  0.0079  0.3139  0.1178
14361W        W33215  11.152   7.898   2.740 -0.1141  0.4124 -0.0688
14362W        W33216   8.353  12.607  13.043 -0.3916 -0.1105 -0.2471
14363W        W33217   0.080  14.448   4.147  0.0871  0.0492  0.1025
14364W        W33218  11.164  14.517  16.347  0.0168  0.0244 -0.2725
14365W        W33219  13.590   4.212   3.143  0.0638 -0.4256 -0.3065
14366W        W33220  11.474   6.346   3.705  0.2499  0.1414 -0.1092
14367W        W33221  13.944  14.529  17.455  0.1759 -0.1667  0.1958
14368W        W33222   6.816   4.793  15.497  0.0646  0.2327 -0.0461
14369W        W33223   7.268  13.321   5.317  0.0110 -0.1427  0.1231
14370W        W33224   8.263  15.588  14.477  0.2245  0.2533  0.0926
14371W        W33225   8.421   9.518  17.174  0.0331  0.0781 -0.0229
14372W        W33226  12.254  11.836  16.306  0.1771  0.0401  0.1494
14373W        W33227   7.719  16.530   5.559 -0.0149  0.0715 -0.1073
14374W        W33228  10.535  15.516   1.219  0.1806  0.0227 -0.1114
14375W        W33229   0.782  14.541  14.254  0.0284 -0.0087 -0.0490
14376W        W33230   1.468  13.585   0.758 -0.0878 -0.1048  0.2245
14377W        W33231   5.142   8.147   1.612  0.3270  0.1108  0.0746
14378W        W33232   7.873  15.888   3.129 -0.0202 -0.3115  0.0947
14379W        W33233  16.783   6.598   1.599 -0.2012 -0.0687 -0.1606
14380W        W33234  16.603   2.634  14.690 -0.2670 -0.2585 -0.2137
14381W        W33235   6.424   0.012  14.580  0.0408 -0.0258  0.2900
14382W        W33236  10.933  15.670   4.609  0.0583  0.0997  0.0231
14383W        W33237   1.392  14.768   1.116 -0.1676  0.1503 -0.1267
14384W        W33238   7.479   2.100  14.457 -0.0558 -0.2659 -0.3753
14385W        W33239  16.667   2.086   3.854 -0.1992  0.0283  0.1678
14386W        W33240  15.748  13.609   3.453 -0.0384 -0.0609 -0.3124
14387W        W33241  15.129   0.052  15.670  0.1126 -0.0346  0.0497
14388W        W33242   0.561   8.208   6.149 -0.3155  0.3244  0.1933
14389W        W33243  12.883  15.650  12.983 -0.0160 -0.0394 -0.0100
14390W        W33244   5.494   8.623   3.184 -0.0291 -0.1136 -0.2037
14391W        W33245  10.977   6.826   4.268  0.1212 -0.0924  0.1129
14392W        W33246   2.367   7.165  13.274  0.1554 -0.0766  0.1742
14393W        W33247   7.051  14.325   0.391 -0.1684 -0.1738  0.0409
14394W        W33248   2.499   8.897   3.547 -0.0436  0.6004  0.1055
14395W        W33249  13.101   1.912  12.418  0.1259  0.1554  0.1777
14396W        W33250  16.086   5.340  16.556 -0.0005  0.0932 -0.1555
14397W        W33251   4.470   6.388   1.517  0.4058  0.1314  0.0608
14398W        W33252   7.908   6.578  16.295 -0.2031 -0.2384  0.1034
14399W        W33253   7.900  13.173   2.965  0.0199 -0.0821  0.2384
14400W        W33254   4.143  16.438  15.287  0.2582  0.1070 -0.1473
14401W        W33255   2.296   8.493  15.259  0.1103  0.0098  0.1647
14402W        W33256   7.342   7.242   5.232  0.0712  0.0339  0.0094
14403W        W33257   1.134   0.585  12.511  0.1072 -0.0850  0.0652
14404W        W33258   9.425   9.824   4.101  0.1098  0.3622  0.1158
14405W        W33259   0.834  15.870  12.888 -0.0579 -0.1532 -0.0351
14406W        W33260  17.222  11.939   4.244 -0.1766 -0.2184 -0.3183
14407W        W33261   7.638  11.548   5.230 -0.0099  0.1228 -0.2229
14408W        W33262   2.111  10.880  14.647 -0.0857 -0.0864  0.1110
14409W        W33263   2.316   4.349   2.489  0.0565  0.2291  0.2055
14410W        W33264  11.255  13.152  13.555 -0.4470  0.0127 -0.0017
14411W        W33265  16.769  11.037   1.555  0.0176 -0.0437 -0.0693
14412W        W33266   5.783   1.456  14.757 -0.2114 -0.1939 -0.1590
14413W        W33267   1.818  17.132   4.154  0.1225 -0.1331  0.1310
14414W        W33268   2.859  16.809  16.927  0.1139  0.0770  0.0564
14415W        W33269  15.433   2.376   4.836  0.0015 -0.0873 -0.2095
14416W        W33270   4.904   5.207  14.074  0.1284  0.0315 -0.1437
14417W        W33271  15.704   8.655  13.638  0.2289  0.2415 -0.0821
14418W        W33272  15.540  11.546  12.065  0.1913  0.1373 -0.0461
14419W        W33273  15.947  12.093  13.655 -0.2276  0.0304  0.1099
14420W        W33274  16.365  13.827  17.179  0.4481  0.1573 -0.3119
14421W        W33275  10.583   8.738   1.632 -0.1108  0.0190  0.0975
14422W        W33276  16.497   2.312   3.333 -0.1732  0.5104 -0.1843
14423W        W33277   4.476   0.873  17.083 -0.3383 -0.1166 -0.1050
14424W        W33278   1.093   1.885  14.384  0.3216 -0.0951  0.0812
14425W        W33279  11.797   3.066   5.130  0.2402 -0.1115 -0.0170
14426W        W33280   1.913   2.567  11.963 -0.0930 -0.0760 -0.1110
14427W        W33281   5.889   5.720  13.612 -0.1294 -0.1298  0.2219
14428W        W33282  15.611  14.182   3.563  0.1101  0.2868  0.0906
14429W        W33283   5.069  11.847  14.475 -0.3480 -0.0763  0.2372
14430W        W33284  10.174  10.656   3.309  0.1524  0.1866 -0.0192
14431W        W33285   4.523   5.015  15.224  0.1708  0.2374 -0.0994
14432W        W33286   1.908   8.287  16.407 -0.1608  0.0259 -0.1901
14433W        W33287   4.639   5.024  17.414  0.1041  0.2513 -0.1432
14434W        W33288   6.723   8.883  13.892 -0.0962  0.1069  0.1573
14435W        W33289   2.627   5.612   2.940 -0.1889  0.2447 -0.0672
14436W        W33290   6.651   1.922   5.549 -0.1689  0.3408 -0.1632
14437W        W33291   3.993  10.785   0.451 -0.1741 -0.1118  0.1806
14438W        W33292  12.109   6.563   3.260  0.0401 -0.2624 -0.1143
14439W        W33293   7.213  12.974   3.524  0.0250 -0.0177  0.3084
14440W        W33294  17.187   4.316   3.115 -0.3197  0.0655 -0.2198
14441W        W33295  16.394  15.859  14.188  0.1325 -0.3419  0.2002
14442W        W33296  15.774  16.807  16.896  0.1174  0.1537 -0.1241
14443W        W33297  11.727  16.482   0.273  0.0494 -0.1710 -0.0483
14444W        W33298  11.636  13.558   0.864 -0.2055 -0.1608  0.1875
14445W        W33299  10.113   2.203  13.390  0.1966 -0.0931 -0.1536
14446W        W33300   4.873   9.102  16.202  0.0100  0.0893  0.2583
14447W        W33301  13.500  15.950  12.167  0.2596 -0.1535  0.0696
14448W        W33302   7.992   0.088   3.762  0.0994 -0.0297  0.2059
14449W        W33303   6.161   2.793  16.159  0.4591  0.2909 -0.0548
14450W        W33304  15.114   0.845   3.901 -0.1916  0.4061  0.0664
14451W        W33305  14.887   4.308  17.305 -0.0202  0.3492 -0.0506
14452W        W33306  12.024  13.138   4.031 -0.0954  0.1016 -0.1405
14453W        W33307   7.577  10.948  16.404 -0.1191  0.2013 -0.1020
14454W        W33308   0.178  11.557   0.097  0.1986  0.1872  0.0777
14455W        W33309   5.405  13.277   1.010  0.1452 -0.1641 -0.1521
14456W        W33310  13.634   9.641   4.828 -0.1187  0.1320  0.1203
14457W        W33311  15.511   4.123  13.673 -0.1840  0.4142 -0.0117
14458W        W33312  12.470   0.372  13.399  0.3011  0.2410 -0.1829
14459W        W33313  11.051  16.391   2.822  0.2049  0.0407  0.0214
14460W        W33314  13.263   8.530   3.041  0.1145 -0.0195  0.2011
14461W        W33315   7.382   4.974  15.587 -0.0777 -0.0675 -0.1198
14462W        W33316  12.904   5.408   2.728 -0.0871  0.0702  0.1381
14463W        W33317   9.506   3.188  15.287 -0.1280  0.0307 -0.1196
14464W        W33318   5.454   9.240  12.012 -0.0401 -0.2534  0.0744
14465W        W33319  12.516  15.131  14.276  0.2391 -0.1381  0.1299
14466W        W33320   0.044   4.664   1.165  0.0374 -0.2153  0.1955
14467W        W33321   5.519   0.190   4.197  0.0650  0.2792  0.1993
14468W        W33322   6.885  10.898  15.235  0.0034 -0.1460  0.0736
14469W        W33323   4.648   7.267   3.444 -0.0271  0.0937  0.0485
14470W        W33324  15.021   1.861   4.141 -0.0504 -0.0010 -0.0616
14471W        W33325  15.425  13.225  15.453  0.3091  0.1104 -0.0955
14472W        W33326   0.380   9.781  16.564 -0.0152 -0.3478  0.0405
14473W        W33327   1.471  14.609   3.304  0.1960  0.3634  0.0207
14474W        W33328   7.989   6.388  11.862  0.0537 -0.0716 -0.0791
14475W        W33329  15.886   1.825   0.515  0.1235  0.0200 -0.3942
14476W        W33330  14.319  13.079  14.316 -0.3463  0.0015 -0.1589
14477W        W33331  14.866  16.129   1.744 -0.0190  0.0517 -0.4287
14478W        W33332  13.501  10.812   3.639  0.0976  0.0962 -0.2248
14479W        W33333   0.469   0.129  14.266 -0.3055 -0.0545  0.1288
14480W        W33334   8.286   1.062  12.624 -0.2371 -0.2055 -0.0558
14481W        W33335   7.651  13.144  16.267 -0.1514 -0.1074  0.1123
14482W        W33336  13.502   2.718  16.998 -0.1901 -0.0155 -0.1622
14483W        W33337  11.144   5.003  17.293 -0.0234 -0.1427  0.1240
14484W        W33338  11.343  12.107  13.628 -0.0367  0.0448 -0.0459
14485W        W33339   8.612   7.020   1.348 -0.0343 -0.0506 -0.1004
14486W        W33340   4.241   8.573  17.139 -0.0992 -0.2272 -0.1888
14487W        W33341  12.366   2.142   2.206 -0.0645  0.0433  0.0965
14488W        W33342   9.503  13.792  16.881 -0.0127  0.1064 -0.1034
14489W        W33343  15.255  11.683   4.757  0.0049  0.1983 -0.0470
14490W        W33344   4.154   1.314  17.376 -0.1367  0.3524 -0.0609
14491W        W33345  11.511   8.553   0.373 -0.0907 -0.0329 -0.1233
14492W        W33346  15.861  14.909   0.233  0.0698  0.0179  0.3940
14493W        W33347   5.329   0.342   0.355 -0.0497 -0.0533  0.1705
14494W        W33348  17.299   3.942   4.784  0.0443 -0.5119  0.1367
14495W        W33349   7.736  16.724  15.087 -0.0246  0.1791  0.0809
14496W        W33350   2.458  13.934   3.189 -0.1490  0.0310  0.2091
14497W        W33351   6.008   3.952   5.217  0.1220 -0.0496 -0.0151
14498W        W33352   7.204   6.139  16.588 -0.1811 -0.0807 -0.0009
14499W        W33353   3.892   3.645   1.183 -0.0686 -0.2230 -0.0791
14500W        W33354   1.779   8.151   0.708 -0.0350  0.3018 -0.0245
14501W        W33355   8.151  11.196   0.401  0.0511 -0.1048 -0.4231
14502W        W33356   8.437   0.452   4.657 -0.1398  0.0299 -0.0803
14503W        W33357   6.746   4.803  13.800 -0.2654 -0.2293  0.4418
14504W        W33358   8.934   7.966  12.479 -0.3566  0.0901 -0.2303
14505W        W33359   4.110   5.569   4.181 -0.0856  0.1035  0.0783
14506W        W33360   0.123   3.750  14.894  0.1524  0.1224 -0.1651
14507W        W33361   8.157   5.558   2.428  0.0045  0.1518 -0.1632
14508W        W33362  12.142   9.930  16.686 -0.0501  0.1021  0.1641
14509W        W33363   0.507   3.041  14.862  0.3496 -0.3508 -0.1458
14510W        W33364   0.434   2.067  14.895 -0.0096 -0.2197 -0.1733
14511W        W33365   0.181  14.396  15.444  0.1570 -0.1371 -0.2231
14512W        W33366  10.866  14.638  17.149  0.0636  0.3220  0.0720
14513W        W33367  11.872   7.340   2.159 -0.4424 -0.0444  0.1773
14514W        W33368   1.443   6.899   2.359 -0.3430 -0.0852  0.1630
14515W        W33369   9.899   2.887   2.423  0.2196  0.0398  0.1740
14516W        W33370  11.049  10.780   0.141 -0.2639 -0.3196 -0.3777
14517W        W33371  10.162   6.073   4.131  0.0179  0.0301  0.0548
14518W        W33372  16.470   4.553  16.634  0.0516 -0.1642 -0.3042
14519W        W33373  13.157  14.123   0.860 -0.0903 -0.0161 -0.1187
14520W        W33374  11.201   5.578   0.538  0.3233 -0.2966  0.1746
14521W        W33375   8.888   8.689  14.740 -0.1612  0.2554  0.3326
14522W        W33376  16.416  12.160   0.459  0.0880  0.0312  0.0881
14523W        W33377   1.042   0.949  17.223 -0.0246 -0.1717  0.1003
14524W        W33378   9.678   7.006   2.938 -0.0732  0.4399  0.1483
14525W        W33379  15.754  13.976   4.435 -0.0166 -0.0326  0.2221
14526W        W33380  16.466   2.919  15.203 -0.1683 -0.1538  0.0186
14527W        W33381   0.780   5.110  15.985 -0.1272 -0.4110 -0.2053
14528W        W33382   6.681   3.290   0.180  0.1403  0.1152 -0.1780
14529W        W33383   7.842   5.752   0.293 -0.0108  0.0287 -0.1742
14530W        W33384   5.307  13.059   5.468 -0.0974  0.0410  0.0797
14531W        W33385   6.817  14.004   0.011 -0.2153  0.1815 -0.1245
14532W        W33386  11.359  10.489  17.258  0.0957 -0.2457 -0.1826
14533W        W33387  11.472   8.048   2.380 -0.1037 -0.0953 -0.0094
14534W        W33388   0.576  13.655  13.171 -0.2331 -0.1138  0.2440
14535W        W33389  15.347  14.130   1.224  0.1450 -0.3052 -0.0075
14536W        W33390  15.653   7.887  17.357  0.1767  0.0983 -0.1927
14537W        W33391   4.705   9.224   1.232  0.0094  0.0842  0.0542
14538W        W33392   6.022  14.740  13.839  0.1592 -0.0958  0.2673
14539W        W33393   3.597   1.825  13.182  0.0056  0.1530  0.0117
14540W        W33394  16.570   8.389   2.794  0.0527 -0.0156  0.3362
14541W        W33395   9.837   9.436   3.903  0.1076  0.0598  0.1241
14542W        W33396   6.515   7.995  14.872  0.3175 -0.0888 -0.0504
14543W        W33397  16.958   0.434  15.924 -0.3458  0.1107  0.2379
14544W        W33398   2.286   0.280  13.193 -0.0698 -0.0052 -0.0166
14545W        W33399  15.732   2.916   2.394 -0.0923  0.1578 -0.1339
14546W        W33400  11.530   5.617  16.992  0.2059 -0.1243 -0.2275
14547W        W33401   6.900   7.094   5.088  0.1344  0.2692  0.2228
14548W        W33402  17.208   9.438  16.141  0.0872 -0.2582 -0.0592
14549W        W33403  13.718  13.560   0.230 -0.2403 -0.2024 -0.0975
14550W        W33404   6.248   8.752   1.260 -0.0749 -0.0972 -0.0879
14551W        W33405   0.840  12.503   0.822  0.1145 -0.0251 -0.0849
14552W        W33406  15.291  13.764  13.464  0.0114  0.0744  0.2704
14553W        W33407  12.344   4.228  17.333  0.1502 -0.4350 -0.0280
14554W        W33408   5.189   5.555  12.438  0.2850  0.0281 -0.0913
14555W        W33409   5.964   4.904   3.223  0.0137 -0.0078  0.3583
14556W        W33410   6.428   9.746  14.748 -0.1554 -0.1075  0.0010
14557W        W33411   8.840  14.281  12.377  0.0275  0.1676  0.0439
14558W        W33412  11.461   1.878  16.428  0.0551  0.3611  0.1369
14559W        W33413  16.849   3.450  12.851 -0.0760  0.2733 -0.0154
14560W        W33414   4.596   5.046  16.854  0.0662 -0.0243 -0.2167
14561W        W33415  11.632   3.081  13.468 -0.2264  0.4403  0.0546
14562W        W33416   8.558  10.941  13.570  0.0456 -0.2594 -0.0071
14563W        W33417  10.112   8.181  14.774  0.0080 -0.4230  0.2284
14564W        W33418  15.712   8.898  14.426 -0.3023  0.1845  0.0366
14565W        W33419   6.681  16.469   0.492 -0.0388  0.3596  0.0621
14566W        W33420   5.428  11.587  12.899  0.0948 -0.0177  0.2032
14567W        W33421   3.898   1.128  12.617  0.2614  0.2336 -0.4323
14568W        W33422   0.213  17.010  15.549 -0.1538 -0.2960 -0.0999
14569W        W33423   3.889   5.689   3.059 -0.0626 -0.0309 -0.1900
14570W        W33424   1.279   8.494   1.524  0.1059 -0.2862  0.2434
14571W        W33425   4.095  17.306  15.266 -0.1383  0.0990  0.1099
14572W        W33426  12.143   6.085  15.649  0.2139  0.1368 -0.1043
14573W        W33427   8.916   9.963  13.540  0.1751  0.2169  0.1049
14574W        W33428   6.509  16.526   4.221 -0.1658 -0.1621 -0.4076
14575W        W33429   1.585  14.812  17.114  0.1160  0.0170  0.1785
14576W        W33430   9.854   1.248   3.559 -0.1738  0.2748 -0.1893
14577W        W33431   0.292  15.025   4.681 -0.1174 -0.0153 -0.0710
14578W        W33432  15.121  11.454   1.458 -0.1035  0.1851 -0.4143
14579W        W33433  15.433   3.962  12.523 -0.2827  0.1858  0.0992
14580W        W33434  16.050   1.306   0.983 -0.2485  0.3828  0.0797
14581W        W33435   4.726   1.913   2.124 -0.1069  0.1943 -0.3431
14582W        W33436   0.776   2.121  13.797 -0.1213  0.2335  0.0255
14583W        W33437   1.380  11.945  13.570 -0.0554 -0.1214 -0.0053
14584W        W33438  11.805   6.507   0.032  0.0612 -0.3391 -0.2227
14585W        W33439  11.229  10.547  14.440  0.0951 -0.0118  0.1576
14586W        W33440   7.480  14.819   5.178 -0.1360  0.2181 -0.3889
14587W        W33441   6.533   9.277   3.600  0.2087 -0.0577 -0.1090
14588W        W33442   2.743   9.688  15.508  0.1533  0.2387  0.1086
14589W        W33443   2.078  16.547  16.510 -0.1618 -0.1357  0.0901
14590W        W33444   3.162   8.083  15.080 -0.2693 -0.1976  0.0089
14591W        W33445   0.532  16.889   1.982 -0.2236  0.0362 -0.3095
14592W        W33446   2.819   3.976  16.808  0.2834  0.1178  0.0903
14593W        W33447  14.636   8.267  14.983  0.0161  0.0364  0.0259
14594W        W33448  16.239   3.537   5.055  0.0103  0.0448 -0.1493
14595W        W33449  12.382  13.371  14.713  0.0090  0.1840  0.0012
14596W        W33450  10.868  16.081   4.071 -0.0996  0.1395  0.0114
14597W        W33451  16.473  13.258  12.748 -0.0650  0.1218  0.3037
14598W        W33452   5.812   9.545   1.548  0.0998  0.4425  0.0437
14599W        W33453   3.493   8.755  16.801  0.0524 -0.1738  0.0473
14600W        W33454   6.557   7.375   4.783 -0.1825  0.1456 -0.1033
14601W        W33455   6.548   3.558   5.955  0.0037 -0.1665 -0.0757
14602W        W33456  11.005   0.239  11.815 -0.1100  0.0220  0.0035
14603W        W33457   2.743   0.330   0.478  0.0286 -0.0213  0.2648
14604W        W33458   9.729   4.144   0.964  0.1600 -0.2718  0.0887
14605W        W33459  12.291  17.085   2.562  0.1551 -0.2197 -0.0606
14606W        W33460   3.253   8.030   1.163  0.1034  0.2222  0.1590
14607W        W33461  14.058  13.189  17.367  0.0421  0.1986  0.2340
14608W        W33462  12.603   5.771   2.874 -0.0780  0.0374  0.0782
14609W        W33463   6.251   3.130  15.326  0.3973 -0.2598 -0.0397
14610W        W33464  11.464   7.989  14.324  0.0032 -0.0346  0.1439
14611W        W33465   6.852   2.945  15.894  0.2180 -0.1618  0.0013
14612W        W33466   3.787   1.720  16.080  0.0621 -0.0980 -0.1054
14613W        W33467   7.566   8.940  13.302  0.4016  0.0317 -0.0115
14614W        W33468   4.608   8.515  12.223  0.2371 -0.0644 -0.0215
14615W        W33469  11.734   4.125   2.919 -0.1084 -0.0183  0.1519
14616W        W33470   5.355   2.351   1.229 -0.3147  0.1086 -0.0938
14617W        W33471   0.868  12.494  14.665  0.0521 -0.3965  0.2786
14618W        W33472   8.732   8.895   0.691  0.1104 -0.2493 -0.1699
14619W        W33473  12.361  13.041  13.134  0.0297  0.2688  0.3008
14620W        W33474  12.299   0.587   4.698  0.1603 -0.1007 -0.0077
14621W        W33475   3.124  10.684  12.341  0.4359 -0.2236 -0.1631
14622W        W33476   9.336  15.567   4.449 -0.0137 -0.3316  0.0139
14623W        W33477   4.046  13.025   4.149  0.2971  0.0361  0.3331
14624W        W33478  11.530   3.822  14.749 -0.0783 -0.1199  0.1152
14625W        W33479   7.545   0.076  13.126 -0.0445 -0.0051 -0.1479
14626W        W33480  14.752  16.552   5.410 -0.3208 -0.0581  0.0597
14627W        W33481  13.882   1.109  13.493  0.0301  0.1930 -0.0064
14628W        W33482  11.959  15.166   0.749  0.1109 -0.1834 -0.0289
14629W        W33483   0.252   0.323   2.435  0.0613 -0.1474 -0.0999
14630W        W33484  14.159  14.989  15.007 -0.0163 -0.0827 -0.1989
14631W        W33485  13.203   5.413   4.655  0.1640 -0.0006 -0.3524
14632W        W33486  14.702  14.814   1.359  0.2472  0.0117 -0.1474
14633W        W33487   2.137   2.402   2.386  0.0003  0.0812 -0.1169
14634W        W33488   2.951   2.365  14.178  0.0535  0.0981  0.0669
14635W        W33489   1.513   0.505  13.257 -0.0551 -0.2752 -0.0711
14636W        W33490  16.304   5.142  12.930 -0.0326 -0.0107 -0.2133
14637W        W33491  13.109   2.298  13.130  0.0484 -0.1154 -0.0245
14638W        W33492  13.725   7.432  15.617 -0.1783 -0.0864 -0.3103
14639W        W33493   1.349   8.519   2.771  0.0278  0.0636 -0.1136
14640W        W33494  15.874  16.881  14.841 -0.0500 -0.0258 -0.1639
14641W        W33495   3.144  15.450  14.144  0.1101 -0.1030  0.1104
14642W        W33496   9.424  16.869   4.236  0.0228 -0.0090 -0.0659
14643W        W33497   0.504  13.392  16.123 -0.1570  0.3005  0.0153
14644W        W33498  11.325  13.521   1.789 -0.2587 -0.0716 -0.0558
14645W        W33499   1.942   5.363  15.808 -0.2757 -0.0249  0.0091
14646W        W33500  11.918  10.396   5.388 -0.0777 -0.0012  0.2377
14647W        W33501  11.679   5.922   5.310  0.2001 -0.0635 -0.0710
14648W        W33502  10.514  15.094  16.402  0.0898 -0.0183  0.0794
14649W        W33503   0.077   5.108  13.830  0.0954  0.0149 -0.1887
14650W        W33504  13.164  11.389  16.784  0.0517 -0.1762  0.0608
14651W        W33505   0.833  13.330   4.166 -0.1387 -0.3478 -0.0959
14652W        W33506  11.281  14.498  14.762  0.3790  0.1791 -0.2626
14653W        W33507   7.109   2.156  13.488 -0.1368 -0.1104 -0.1446
14654W        W33508   9.342  14.768  14.340  0.2822  0.0232  0.4522
14655W        W33509   2.039  13.024  12.825  0.0154  0.0058  0.2282
14656W        W33510  15.612  16.424  12.296  0.2874  0.0645  0.0211
14657W        W33511   1.194   6.879  15.698 -0.2408  0.3081 -0.1451
14658W        W33512   2.686  14.215   2.726 -0.1753  0.3571  0.1028
14659W        W33513  15.610  14.770   1.580  0.2300 -0.1260 -0.1114
14660W        W33514   7.235  17.309   4.491 -0.2488  0.1377 -0.1472
14661W        W33515  13.896  15.645   2.783  0.2598 -0.2752  0.2914
14662W        W33516  10.392   2.805   0.609  0.0517 -0.0628  0.0611
14663W        W33517   0.311   9.802   1.740 -0.0743 -0.2692  0.1623
14664W        W33518   4.269   5.261  17.160 -0.2174  0.1946 -0.2872
14665W        W33519   8.879   2.694  13.802 -0.2977  0.3236 -0.2818
14666W        W33520  16.508  15.190   3.559 -0.0128 -0.1335  0.1431
14667W        W33521  14.863   5.145  12.217 -0.0785 -0.0400  0.2462
14668W        W33522   0.799  16.106  15.367  0.0845 -0.1107  0.1461
14669W        W33523  14.230   4.689   0.114  0.1062 -0.3374 -0.1705
14670W        W33524  13.749  10.682   2.956  0.1312 -0.1370  0.2846
14671W        W33525   7.166  11.827  12.960 -0.3317 -0.2638  0.2842
14672W        W33526  12.107  11.299  14.131 -0.0085  0.0083  0.0682
14673W        W33527  16.310  12.597  13.275  0.2266  0.0785 -0.1445
14674W        W33528   4.666   0.778  15.650  0.1696 -0.0644 -0.3246
14675W        W33529   3.999  12.795   0.348 -0.0046  0.2848 -0.0791
14676W        W33530  11.456  12.539  16.232  0.0194 -0.0027 -0.0026
14677W        W33531   5.291  14.104   4.764  0.0899  0.1285  0.4067
14678W        W33532  11.707  16.434   1.667 -0.2803 -0.1388 -0.0349
14679W        W33533  11.109   7.604   2.355 -0.1069  0.0364  0.0648
14680W        W33534   4.056  14.892  16.422  0.1310 -0.0561 -0.1948
14681W        W33535  16.371   6.648  13.920 -0.0822  0.0957 -0.0374
14682W        W33536   8.814  17.045   0.368 -0.1969 -0.0316 -0.1827
14683W        W33537   2.490   4.582   1.688 -0.0402  0.1086  0.0088
14684W        W33538  14.000  17.232  16.617 -0.4115  0.0305  0.2424
14685W        W33539  11.848  13.272   4.791  0.2355  0.2713  0.2288
14686W        W33540   7.288  13.957   0.088 -0.0989 -0.3449  0.1864
14687W        W33541  15.037  16.236   4.182 -0.0348  0.1050 -0.1397
14688W        W33542  13.074   7.579  14.014  0.2832  0.0399 -0.1922
14689W        W33543  14.207   8.153   2.130 -0.0842  0.3722  0.1777
14690W        W33544  11.108  13.726  16.122  0.0618  0.2648  0.2128
14691W        W33545   0.744   8.491   3.379  0.1476 -0.3366  0.3087
14692W        W33546   1.875   7.981   2.425 -0.1641  0.1605  0.0768
14693W        W33547   7.237   8.214  14.107 -0.0363 -0.1749 -0.0992
14694W        W33548   7.018  13.956  13.929  0.1206  0.1219 -0.3694
14695W        W33549  12.378  15.462  13.826 -0.0137 -0.0867  0.1901
14696W        W33550  11.179  14.577   3.438 -0.1149 -0.0339  0.2699
14697W        W33551  10.518   1.505   3.852  0.0459  0.1639 -0.1984
14698W        W33552   7.686   3.348  14.978  0.3867 -0.3407 -0.1120
14699W        W33553   2.179   6.808   0.103  0.1732  0.0268  0.2207
14700W        W33554   7.419   0.470  13.564 -0.0760  0.0615 -0.0252
14701W        W33555  13.988  11.209   1.492  0.3960 -0.1669  0.3449
14702W        W33556   0.421   2.606  15.772 -0.1226 -0.0060 -0.3681
14703W        W33557   4.880   0.620   5.980 -0.0035  0.1362  0.0407
14704W        W33558   1.124   8.754   3.308  0.0696 -0.1474  0.1370
14705W        W33559  10.086   4.380   3.516 -0.2117  0.1080 -0.0884
14706W        W33560   6.828   3.267   1.684 -0.1043  0.0642 -0.2511
14707W        W33561  17.248  13.304  14.002  0.0214  0.4112  0.1527
14708W        W33562   4.614  12.428  15.460  0.0547 -0.1886  0.2163
14709W        W33563  11.292  12.792  13.199  0.0403  0.0908  0.2225
14710W        W33564   0.279   7.165  14.634 -0.3044 -0.3380  0.1014
14711W        W33565   6.881   1.609   1.217  0.0236  0.1220 -0.0490
14712W        W33566   9.058   2.810   1.872  0.3525 -0.0564 -0.1504
14713W        W33567  16.261  12.322   4.892 -0.0430 -0.2681  0.1540
14714W        W33568  16.984  14.190  14.473 -0.0668  0.4011  0.0924
14715W        W33569   9.745  10.690   2.528  0.0890 -0.1276  0.0207
14716W        W33570  13.078   1.356  17.060  0.1850 -0.0380 -0.0649
14717W        W33571   8.606  16.933  12.510  0.2086  0.0486 -0.0508
14718W        W33572  14.035   7.527  14.063 -0.1370  0.0458  0.1416
14719W        W33573   2.484  10.754   0.822 -0.1248  0.0905  0.1499
14720W        W33574  14.885  12.552  16.104  0.1734 -0.1178  0.0960
14721W        W33575   8.133   8.189  16.855 -0.1875 -0.1385  0.1012
14722W        W33576  11.012   3.987  17.368 -0.1238 -0.2370 -0.1381
14723W        W33577   4.173  13.352   5.219 -0.2454 -0.1120 -0.2808
14724W        W33578  11.266   7.178   5.099  0.0439 -0.2485  0.1419
14725W        W33579   8.538  10.528  14.431  0.2058  0.2577  0.2381
14726W        W33580  11.527  13.314  14.103 -0.0326 -0.0788  0.1474
14727W        W33581  14.213  10.346  15.788 -0.0100  0.3102  0.4289
14728W        W33582  14.764   1.033   0.841 -0.0046 -0.0586  0.1737
14729W        W33583   2.872  14.696  16.758 -0.1856 -0.2935 -0.3962
14730W        W33584  16.098  12.337   0.870  0.2164 -0.0023 -0.1134
14731W        W33585  16.275  11.536   0.931  0.3355 -0.1747  0.0309
14732W        W33586  15.154   0.244  12.599  0.0057 -0.2214 -0.1321
14733W        W33587   4.836   5.529   1.325  0.2374  0.2001 -0.0165
14734W        W33588   1.826  13.099   0.795 -0.0726  0.1156  0.0135
14735W        W33589   9.183  13.260  15.955  0.2339  0.3665 -0.1794
14736W        W33590   4.033   2.596   3.282  0.0235 -0.0759  0.0720
14737W        W33591  15.569   5.809  15.335  0.1713 -0.0665 -0.0832
14738W        W33592  15.772  10.950  14.501 -0.0044  0.1863  0.1433
14739W        W33593   4.345  15.158   2.495  0.1555 -0.1014 -0.1000
14740W        W33594   4.001   5.164  16.087  0.0242 -0.0363 -0.0172
14741W        W33595  16.103   0.215  13.756 -0.1253  0.2263 -0.0417
14742W        W33596  11.722  10.665   4.928 -0.1928  0.1367  0.0683
14743W        W33597  13.108  12.730  14.829  0.0928  0.0663  0.3439
14744W        W33598   6.303   0.766   1.019 -0.2174  0.2011  0.1364
14745W        W33599  12.941   1.483   1.100  0.2071 -0.0438  0.2750
14746W        W33600   3.562  17.165   0.042  0.0146  0.1328  0.1179
14747W        W33601  16.527  10.109   3.149 -0.1833  0.2882 -0.0643
14748W        W33602  10.603   4.178  15.000 -0.2481  0.3785  0.1674
14749W        W33603  13.097   0.888   2.280  0.0507 -0.1681  0.0193
14750W        W33604  11.591   4.565   5.292  0.0171 -0.1240  0.1576
14751W        W33605   1.866  10.092  17.093  0.0177 -0.3369  0.1452
14752W        W33606   0.700   5.051   3.796  0.0135  0.1173 -0.1485
14753W        W33607   9.890   9.646  13.078 -0.0147  0.2767  0.2523
14754W        W33608   6.205  12.951  16.041  0.1366  0.2106 -0.2163
14755W        W33609   2.894  10.985   2.520 -0.0242 -0.1526  0.1830
14756W        W33610  12.195   8.435   2.970  0.0350 -0.1245 -0.0122
14757W        W33611   3.323  15.132  15.409  0.1357 -0.0248  0.1170
14758W        W33612  10.835   2.937   0.253 -0.2340  0.1789  0.0362
14759W        W33613  14.732  14.244   2.719  0.1138 -0.0364  0.2045
14760W        W33614  10.919   2.587  13.587 -0.1449 -0.2888 -0.0850
14761W        W33615  10.203  13.745  16.261  0.2045 -0.3569  0.3884
14762W        W33616  13.963   6.370   3.138 -0.0068  0.0744 -0.0173
14763W        W33617  15.626   9.095  15.937 -0.0800  0.0783 -0.0860
14764W        W33618   8.258   2.164   1.129  0.1669  0.2984  0.0637
14765W        W33619  11.053   2.498   1.639 -0.0195 -0.1351  0.0658
14766W        W33620   6.356   9.827  16.279 -0.0274 -0.1946  0.0702
14767W        W33621  10.834   1.017  15.691 -0.0539  0.1133  0.1621
14768W        W33622  11.758   0.944  12.925  0.0902 -0.3049  0.0217
14769W        W33623   2.087  14.070  14.742  0.0327  0.1853 -0.0820
14770W        W33624  14.730   3.289  15.141  0.1951 -0.1225 -0.3595
14771W        W33625   3.129   8.409   4.511 -0.0045 -0.4086  0.0581
14772W        W33626   0.993   8.141  14.778 -0.0239  0.0765 -0.1552
14773W        W33627   2.845   7.312  15.128  0.0370  0.1480  0.1619
14774W        W33628  11.368   5.892   3.443  0.4040 -0.2426  0.0422
14775W        W33629  14.965  15.180  13.961  0.0743  0.0022 -0.3009
14776W        W33630   5.640   3.935  16.022 -0.1413  0.0224 -0.2218
14777W        W33631   3.620   9.758  14.267 -0.1657 -0.1055 -0.0149
14778W        W33632  12.278   0.108  17.102  0.2355 -0.0831 -0.2930
14779W        W33633  16.888  10.449   0.026 -0.2789  0.0190  0.0294
14780W        W33634  11.619   6.110  16.743 -0.1928  0.0373  0.0522
14781W        W33635  10.032   7.272  12.739 -0.0300  0.0715 -0.2072
14782W        W33636  13.655  16.212  16.503  0.1874  0.1030 -0.0327
14783W        W33637   4.477   7.998  17.223  0.0842 -0.0143  0.0748
14784W        W33638  16.438   5.929  16.059 -0.0161 -0.0990 -0.0925
14785W        W33639  15.476   3.572  15.238 -0.0621 -0.1985 -0.1593
14786W        W33640   1.858   7.710   0.506 -0.2646 -0.0517  0.1855
14787W        W33641  10.962  10.671   0.626 -0.1294 -0.0738  0.1815
14788W        W33642   9.965   4.297   3.973  0.1566  0.1250 -0.1869
14789W        W33643   2.021   3.803  16.513  0.2182 -0.1076 -0.2272
14790W        W33644   2.571   4.361  16.904  0.2372  0.0445  0.3756
14791W        W33645   2.707  13.593  15.734  0.0920 -0.0627 -0.0562
14792W        W33646  16.179  15.452  15.102 -0.1972  0.1929  0.0448
14793W        W33647  10.981   2.026   1.933  0.1562 -0.0458 -0.0376
14794W        W33648   2.483  13.960   1.856 -0.1138 -0.2205  0.0247
14795W        W33649  15.238   4.822  14.745 -0.1708 -0.1490 -0.2537
14796W        W33650  11.881   6.679  15.441  0.2990 -0.0444  0.0307
14797W        W33651  15.733  12.367   3.367  0.3131  0.0566 -0.2265
14798W        W33652   4.331  11.788  13.654 -0.3059  0.1489 -0.4494
14799W        W33653   0.675  10.433   2.479  0.0202  0.4028 -0.0899
14800W        W33654  13.457   4.598   4.035  0.2951  0.2196  0.0561
14801W        W33655   5.392  11.317  13.337  0.0058  0.1561 -0.0082
14802W        W33656  10.144   7.232  15.078  0.1603 -0.1162 -0.3703
14803W        W33657  15.516  12.192   1.235 -0.1275  0.0945 -0.0881
14804W        W33658  11.180   7.339  13.213 -0.0799 -0.0284  0.0116
14805W        W33659  16.905   1.543   0.668  0.0796 -0.0947  0.1145
14806W        W33660   7.690   5.261   5.574 -0.1519  0.1718 -0.1462
14807W        W33661   9.739   4.191   4.923  0.0989 -0.3847 -0.0662
14808W        W33662   2.174  10.179  12.753  0.0818  0.1260 -0.1202
14809W        W33663   6.816  16.079  15.933  0.1601 -0.1689 -0.2025
14810W        W33664   9.067   9.374   5.204 -0.0873  0.1200 -0.1061
14811W        W33665  14.251   1.396  15.258  0.0892  0.2930  0.1948
14812W        W33666  13.231  11.779   3.031 -0.3003  0.0917 -0.0184
14813W        W33667  14.955   1.369   1.474  0.1478  0.0046  0.1862
14814W        W33668   3.267  10.441  14.998 -0.1785 -0.0144  0.0947
14815W        W33669   9.046  15.452   3.950  0.0968  0.1178  0.0773
14816W        W33670  10.510  14.806  15.077  0.0027  0.0165  0.0306
14817W        W33671  16.440  14.692   3.178  0.4669 -0.0953  0.1022
14818W        W33672   0.890   1.525   0.962 -0.1445 -0.0231  0.1323
14819W        W33673   0.363   3.696   5.381 -0.1112 -0.0656  0.1028
14820W        W33674   3.018  16.513  15.622  0.0955 -0.3658  0.0748
14821W        W33675   5.147   3.873   4.486 -0.0213  0.1542 -0.0630
14822W        W33676   8.509   6.848   4.016  0.0448  0.1308 -0.0067
14823W        W33677   8.572   1.103  17.195  0.4703  0.0461 -0.0577
14824W        W33678   0.279   5.941  16.096  0.2360 -0.1881 -0.0431
14825W        W33679   1.853   8.874   1.572  0.2000  0.1240 -0.1391
14826W        W33680  16.952  10.040  13.691 -0.0209 -0.0484  0.0732
14827W        W33681  14.756   7.130  13.279  0.5467 -0.0394 -0.0461
14828W        W33682   7.694   1.563   3.706  0.1108 -0.1415 -0.0355
14829W        W33683   2.565   9.736   3.838  0.1436  0.0332  0.2788
14830W        W33684   7.225  10.359   2.408  0.1487  0.1158 -0.2767
14831W        W33685  12.697  16.989   5.131  0.1462  0.2964 -0.2055
14832W        W33686   3.148  15.468  13.012  0.0129  0.0935 -0.2488
14833W        W33687   2.144  16.677   3.404  0.3051 -0.0205  0.0269
14834W        W33688  10.507   6.045  17.028 -0.1773 -0.1335  0.0258
14835W        W33689   1.170   6.246  16.928  0.0592 -0.1372  0.3156
14836W        W33690  15.819   9.685  13.916 -0.1451 -0.1734 -0.2311
14837W        W33691  11.245   8.069   3.174 -0.0094  0.2166 -0.1629
14838W        W33692   5.078  12.925  14.647  0.0384  0.0548  0.3616
14839W        W33693   5.304   3.254   4.297  0.2475 -0.3222  0.0855
14840W        W33694   4.824  11.940  15.455 -0.0926  0.4411  0.1000
14841W        W33695   6.727   3.281  14.943 -0.0213  0.0681  0.0269
14842W        W33696   9.212   0.199  16.500  0.0371 -0.0260  0.0915
14843W        W33697   8.272   7.149   0.015 -0.1544 -0.1269 -0.3180
14844W        W33698  15.781  12.574  12.690 -0.1286 -0.2017 -0.1887
14845W        W33699  15.858  13.343  14.184  0.3405 -0.5093  0.0613
14846W        W33700   7.849  14.662   4.332 -0.0223  0.3042  0.0810
14847W        W33701   4.303   6.853   3.429 -0.0132 -0.1713 -0.3968
14848W        W33702  10.574   4.963  13.064  0.2008 -0.0912 -0.1273
14849W        W33703   1.109   5.955   1.877 -0.0224  0.3561 -0.4400
14850W        W33704   8.819  16.917   5.384 -0.0276  0.0711 -0.0680
14851W        W33705   8.487   9.745   4.505 -0.0492  0.1372  0.2073
14852W        W33706  17.220   7.502  16.681 -0.0792  0.0237 -0.3339
14853W        W33707  14.626  13.287  14.010 -0.0951 -0.2083  0.1659
14854W        W33708  14.981  17.162   1.947 -0.0381 -0.2336 -0.0303
14855W        W33709   9.019   6.036  13.176  0.1009  0.2394  0.0492
14856W        W33710   4.873   1.963   3.343  0.0503 -0.2784 -0.2457
14857W        W33711   4.397  14.230   2.678 -0.0653  0.2124 -0.2721
14858W        W33712   6.757   3.677   2.457 -0.2399 -0.2056 -0.0710
14859W        W33713   2.263   2.639  12.366  0.3142 -0.4948 -0.0517
14860W        W33714  14.895   2.028  17.020  0.1214 -0.1565  0.2237
14861W        W33715   7.054   4.402  16.168 -0.0226  0.0826  0.1788
14862W        W33716  10.016   7.006  14.547 -0.1371  0.4482  0.0473
14863W        W33717   8.426   8.031   1.710 -0.0028  0.1912  0.0728
14864W        W33718  15.901  10.520  11.144  0.0350 -0.1344  0.1034
14865W        W33719  13.394   4.477   3.493  0.0497 -0.2121 -0.2216
14866W        W33720  15.724  15.312  12.274 -0.0601 -0.3598 -0.1395
14867W        W33721  13.518  11.371   5.233 -0.2065 -0.0872  0.0431
14868W        W33722  11.375   1.588   0.270 -0.0947 -0.3619  0.0109
14869W        W33723   9.520   2.755  14.003  0.1502  0.0376 -0.2008
14870W        W33724   5.446   2.746   0.302 -0.0175 -0.1254  0.2744
14871W        W33725   1.039  10.650  14.145 -0.1144 -0.1830 -0.1267
14872W        W33726  10.950   3.304   3.950  0.0305 -0.1000 -0.0651
14873W        W33727   3.158   1.607  13.012 -0.1910  0.0002  0.0991
14874W        W33728   5.671  15.781  14.821  0.0672 -0.1229  0.2583
14875W        W33729  15.751  12.790  13.171 -0.0292 -0.4031  0.2335
14876W        W33730  11.656  13.800  14.182 -0.2125 -0.2498  0.0292
14877W        W33731  15.554   6.688  12.903  0.2745 -0.1820  0.2250
14878W        W33732  12.567   5.842   5.192  0.1490  0.0804  0.2273
14879W        W33733  17.115  10.769   4.981  0.1795 -0.2781  0.2623
14880W        W33734  11.631   4.784   1.173  0.1847  0.1104  0.3631
14881W        W33735  13.531  17.092   2.140  0.1008  0.0967 -0.0431
14882W        W33736  15.147   0.658  14.063 -0.2614  0.0120  0.0309
14883W        W33737   5.203   9.486  13.580 -0.1676  0.0662  0.0767
14884W        W33738   5.271  13.170   4.312  0.2391  0.2029 -0.0566
14885W        W33739   4.166   4.841   2.295 -0.3250 -0.1361 -0.2225
14886W        W33740  11.165   2.588   1.131  0.1780  0.1517  0.0879
14887W        W33741   4.909   6.844   3.285 -0.0965 -0.0209 -0.0561
14888W        W33742   6.851   7.638  15.181  0.0133 -0.3619 -0.2723
14889W        W33743  13.822  15.456   1.462  0.0856 -0.1827  0.1309
14890W        W33744  13.232  15.640  15.295 -0.3286 -0.0765  0.0804
14891W        W33745  15.012   2.114   4.640 -0.1995  0.0007 -0.1835
14892W        W33746   2.668   5.410   4.389 -0.0166 -0.2190  0.1111
14893W        W33747  10.997  16.982  13.070  0.0807  0.0452  0.1357
14894W        W33748   1.290   0.394  14.639 -0.1103 -0.1228 -0.1538
14895W        W33749  12.313   4.605   2.141 -0.2054 -0.0414  0.0538
14896W        W33750   5.196   8.122   3.927 -0.1862 -0.1909 -0.1059
14897W        W33751  12.189   3.717  14.865 -0.0104  0.2311 -0.2356
14898W        W33752  13.610   6.500   3.537 -0.1561 -0.0060  0.2511
14899W        W33753   3.757   8.390  17.106 -0.0116 -0.0235  0.2606
14900W        W33754  13.434   0.782  17.249 -0.0084 -0.0508  0.0174
14901W        W33755   0.363  16.740   1.023  0.0827 -0.0754  0.1696
14902W        W33756   4.480   7.908  14.456 -0.0698 -0.0610 -0.0455
14903W        W33757  14.449   6.460  15.582 -0.1334  0.0373 -0.1413
14904W        W33758  13.460  13.791   1.063  0.2499 -0.3583 -0.1193
14905W        W33759  12.559  16.561   4.722  0.2916 -0.0495 -0.0694
14906W        W33760  10.603  16.681   0.328  0.0909  0.1263  0.0358
14907W        W33761   0.635  16.721   3.705 -0.1434  0.1786  0.0524
14908W        W33762   1.997   1.001  13.743  0.1604  0.0074  0.3211
14909W        W33763   3.870   0.469   3.261  0.1384  0.0362 -0.1834
14910W        W33764  17.119   9.431  12.091 -0.1685 -0.3349  0.4789
14911W        W33765   4.948  12.939   0.512 -0.3587 -0.0754 -0.1439
14912W        W33766   9.568  15.854   3.287  0.0001  0.2119 -0.1590
14913W        W33767  12.754  12.477  14.529  0.1341  0.2649 -0.1629
14914W        W33768   0.986   0.543  13.396 -0.1770 -0.4445  0.2442
14915W        W33769  14.601  13.277  14.896  0.3554 -0.1595  0.2587
14916W        W33770   9.138   3.075  12.609  0.0267  0.0584  0.0564
14917W        W33771   9.800   8.225  17.038 -0.1282 -0.0806  0.3261
14918W        W33772   4.634  15.257   1.455 -0.1574  0.0047 -0.1080
14919W        W33773   7.401  14.358   3.898  0.1850  0.0364  0.0952
14920W        W33774  15.349   6.054  16.765  0.0218  0.0399 -0.3041
14921W        W33775  10.852   8.029   4.935 -0.0769 -0.2327  0.1086
14922W        W33776  10.264  10.805  14.777 -0.2024 -0.0819 -0.0520
14923W        W33777   6.980  16.860   0.067 -0.0736  0.1022  0.0298
14924W        W33778   9.737  16.826   3.816  0.0952  0.0407  0.0111
14925W        W33779   8.996  15.794   0.381 -0.1334 -0.0542  0.1768
14926W        W33780  12.136   6.993   2.905 -0.1492 -0.0193  0.2022
14927W        W33781   6.095   4.496   1.238 -0.1196 -0.1075 -0.1056
14928W        W33782   2.117   5.856  15.770  0.1384 -0.0648 -0.1090
14929W        W33783  13.138   5.220  15.681  0.1685 -0.2722  0.0177
14930W        W33784   2.836   9.265   0.745  0.1770  0.1674  0.1330
14931W        W33785  16.222  14.703  17.277  0.3124  0.0973 -0.1205
14932W        W33786   4.581  15.194  17.426 -0.2552  0.2269  0.1334
14933W        W33787  14.670   3.251  12.679 -0.0574  0.4399 -0.0942
14934W        W33788   3.061  14.992  17.150 -0.1467 -0.0500  0.0430
14935W        W33789   9.204   1.752   1.606  0.1601 -0.4102 -0.1375
14936W        W33790   5.372   7.047  16.126  0.2505  0.1161 -0.0373
14937W        W33791   2.671   0.896   2.971 -0.1417 -0.1165 -0.2038
14938W        W33792   6.758  10.890   4.416 -0.1733 -0.0915 -0.2151
14939W        W33793   9.977   4.149  12.927  0.1098  0.1975  0.1029
14940W        W33794   4.775  15.588   4.583  0.0021 -0.1819 -0.1282
14941W        W33795   8.660   9.224   2.879  0.1075  0.5812 -0.1527
14942W        W33796  14.663   4.282   5.446 -0.0110  0.0207  0.0122
14943W        W33797   7.794   7.066  16.201  0.0544  0.0109  0.1014
14944W        W33798   9.130   8.956   0.437 -0.0111  0.0587 -0.1064
14945W        W33799   9.405   3.903   1.311  0.0196  0.0098 -0.1015
14946W        W33800  12.036   5.803  12.360 -0.1852  0.0263 -0.0278
14947W        W33801  11.718   6.103   2.542  0.0542  0.1695  0.0356
14948W        W33802  15.041  14.876   2.882  0.0185  0.2504  0.0019
14949W        W33803  10.794   8.564   4.675 -0.0328  0.0335  0.0295
14950W        W33804   1.746  16.284   4.083 -0.2141 -0.3214 -0.2362
14951W        W33805  14.387  17.330   4.784  0.0299  0.0878 -0.1501
14952W        W33806  10.887  16.731  17.364  0.2502  0.1149  0.0931
14953W        W33807  12.196   3.883  13.320 -0.2869  0.1975 -0.1405
14954W        W33808   7.669  11.204  13.079  0.1606  0.0467 -0.0941
14955W        W33809  10.312   6.130  14.161  0.2253 -0.2364 -0.0363
14956W        W33810  13.566  16.753  12.725 -0.2269  0.0523 -0.0795
14957W        W33811  15.229   6.747  13.353 -0.0786  0.0737  0.0506
14958W        W33812  12.303   2.970  12.911 -0.1115  0.1104  0.1264
14959W        W33813   8.403   5.535   4.409  0.1781  0.0168 -0.0337
14960W        W33814  13.823  13.426   1.379 -0.2866  0.2729  0.1572
14961W        W33815   0.784   8.995   2.003 -0.0555 -0.0032 -0.3027
14962W        W33816   1.839  14.481   1.300  0.1152  0.1864 -0.2063
14963W        W33817   8.029   7.938   3.407  0.1084 -0.0893  0.0432
14964W        W33818  10.222   1.237   4.705  0.0912 -0.1159  0.0672
14965W        W33819  13.716   4.966   5.331  0.1514  0.1959 -0.0001
14966W        W33820   0.037   8.471  16.388  0.0767  0.0698 -0.2287
14967W        W33821  11.950   2.083   0.337  0.0062 -0.0529  0.0204
14968W        W33822  15.651   2.382  14.580 -0.1874  0.1973  0.2220
14969W        W33823   9.394  13.539  14.654 -0.0600 -0.0087  0.0339
14970W        W33824   6.168  11.061   2.319  0.1624  0.0820  0.1287
14971W        W33825   3.398   6.976  15.776 -0.0241  0.0195 -0.2671
14972W        W33826   8.409  10.046   2.856 -0.1856 -0.3065  0.0134
14973W        W33827  14.317   3.660   1.019  0.2400  0.3194  0.1385
14974W        W33828  12.800   1.652  16.669 -0.1671  0.2268 -0.0960
14975W        W33829  14.352  13.426   5.053  0.1253 -0.1565  0.0397
14976W        W33830  13.408   4.058   2.719 -0.3144 -0.1237 -0.1703
14977W        W33831  12.841  16.332   5.034  0.0539  0.1002 -0.1031
14978W        W33832  13.932  16.861  13.115 -0.1549  0.1636  0.0233
14979W        W33833   5.418   1.602   4.464 -0.1521 -0.1638 -0.0617
14980W        W33834   8.936  10.173   2.788 -0.2014  0.2190  0.0543
14981W        W33835  12.843   1.589   2.728  0.1503  0.2440  0.2178
14982W        W33836   8.607  12.342  13.478 -0.0716  0.1858 -0.0117
14983W        W33837  16.659  11.276   3.705 -0.2454  0.5115 -0.0799
14984W        W33838   4.280  10.006  15.575 -0.3067  0.0501 -0.1953
14985W        W33839  11.317  14.220   1.338 -0.1259 -0.0428  0.1427
14986W        W33840  14.857   7.430  15.050  0.0662 -0.1840 -0.0938
14987W        W33841   3.861   6.148  17.362  0.0890 -0.2878  0.1627
14988W        W33842   6.975  16.135  16.873 -0.3253  0.3751  0.1688
14989W        W33843  10.351   5.786  16.441  0.1248  0.0924 -0.0068
14990W        W33844   4.045   0.546   3.742 -0.1213  0.0654  0.3300
14991W        W33845  13.725  15.161   3.218 -0.1748 -0.3925 -0.0447
14992W        W33846   3.676   4.965   4.224 -0.0546  0.2051 -0.0895
14993W        W33847   8.048   3.620   3.480  0.0842 -0.4481  0.1960
14994W        W33848   4.396   0.048   2.067  0.1979 -0.1958 -0.0481
14995W        W33849   5.380  14.663   1.188  0.0251 -0.1849  0.1648
14996W        W33850   9.651   9.104   4.227  0.1705  0.0789 -0.2250
14997W        W33851   8.673   2.734   0.584  0.1754 -0.0821 -0.1989
14998W        W33852   8.646   1.721  15.677 -0.1074  0.1523 -0.1161
14999W        W33853   6.055  14.717  16.501  0.3879  0.2282 -0.2713
15000W        W33854   4.599  13.752   4.361 -0.3548 -0.1427  0.4005
15001W        W33855  14.583   5.930  12.274  0.4543  0.2084 -0.0855
15002W        W33856  11.138   6.056   1.589 -0.0682  0.3520  0.2284
15003W        W33857   2.793  13.144   3.159  0.0707  0.1831  0.0213
15004W        W33858  14.549   5.283  15.131 -0.0554  0.1166  0.1405
15005W        W33859   3.480  11.188  14.111  0.1470  0.1400 -0.1209
15006W        W33860   8.931  14.292   4.700 -0.2274 -0.1403 -0.0392
15007W        W33861   5.137   8.315   2.435  0.0535 -0.0031 -0.0756
15008W        W33862   2.089  10.868  16.410 -0.0053 -0.0467 -0.0468
15009W        W33863  15.653  14.813  16.179 -0.1460 -0.1729  0.5305
15010W        W33864   8.450  17.182  12.065 -0.1204  0.3304 -0.1010
15011W        W33865  14.381  14.467  16.158  0.0758  0.1424 -0.1673
15012W        W33866  11.391  14.994  16.421 -0.2525  0.2282 -0.3676
15013W        W33867  13.113   2.559  16.026 -0.0996 -0.1966  0.1053
15014W        W33868   9.889   4.401   1.333  0.1830  0.2495 -0.0658
15015W        W33869  11.926   8.731   1.596  0.1599  0.0583  0.3180
15016W        W33870  15.295  15.062   2.334  0.0312 -0.0541  0.1276
15017W        W33871   7.585  12.445  14.683 -0.1528 -0.0780  0.1801
15018W        W33872  10.624  10.084   2.623  0.1253  0.1599  0.3153
15019W        W33873  11.656   6.124   1.422  0.0721 -0.0289 -0.2442
15020W        W33874   6.040   7.397   0.450 -0.2130  0.0193 -0.1099
15021W        W33875   8.922   1.936   4.838 -0.0613  0.2588  0.4469
15022W        W33876  10.841   4.935   2.055  0.0913  0.0357  0.0355
15023W        W33877   5.456   2.793  13.279 -0.0326 -0.3979  0.2532
15024W        W33878  14.223   8.496   3.305  0.0801  0.2310  0.0164
15025W        W33879  10.629  12.575   1.084  0.0990 -0.4553  0.2033
15026W        W33880   7.732   8.716  16.357 -0.0149 -0.0855 -0.1033
15027W        W33881  11.511  17.329   4.837 -0.0969  0.0966  0.3431
15028W        W33882   5.069  13.433  14.482  0.3962  0.2134 -0.0795
15029W        W33883   6.010  14.544  15.905 -0.0397 -0.1420 -0.0790
15030W        W33884  17.164   1.761  12.900  0.1713  0.3576  0.1489
15031W        W33885   9.891   0.460   2.043 -0.1536 -0.1643 -0.0000
15032W        W33886   7.732  12.298  17.272 -0.1512 -0.0023  0.2441
15033W        W33887   9.271  11.566   4.809  0.0172  0.2029 -0.2541
15034W        W33888  15.794  15.759   1.847  0.0983 -0.0132 -0.0145
15035W        W33889  16.211   1.211   2.630  0.0602  0.1863 -0.0722
15036W        W33890  17.327   7.115  13.201 -0.1722 -0.5522  0.2176
15037W        W33891  16.153   2.126   0.215 -0.0071  0.1746 -0.0946
15038W        W33892   4.277   8.301   2.311 -0.1658  0.0685  0.1184
15039W        W33893   9.438   9.023  16.044 -0.1304 -0.2767 -0.0660
15040W        W33894   8.455   9.076  14.056  0.1553 -0.0677 -0.0248
15041W        W33895   7.869   0.284   1.971 -0.1070 -0.2048 -0.0374
15042W        W33896   1.714  10.788   0.916  0.0770  0.2021  0.4032
15043W        W33897  14.978   5.644   4.696 -0.0211  0.0640  0.1366
15044W        W33898   9.389   4.836   3.149 -0.2515 -0.0363 -0.0540
15045W        W33899   1.488   0.795  16.176 -0.0925 -0.0528  0.2322
15046W        W33900   0.397   6.494  13.921  0.2440 -0.1878  0.1867
15047W        W33901   9.234   0.271   3.353 -0.3071 -0.2185  0.1665
15048W        W33902  13.174   4.855   6.096  0.0039 -0.2889 -0.1899
15049W        W33903  17.093  10.298   1.351 -0.0646 -0.0219  0.0490
15050W        W33904   3.594   0.852   3.110 -0.1462 -0.0055  0.1262
15051W        W33905  10.678   2.962   4.179  0.2290  0.0266  0.2666
15052W        W33906  12.880   9.570   3.897 -0.0283  0.4017 -0.2315
15053W        W33907  14.479  16.196   0.997  0.0054 -0.1188  0.0156
15054W        W33908  16.795   4.358   2.776  0.0593 -0.0120 -0.0640
15055W        W33909   5.194  14.666   4.114  0.1863 -0.0171  0.0713
15056W        W33910  11.850   6.815   4.374 -0.3602  0.1242  0.0739
15057W        W33911   6.951   0.729  15.975  0.4027 -0.0657 -0.2331
15058W        W33912  16.773   8.563  17.090 -0.0451 -0.1006  0.0665
15059W        W33913  14.220   9.451   0.723 -0.1828  0.2000 -0.0604
15060W        W33914  10.157   5.772  14.996 -0.2361  0.2950 -0.1693
15061W        W33915   9.404  14.302  14.197 -0.1302 -0.1358  0.0591
15062W        W33916   7.380   8.408  15.494  0.1630 -0.3619 -0.0906
15063W        W33917   3.490   9.360  14.017 -0.1243  0.1850  0.1549
15064W        W33918   6.621  15.645   2.669  0.0451  0.3048 -0.2308
15065W        W33919  10.063   2.208  14.677  0.1338  0.1630 -0.1434
15066W        W33920   2.752   1.622   3.613  0.1600 -0.0247 -0.5307
15067W        W33921   9.803   5.287   0.993 -0.2190  0.0388 -0.0197
15068W        W33922   3.130   8.536  16.527  0.2768  0.0361 -0.5064
15069W        W33923  10.017   4.804   5.525  0.1390  0.0630 -0.2004
15070W        W33924   3.930  10.308   3.216 -0.1441  0.0264 -0.3416
15071W        W33925  12.014   2.994  12.390  0.3713  0.0709 -0.0959
15072W        W33926  17.313  10.640   3.197  0.1861 -0.2190 -0.0653
15073W        W33927  15.871   5.450   0.967 -0.2024  0.1514  0.0027
15074W        W33928  12.455   6.342   0.976 -0.1931  0.3432 -0.1857
15075W        W33929  13.391  16.012  14.934 -0.2369 -0.0096 -0.0120
15076W        W33930   7.165  12.813  16.177  0.1492  0.1388 -0.2183
15077W        W33931   7.490   1.450   1.278 -0.1103 -0.1448  0.0902
15078W        W33932  10.793   7.190   2.441 -0.0358 -0.1299  0.0857
15079W        W33933   0.195   5.134   3.808  0.1481  0.1719 -0.0604
15080W        W33934  12.378   6.818   2.084 -0.1973 -0.0456 -0.1033
15081W        W33935   8.600   3.531   1.361 -0.4491  0.0213  0.0989
15082W        W33936   3.132  16.899  17.367  0.1758  0.0116  0.0137
15083W        W33937  16.361  16.141   2.496  0.1103  0.0597 -0.1958
15084W        W33938  10.208  11.053  17.031  0.0963  0.0418 -0.1357
15085W        W33939   6.334   3.190   3.833  0.0233  0.0675 -0.1377
15086W        W33940   5.341   3.404   1.293  0.0381 -0.3368  0.1348
15087W        W33941   0.930  12.747   3.459  0.0887  0.1423  0.1583
15088W        W33942   7.893  16.894   2.305  0.3549 -0.2942 -0.1444
15089W        W33943   3.577  13.428   0.451 -0.0124 -0.0289 -0.0159
15090W        W33944   1.545   2.680  15.024  0.0894 -0.1394 -0.0441
15091W        W33945   4.960   5.278   2.101  0.2322  0.1039 -0.0268
15092W        W33946   3.525  15.198   0.290  0.1358 -0.0523  0.0823
15093W        W33947  13.920   9.835  16.299  0.1265  0.1906  0.0999
15094W        W33948  16.039   9.861   5.149 -0.0827  0.3002  0.1044
15095W        W33949   9.495  11.617   3.494 -0.1109  0.0725 -0.3110
15096W        W33950  16.932  15.952  16.774  0.0243 -0.2344  0.3835
15097W        W33951   1.896   9.364  13.643 -0.5178  0.0931 -0.3620
15098W        W33952   9.313  10.891  15.658  0.1429  0.3704 -0.0166
15099W        W33953   2.075  15.922   3.360  0.2006  0.3698 -0.0024
15100W        W33954  11.763  17.289  13.330  0.1966  0.1155 -0.2201
15101W        W33955  12.141  17.148   0.536 -0.2167  0.1138  0.0319
15102W        W33956   9.863  12.161  14.351  0.0201 -0.0037 -0.0334
15103W        W33957   2.868  13.575  15.040  0.1533 -0.0188 -0.2686
15104W        W33958   8.487  11.688  12.664 -0.4947 -0.0620 -0.4557
15105W        W33959  12.532  14.139  12.107  0.0376  0.0690 -0.1174
15106W        W33960   0.533   8.190  16.394  0.0004 -0.2196 -0.2311
15107W        W33961   7.266  17.191   1.230  0.2124 -0.1253  0.2805
15108W        W33962   0.832   0.454  14.429 -0.0357 -0.1349 -0.2271
15109W        W33963  13.184   2.219   4.352 -0.1317  0.1278 -0.1395
15110W        W33964   6.630   7.961   4.965  0.0215  0.0267  0.0751
15111W        W33965   8.282   3.038   3.803  0.0167 -0.2037  0.0391
15112W        W33966  16.511  16.479   1.770 -0.0907  0.0679 -0.0771
15113W        W33967   4.918   9.222  12.582  0.3625 -0.0642 -0.1919
15114W        W33968   5.324   3.586   0.785  0.2274 -0.3447  0.1950
15115W        W33969  11.066  12.141   0.573 -0.2638  0.0683 -0.2490
15116W        W33970   8.821   3.772   5.330  0.2187  0.1418  0.0236
15117W        W33971   5.392   0.298  16.171  0.0976  0.1561 -0.1291
15118W        W33972  14.529   0.539   0.716 -0.1140 -0.4568 -0.1098
15119W        W33973  13.303   3.615   2.546  0.2917  0.3189 -0.3539
15120W        W33974   8.538   8.421   4.945 -0.1205  0.2056 -0.2500
15121W        W33975   1.862   6.741  12.758  0.0857  0.0247 -0.2044
15122W        W33976   5.800  13.446  16.617 -0.0096  0.1744 -0.4699
15123W        W33977  13.452  14.676  14.343 -0.5417  0.1653  0.1078
15124W        W33978   3.308   0.330  13.745 -0.0832 -0.1919 -0.1513
15125W        W33979   5.883   8.908  13.825  0.1506 -0.1679 -0.0755
15126W        W33980   8.977   1.984   0.582  0.0737 -0.0025  0.2268
15127W        W33981   6.242   3.510   4.243  0.0098  0.1203 -0.2019
15128W        W33982   5.986   6.793   4.834 -0.0218  0.0104 -0.0104
15129W        W33983  13.237   8.131   4.042  0.1609  0.3753 -0.2703
15130W        W33984  17.156  12.007   1.464 -0.2412 -0.0697  0.1401
15131W        W33985   2.531  16.534  15.304 -0.1192 -0.0807  0.3760
15132W        W33986  11.854   1.028   2.705 -0.0374 -0.1117  0.0100
15133W        W33987  14.206  12.947   3.942  0.0149  0.0766  0.0829
15134W        W33988   7.659   7.985   1.184  0.1664  0.1034 -0.2408
15135W        W33989   6.916   9.031   3.799 -0.1984  0.1308  0.0847
15136W        W33990   6.209  13.730  13.061 -0.1310  0.0269 -0.0943
15137W        W33991  15.179   2.377   1.733 -0.0820 -0.0443 -0.2678
15138W        W33992   9.299   1.854  15.720  0.0150  0.1377  0.0974
15139W        W33993  12.311  11.819   0.740  0.3628 -0.2897 -0.2188
15140W        W33994  14.395   2.514  15.930 -0.2295 -0.1654  0.0134
15141W        W33995   5.903   3.966  16.508  0.0811  0.0909 -0.1536
15142W        W33996   2.467   8.402  15.733 -0.0125  0.0391  0.0754
15143W        W33997  10.495   6.987   4.118 -0.3870 -0.1818  0.0942
15144W        W33998  16.606   1.428  17.424 -0.1247  0.2227 -0.1151
15145W        W33999  15.504  15.343   3.707  0.1610 -0.2540  0.1742
15146W        W34000   9.593  10.371   3.998 -0.4290  0.2400 -0.1456
15147W        W34001   2.771  10.500   3.241 -0.1731  0.1114 -0.0597
15148W        W34002   8.897  13.029  14.708 -0.0202 -0.1887  0.3052
15149W        W34003  11.748   2.522   4.775 -0.1893  0.0176  0.2060
15150W        W34004   3.978   9.686   5.013  0.1863  0.1718 -0.1478
15151W        W34005  11.578   5.419  16.061  0.2064  0.0574  0.0774
15152W        W34006  16.254   5.838  17.094 -0.0728 -0.0305  0.1911
15153W        W34007  16.553   0.499   5.125 -0.2429  0.2122  0.0225
15154W        W34008  15.752   5.915  14.210  0.3349 -0.2294 -0.0454
15155W        W34009  14.951  12.134   2.096 -0.0310  0.1873 -0.3298
15156W        W34010   5.379   9.744  14.501  0.4289 -0.0697 -0.1202
15157W        W34011   2.956  14.254  14.274 -0.6071  0.1649  0.2253
15158W        W34012  13.042   8.118  15.228 -0.0264 -0.0662  0.4734
15159W        W34013   6.768   4.601  12.485 -0.3055  0.1035  0.0780
15160W        W34014   6.521  16.946   0.289  0.0816 -0.3618  0.1307
15161W        W34015   9.453   5.954  13.538  0.1514  0.1328 -0.0040
15162W        W34016  10.461   1.012   5.233  0.2708  0.1150  0.0938
15163W        W34017   9.803  10.942  14.780 -0.3228  0.2689  0.0516
15164W        W34018  17.213  11.314  16.966 -0.0783 -0.0573 -0.1667
15165W        W34019   5.745  16.200  15.872 -0.2699 -0.3229 -0.2374
15166W        W34020  16.947   6.747  17.194 -0.1768 -0.4488 -0.0586
15167W        W34021  16.700  16.003   0.560 -0.1948 -0.0021  0.0485
15168W        W34022   3.784  11.113   1.776 -0.2515 -0.0319 -0.0310
15169W        W34023  13.383  10.744   2.115  0.0155 -0.1686  0.1700
15170W        W34024   8.956  15.009  14.059  0.0244  0.0590 -0.1267
15171W        W34025   0.899  11.430  12.793  0.1147  0.0101  0.2724
15172W        W34026   0.935  12.181   3.527 -0.0608  0.3286 -0.1962
15173W        W34027   0.948  16.653   5.089  0.1758 -0.3773  0.2214
15174W        W34028  16.259   4.124  12.567 -0.1359  0.2136 -0.0811
15175W        W34029  15.274   5.718  13.820 -0.0165 -0.2532  0.0006
15176W        W34030  17.311   4.392   3.703  0.1090 -0.0100 -0.0610
15177W        W34031  13.331   3.989   0.456  0.2374  0.2205 -0.1557
15178W        W34032  14.416   2.980   1.808 -0.2791 -0.0841  0.2195
15179W        W34033  15.425  15.412  15.252  0.3931  0.1582 -0.2930
15180W        W34034   1.142   2.571   2.399  0.1699 -0.2045  0.1547
15181W        W34035   5.419   4.679  12.834  0.0214  0.1164  0.0663
15182W        W34036  11.174  16.576   1.941 -0.0965  0.0858 -0.2070
15183W        W34037   7.712  12.373  16.774 -0.1381  0.0009 -0.0776
15184W        W34038  11.491   9.078   4.978 -0.3728 -0.0627  0.2178
15185W        W34039   9.027   1.035  17.020 -0.1359 -0.0073 -0.1478
15186W        W34040   1.453   1.806  12.181 -0.0832 -0.1540  0.1072
15187W        W34041  12.229  16.154  15.211  0.3395 -0.0669 -0.1389
15188W        W34042   8.750   1.981   3.409  0.0036  0.0517 -0.0399
15189W        W34043  10.334   4.227  15.423 -0.1632 -0.0614 -0.0970
15190W        W34044   8.171  10.866  14.308 -0.2580  0.2011 -0.1243
15191W        W34045   1.218   3.934   4.712  0.4955 -0.2603 -0.0818
15192W        W34046  10.943  11.141   4.367 -0.1045 -0.3039 -0.1200
15193W        W34047  13.258  13.753  13.156 -0.1978  0.1984  0.0894
15194W        W34048  11.244  11.316  13.372  0.1957  0.1075 -0.0124
15195W        W34049   7.814   5.869   3.625 -0.0326 -0.0058  0.2922
15196W        W34050  12.205  13.486   0.391 -0.1137  0.0727  0.0190
15197W        W34051   4.533  10.452  13.943  0.1131  0.1682  0.1419
15198W        W34052   0.165   5.374   1.315  0.1543  0.0090 -0.0410
15199W        W34053  10.311   4.261   3.046 -0.2064 -0.2442 -0.0270
15200W        W34054  13.284   1.372  12.240  0.1440  0.0788  0.1200
15201W        W34055   9.631   2.586   5.270 -0.1552  0.1337  0.0329
15202W        W34056   6.796   2.590  13.407  0.2110 -0.1457  0.2859
15203W        W34057   4.002  10.167   5.068 -0.1592 -0.4565 -0.1213
15204W        W34058  12.923  10.581  12.485  0.2944 -0.0113  0.1692
15205W        W34059   3.161   0.071  12.737 -0.3027 -0.1734 -0.1182
15206W        W34060  15.689   0.255  12.997 -0.0267  0.2829  0.1020
15207W        W34061   0.316  11.631   4.680 -0.2529 -0.0990 -0.0637
15208W        W34062  13.046  14.849  15.222 -0.0090  0.1940  0.0229
15209W        W34063  17.013   1.745  16.237 -0.1022 -0.1726 -0.1585
15210W        W34064  12.133   9.682   3.345 -0.0861 -0.1516  0.1497
15211W        W34065   8.519  12.687  14.879  0.1307  0.1547 -0.0625
15212W        W34066  11.311   2.536   4.429  0.2706  0.2299 -0.3200
15213W        W34067  12.691  16.682   2.400 -0.1420 -0.0648 -0.0816
15214W        W34068  16.120   9.231  14.665  0.3534 -0.1944 -0.0152
15215W        W34069   4.096  14.785   2.693 -0.2612  0.0520  0.0553
15216W        W34070   0.042  11.897  12.902 -0.3207  0.0885  0.0563
15217W        W34071   7.330  10.103  17.210  0.2610 -0.0111  0.0266
15218W        W34072  11.808   0.199   2.308  0.3440  0.2194 -0.0064
15219W        W34073  14.742  17.180   0.251  0.1071 -0.3408  0.0283
15220W        W34074  16.447   1.009  12.781  0.0121  0.1119  0.1704
15221W        W34075   1.767  16.786  16.937  0.5180 -0.1349  0.2453
15222W        W34076   6.781  10.491  16.447 -0.0328 -0.1075 -0.1449
15223W        W34077   3.973   4.107   4.936 -0.1946 -0.0710 -0.1209
15224W        W34078   4.409   8.434   5.313 -0.0991  0.1427  0.1501
15225W        W34079   0.046  12.913   0.291 -0.1308  0.1297  0.0697
15226W        W34080  16.773   1.660   2.016  0.0259 -0.3980 -0.0756
15227W        W34081  17.309   7.107   0.752  0.1105  0.1160  0.1891
15228W        W34082  12.100   4.364   3.836 -0.4554 -0.1916 -0.3546
15229W        W34083  12.797  13.486  16.046  0.1036  0.0069  0.2243
15230W        W34084   0.566   3.235   0.964  0.1466 -0.2200 -0.1427
15231W        W34085   3.249   3.987   4.429 -0.2877  0.3464  0.4087
15232W        W34086  17.176   3.767   1.704  0.0617  0.1490 -0.0672
15233W        W34087   7.536   6.275  16.198 -0.1956 -0.0047  0.1095
15234W        W34088   0.255   4.772  12.398 -0.1814 -0.1044 -0.0906
15235W        W34089   3.642  14.232  13.472  0.0114 -0.2850 -0.1364
15236W        W34090  15.964   2.111  17.165 -0.0046  0.0948  0.1018
15237W        W34091  14.501   4.762  12.837  0.1443  0.3425  0.1786
15238W        W34092  10.242  14.747  16.679 -0.0086  0.3108 -0.2116
15239W        W34093  10.154   9.393   2.025  0.1890 -0.0275 -0.0564
15240W        W34094   3.303   8.086  12.728  0.0618 -0.1067 -0.0673
15241W        W34095   0.064   5.569   2.675 -0.3360  0.0615 -0.0899
15242W        W34096  14.665  14.242   4.586 -0.1013 -0.1603 -0.1150
15243W        W34097   5.696   8.557  15.890  0.0543 -0.3053  0.0115
15244W        W34098   6.281  16.419  15.239  0.1236  0.1640 -0.4426
15245W        W34099  16.126  14.286   4.583 -0.1513  0.0498 -0.1643
15246W        W34100   6.222   1.522   4.089  0.0679  0.1409 -0.1605
15247W        W34101   2.096   8.673   6.407  0.0427 -0.0903  0.2319
15248W        W34102  17.067  14.944   2.592 -0.1234 -0.1047 -0.0050
15249W        W34103   0.973   2.356   3.792  0.2179 -0.1850 -0.0081
15250W        W34104   3.258   9.220  11.235 -0.3558 -0.0158 -0.2248
15251W        W34105   1.164  13.473   4.702  0.0242 -0.0742  0.1984
15252W        W34106   0.694   7.768  16.086  0.0405  0.0506 -0.1139
15253W        W34107  10.766  14.069   4.943 -0.0619 -0.2109 -0.1453
15254W        W34108   8.373   8.347   0.356 -0.1281 -0.1723 -0.0814
15255W        W34109  14.990   4.617   2.448 -0.0065 -0.1304 -0.0601
15256W        W34110  10.826   2.391   0.004  0.3029  0.0302  0.0401
15257W        W34111   9.651   9.233   2.037  0.3590  0.0174  0.2586
15258W        W34112   9.998   9.186  17.379  0.1097  0.1456  0.1708
15259W        W34113  12.318   3.311  16.369 -0.2283  0.2476 -0.0147
15260W        W34114   9.099   5.936   4.423 -0.0151 -0.0088 -0.1976
15261W        W34115   7.678   6.335   3.753  0.2898 -0.0649 -0.1560
15262W        W34116   8.065  10.855  12.310  0.0021  0.0594 -0.2159
15263W        W34117   5.126   9.377   2.668  0.2105 -0.0101  0.2829
15264W        W34118   3.675  15.043  12.163 -0.0222 -0.2252 -0.1835
15265W        W34119   6.172  15.244  13.062  0.1372  0.2375 -0.0862
15266W        W34120   5.505   5.146   4.034  0.0929  0.1223 -0.0756
15267W        W34121  11.810  16.586  17.231  0.2446 -0.6512  0.1907
15268W        W34122   9.411   8.012   1.694 -0.0995  0.1408  0.0896
15269W        W34123   3.203  11.565  12.931  0.1734  0.3793 -0.1643
15270W        W34124  11.872   4.942  11.686  0.3554 -0.0856 -0.1883
15271W        W34125   8.748  13.662   0.850  0.1588 -0.3301 -0.3285
15272W        W34126   7.057   3.395   2.813  0.1109  0.0914  0.0062
15273W        W34127   9.716   3.298   2.191  0.0912 -0.0823  0.4417
15274W        W34128  12.854   0.062   1.516 -0.0442 -0.1630 -0.0363
15275W        W34129  11.299   5.297  15.657 -0.1842 -0.0059 -0.0029
15276W        W34130   0.018   0.438  16.218  0.0218  0.1175  0.0859
15277W        W34131  15.152  13.570   3.474 -0.0589  0.0927 -0.0765
15278W        W34132   9.105  16.993  14.328 -0.1348 -0.0156 -0.0986
15279W        W34133  11.454  11.328   1.797 -0.3358 -0.0590  0.2362
15280W        W34134  12.981   4.126   3.894  0.4116  0.1474  0.2482
15281W        W34135  15.846   4.320  12.724  0.1337 -0.0045  0.1639
15282W        W34136   5.295   9.959   4.412 -0.2999 -0.2097 -0.2825
15283W        W34137   3.630   9.000   2.789 -0.0725 -0.1541  0.1787
15284W        W34138  17.140   7.158  14.782 -0.2203  0.0288  0.0151
15285W        W34139   6.449   0.234   1.978  0.0232 -0.0585  0.2773
15286W        W34140   5.475   5.606   5.179  0.0447  0.2449 -0.0905
15287W        W34141   8.577   3.588   4.804 -0.0568 -0.2093 -0.2936
15288W        W34142  11.435   6.282   0.282 -0.0725  0.2242 -0.1998
15289W        W34143  10.478  15.753   2.710  0.2016  0.0814  0.0366
15290W        W34144   0.744  12.128   1.203  0.1499  0.4254  0.0884
15291W        W34145   5.887  15.859  16.354  0.0497 -0.1546 -0.0540
15292W        W34146  11.840  13.607  15.870 -0.0013  0.2694 -0.1743
15293W        W34147  13.718  16.164   4.295  0.1140 -0.0572  0.1854
15294W        W34148   3.030  11.867   1.017 -0.0482 -0.1236  0.1621
15295W        W34149  12.339   0.855  16.490  0.1851 -0.4142 -0.1184
15296W        W34150   5.043  11.251   4.375 -0.4119  0.1081  0.2026
15297W        W34151   7.290   6.748  14.852  0.0176  0.0969 -0.2795
15298W        W34152   3.873   3.403  15.577  0.1010  0.0690  0.2288
15299W        W34153  16.273   0.044   2.763 -0.1277 -0.0957  0.2365
15300W        W34154  15.414  16.020  14.177 -0.0524  0.2080  0.0532
15301W        W34155  16.957  12.563  15.526 -0.0129  0.0968  0.0454
15302W        W34156   2.134   4.741  14.610 -0.3095 -0.1425 -0.1108
15303W        W34157   1.189   8.994  13.192  0.2242 -0.3905  0.0929
15304W        W34158  16.236  14.955  15.339  0.1253 -0.0204  0.2824
15305W        W34159  14.827  17.163  12.692 -0.0148 -0.1458 -0.1000
15306W        W34160  11.310  10.195  16.164 -0.2598 -0.0018 -0.0359
15307W        W34161  11.893  15.030  16.578  0.0379  0.3950 -0.0265
15308W        W34162  14.350  16.912   2.423  0.1010 -0.1434 -0.2066
15309W        W34163  13.907   0.959   3.250 -0.0528 -0.1070 -0.0589
15310W        W34164   1.398  13.147   4.335  0.3126 -0.0505  0.1842
15311W        W34165   0.712   0.096  14.794 -0.1448  0.1564 -0.0657
15312W        W34166   2.184   4.024   2.093  0.1957  0.0291  0.0471
15313W        W34167   3.575   3.491   1.908 -0.0082  0.2529 -0.1440
15314W        W34168   2.015   8.833  12.927  0.1651  0.1473  0.0623
15315W        W34169   1.230  16.017  16.129  0.2455  0.1913 -0.1495
15316W        W34170  10.984   1.816  13.725  0.2117  0.1186  0.0266
15317W        W34171  14.592   7.495   3.935 -0.0747  0.1158 -0.0938
15318W        W34172   5.235   3.279  11.432 -0.1114 -0.0456 -0.1458
15319W        W34173   0.371   6.887  13.534  0.2924  0.1164 -0.0111
15320W        W34174   0.825   6.028   1.039  0.3602 -0.1311 -0.1019
15321W        W34175   6.508   4.043  13.441  0.2833 -0.0080  0.0293
15322W        W34176   4.464   6.287   4.290 -0.2198  0.3327 -0.1394
15323W        W34177  11.267  15.705   4.171 -0.3285 -0.3395  0.1407
15324W        W34178   3.459   0.776  15.123 -0.1270  0.0471 -0.0275
15325W        W34179  11.423   4.775  12.388 -0.0840 -0.4110  0.0588
15326W        W34180  14.346  14.940   0.216  0.0457 -0.0902  0.0957
15327W        W34181   6.842  13.546  16.035  0.0018  0.1787 -0.1304
15328W        W34182   1.288  15.646  17.402  0.0118  0.0252 -0.1951
15329W        W34183  15.835  13.456   4.339 -0.2137 -0.3745  0.1327
15330W        W34184   5.752   3.438  17.339 -0.0692 -0.0369 -0.0321
15331W        W34185  13.401   9.850   3.175 -0.0055 -0.0673 -0.1086
15332W        W34186  11.366  10.409   1.247 -0.2148  0.1388 -0.0626
15333W        W34187   5.338  13.854  14.603  0.3184 -0.2432  0.0708
15334W        W34188   1.423   4.984  17.076 -0.1304  0.1258  0.1105
15335W        W34189  15.530   4.796   4.038  0.0977 -0.2078  0.2015
15336W        W34190  12.283   0.199  14.699  0.2950  0.1740 -0.2737
15337W        W34191  16.952  17.185  13.909 -0.4069  0.1583  0.2005
15338W        W34192  12.480   4.876   1.352 -0.1173  0.1114  0.4230
15339W        W34193   4.470   2.286  16.348 -0.1154  0.2155  0.1962
15340W        W34194   5.421   0.498   4.564  0.1575 -0.0023  0.3198
15341W        W34195   7.285  13.371   3.181  0.1471 -0.1422 -0.0588
15342W        W34196  17.166   2.332  17.451  0.2941  0.2039 -0.0076
15343W        W34197  15.209  13.841  14.601 -0.1264  0.0184 -0.0774
15344W        W34198   1.662  14.837   0.198  0.0764 -0.1409  0.1211
15345W        W34199   1.018   0.791   2.351  0.2949 -0.0403 -0.2785
15346W        W34200   3.990  16.944  16.098  0.0453 -0.1333  0.2708
15347W        W34201  16.174   8.731   2.876 -0.4182 -0.1944 -0.0081
15348W        W34202   9.360  12.486   3.987 -0.0218  0.0085 -0.0626
15349W        W34203  14.018  12.637  13.679 -0.0100 -0.1479  0.1637
15350W        W34204   2.506  14.772   3.862  0.6023  0.0990 -0.2385
15351W        W34205   4.166  13.178   3.614 -0.2713 -0.0433 -0.0995
15352W        W34206   2.763   3.021   2.134 -0.0450 -0.2555  0.0794
15353W        W34207   1.384  11.325   4.542  0.0019  0.1017 -0.0399
15354W        W34208  11.829  16.839  15.104  0.4484 -0.0232 -0.2083
15355W        W34209   9.171  10.657   4.627 -0.0096 -0.0440 -0.0620
15356W        W34210  15.724  12.489  17.329 -0.0840 -0.1034  0.2651
15357W        W34211   7.775   8.702   2.162 -0.2011  0.2638 -0.0327
15358W        W34212  16.542   6.447   3.198  0.0588  0.0255  0.0351
15359W        W34213  12.629  14.311  16.386 -0.0720  0.2762  0.2945
15360W        W34214  12.962   0.268  13.611 -0.1405 -0.0742  0.2389
15361W        W34215   3.063   8.494  12.532  0.1548  0.0872  0.3090
15362W        W34216   4.027  13.970  16.113  0.0042 -0.2859  0.1689
15363W        W34217  14.872   9.560  13.311  0.0071  0.0475  0.3996
15364W        W34218  12.115   3.465  12.594  0.1271  0.3429  0.2314
15365W        W34219  16.123   5.307   0.570 -0.1948  0.1054 -0.0296
15366W        W34220   4.207   0.780  13.910 -0.5490  0.0955  0.0634
15367W        W34221   2.143  11.411   0.333  0.1364 -0.1300 -0.0495
15368W        W34222   4.285  15.759  16.638 -0.0214  0.1285  0.4868
15369W        W34223   5.416   2.231   5.127 -0.1937  0.0523  0.2513
15370W        W34224  12.081   2.122   5.053  0.2213 -0.0324  0.2661
15371W        W34225   6.549  11.099   1.005  0.0048 -0.2405 -0.1393
15372W        W34226   5.649   3.359   0.345  0.1158 -0.1449 -0.0437
15373W        W34227   5.245   8.601  17.307  0.1050  0.0150 -0.3312
15374W        W34228  12.973   4.520  13.607 -0.0426 -0.1780 -0.2748
15375W        W34229  17.049   9.193  14.187 -0.1899 -0.0902 -0.1745
15376W        W34230   2.192   6.841  16.152 -0.1158  0.2394 -0.1417
15377W        W34231   6.194   2.912   2.619 -0.0207  0.0152 -0.2945
15378W        W34232  16.871  14.522   4.098 -0.3450 -0.5375 -0.1681
15379W        W34233   6.302  12.146  16.686  0.0047  0.0571  0.0909
15380W        W34234   2.085   2.907   2.437  0.2531 -0.0438 -0.3074
15381W        W34235   1.973  10.653   2.712 -0.0262  0.0579 -0.1265
15382W        W34236   6.714   2.827  15.225  0.0010  0.2434 -0.1769
15383W        W34237  11.393   1.813  13.389  0.0836  0.2063  0.1758
15384W        W34238  12.007   2.497  12.890 -0.0845 -0.2738 -0.2523
15385W        W34239   8.511  15.607   0.369 -0.0783  0.2651 -0.0015
15386W        W34240   1.288   1.168  14.254  0.0691  0.0462  0.1426
15387W        W34241   1.825   7.980  16.860 -0.2365 -0.2101 -0.2204
15388W        W34242   6.386  12.268   0.149  0.0201 -0.0336 -0.2899
15389W        W34243   4.761   2.092  15.276 -0.1317  0.0935  0.0787
15390W        W34244  13.275  10.827  14.975 -0.0758  0.3207 -0.0276
15391W        W34245  14.550   2.904   1.232  0.1263 -0.1535  0.3493
15392W        W34246   6.048   9.505   4.631 -0.0701  0.1671  0.1207
15393W        W34247  15.341   2.014  14.451 -0.2090 -0.0434  0.1954
15394W        W34248  15.742  14.120  16.754  0.0486 -0.1358  0.3073
15395W        W34249   8.363   6.533  11.540  0.0436 -0.0344 -0.1825
15396W        W34250   5.557   0.474   1.428 -0.4237 -0.1618 -0.2456
15397W        W34251   1.773  15.172   2.681  0.0304 -0.1264  0.2329
15398W        W34252  14.441  12.907  15.248  0.0490 -0.0202 -0.0626
15399W        W34253   6.550  11.134  13.020  0.1461  0.0133 -0.0101
15400W        W34254   0.446  11.176   1.436 -0.0030 -0.1807  0.0816
15401W        W34255   4.333   0.533   5.142 -0.0238  0.0197  0.0171
15402W        W34256   5.935   2.925   0.057  0.3315  0.2532 -0.3337
15403W        W34257  10.114  10.019   0.825  0.3058 -0.2712  0.0986
15404W        W34258   7.064   8.429  12.367 -0.0620  0.0152 -0.0087
15405W        W34259   5.780   1.941   5.420 -0.0121 -0.1005  0.2238
15406W        W34260  16.099  13.511   2.543 -0.1435 -0.2309 -0.0132
15407W        W34261   8.579   7.364  15.503 -0.0591 -0.0967  0.3511
15408W        W34262   2.560  14.025   0.536 -0.0752  0.1816  0.1554
15409W        W34263  16.126  13.315   0.678  0.2032  0.1249  0.0338
15410W        W34264   2.719   9.339   0.260 -0.1019 -0.0744  0.1994
15411W        W34265   7.216   8.285  16.916  0.1755 -0.0019  0.1412
15412W        W34266  14.483   1.427   1.733 -0.0171 -0.1380 -0.3243
15413W        W34267   3.255   6.066   4.680 -0.0542 -0.2805  0.0352
15414W        W34268  16.183   2.425  13.809  0.0292 -0.1016 -0.2836
15415W        W34269   5.769   5.353  17.256  0.1853 -0.1281  0.2579
15416W        W34270   1.738  12.233   4.863 -0.1948  0.2583  0.2238
15417W        W34271  12.131   4.690  13.097  0.0481  0.0425  0.1729
15418W        W34272   5.150   9.177   0.478 -0.0738  0.1814 -0.0964
15419W        W34273   9.361   9.603  16.065  0.3976  0.1554  0.3082
15420W        W34274   8.249   3.771  14.322 -0.2352  0.0128 -0.1564
15421W        W34275   6.516   2.769   2.989 -0.1117 -0.0770  0.2855
15422W        W34276   2.727  15.371  17.241  0.0706 -0.1781 -0.0099
15423W        W34277  16.417   4.048   0.958 -0.1092  0.1683  0.3140
15424W        W34278   7.540   2.061  12.697  0.0792  0.0737  0.2612
15425W        W34279  16.746   3.184  13.428 -0.0339 -0.0068 -0.1829
15426W        W34280   8.691   1.376   1.103 -0.1934  0.2866  0.2892
15427W        W34281   8.372  15.748   2.136  0.0146  0.0391 -0.1019
15428W        W34282   7.122   6.957  12.654 -0.0568 -0.3384  0.0632
15429W        W34283  13.407   3.961  15.192 -0.0609  0.0368  0.0473
15430W        W34284   3.856   4.343   3.011  0.0767  0.2248  0.1349
15431W        W34285   2.200  14.864  13.211  0.2552 -0.0860 -0.0830
15432W        W34286  13.296   6.475   4.551  0.1151  0.1782 -0.0731
15433W        W34287  15.492  10.515  14.511  0.2716 -0.1683  0.1045
15434W        W34288  12.356   7.648   2.029  0.0310  0.1427 -0.0743
15435W        W34289  15.862  13.982  17.299  0.0800 -0.0350 -0.1218
15436W        W34290  13.212  13.469   0.192 -0.1253 -0.1579  0.1794
15437W        W34291   7.429  14.830   3.793 -0.0263  0.0219  0.1509
15438W        W34292  12.775  16.899   1.419  0.0172 -0.0276  0.0136
15439W        W34293  10.893  12.907  14.882 -0.0096  0.0524 -0.1464
15440W        W34294   4.230   1.658  15.972 -0.4885 -0.2088 -0.2910
15441W        W34295   1.662  10.167  12.487  0.0117 -0.1231 -0.2357
15442W        W34296   7.608   9.052  13.831  0.0972 -0.3517  0.0318
15443W        W34297   4.698   3.732  14.211  0.1326  0.0413  0.2778
15444W        W34298  14.675   3.241   0.013  0.0302 -0.2423  0.0511
15445W        W34299   3.655   5.942   1.582  0.1225 -0.1372 -0.1433
15446W        W34300   5.919  11.041   0.126 -0.2043 -0.0311  0.0729
15447W        W34301  15.374   0.121   1.810 -0.0085 -0.0159  0.1398
15448W        W34302  17.113   1.351   4.293  0.0135  0.1506 -0.1616
15449W        W34303  11.934   8.781  15.301 -0.0232 -0.0135  0.0222
15450W        W34304   6.822   9.866   5.467  0.0205  0.0423  0.4079
15451W        W34305   0.757  11.632   3.830 -0.0037  0.0278 -0.0604
15452W        W34306   0.007   1.007  17.392 -0.2460 -0.0054 -0.0603
15453W        W34307  12.914  10.487  13.332  0.2175 -0.0276  0.2891
15454W        W34308   7.584  11.889   0.639 -0.1813  0.0085  0.0234
15455W        W34309   9.534  16.769  15.028  0.1106  0.0062 -0.2194
15456W        W34310  11.780   9.534  17.460  0.1033 -0.0498  0.1040
15457W        W34311  13.304  12.136  13.856  0.0773  0.0239 -0.2340
15458W        W34312  13.325   2.813  15.038  0.1747  0.1195  0.1578
15459W        W34313   2.261   3.523  12.336 -0.0758  0.0034  0.1964
15460W        W34314   4.258  16.133  17.197  0.0654  0.0401 -0.0086
15461W        W34315  11.294  12.263  14.141 -0.0366 -0.0370 -0.2443
15462W        W34316  12.658   4.078  16.295  0.1421  0.0881  0.1593
15463W        W34317   1.758   8.951  13.401 -0.3248 -0.0653 -0.0976
15464W        W34318  14.953   8.070   0.724 -0.1610 -0.0103  0.0225
15465W        W34319   3.439   5.854   2.995  0.2202  0.1015  0.2992
15466W        W34320  10.555  14.140  14.625  0.2845 -0.0018 -0.3326
15467W        W34321   3.810   6.092   2.585 -0.1028 -0.0081  0.3478
15468W        W34322   5.176  15.252  16.419 -0.3405  0.0723 -0.0781
15469W        W34323   8.269   7.345   2.858 -0.3752  0.0054 -0.2155
15470W        W34324   5.516   1.262   1.110  0.1393 -0.0532 -0.4628
15471W        W34325   1.054   5.329  16.365  0.0578  0.1643  0.1485
15472W        W34326  13.094   2.838   0.988 -0.1911 -0.1128  0.0429
15473W        W34327   5.820  16.980   0.884 -0.0176 -0.0994 -0.1478
15474W        W34328  16.785   3.253  16.775 -0.0993  0.1535 -0.1024
15475W        W34329   1.468  16.900   5.097 -0.0620  0.2482 -0.0180
15476W        W34330  13.229   4.660   1.974  0.1594 -0.1199 -0.2715
15477W        W34331   8.091  12.280  14.033 -0.2144 -0.1542  0.1535
15478W        W34332   4.210   5.935  17.086 -0.0260  0.2029  0.1362
15479W        W34333   9.743  16.013   1.114 -0.0020 -0.2169  0.2874
15480W        W34334   8.148  11.626   3.796 -0.0308  0.0619  0.2035
15481W        W34335   3.519  10.094  16.756  0.1443  0.0065 -0.2206
15482W        W34336   9.172   3.886  14.238  0.0879 -0.2089  0.1214
15483W        W34337  14.895  13.047  16.234 -0.1120  0.0411  0.0663
15484W        W34338   1.563   0.916   3.180  0.3736  0.2638 -0.0150
15485W        W34339  16.220   8.486  17.075 -0.1446  0.1808  0.2373
15486W        W34340   1.406  12.121  12.265  0.0694 -0.0939  0.0472
15487W        W34341   6.566   5.277  14.727  0.0613 -0.0004  0.0275
15488W        W34342   0.700   6.968  15.650  0.2882 -0.0514 -0.2245
15489W        W34343   6.481  14.322  14.640  0.0645  0.2174  0.0376
15490W        W34344  10.524  12.753  14.069  0.3298  0.0053 -0.2819
15491W        W34345   0.461  12.847   0.585 -0.0709 -0.0894  0.1682
15492W        W34346  10.093   5.536   1.981 -0.0387 -0.0358  0.0980
15493W        W34347  14.079  10.669  15.389  0.1234  0.1315 -0.1452
15494W        W34348   8.163  11.737   5.389  0.1592 -0.1445 -0.4952
15495W        W34349   2.334   1.765   0.616  0.0642 -0.1232  0.0464
15496W        W34350   5.880   6.011   0.382  0.0426  0.0580  0.1569
15497W        W34351   3.942   6.460   1.621  0.0228 -0.3527  0.1048
15498W        W34352  13.283   8.962  16.291  0.1947  0.0032  0.1928
15499W        W34353  12.928   9.074  14.133 -0.1100  0.2701 -0.1035
15500W        W34354  11.031  12.443  14.991  0.0158 -0.0846 -0.2627
15501W        W34355  13.700  12.411   4.181 -0.0980  0.1905  0.1146
15502W        W34356  13.982   1.557  13.987 -0.3262 -0.2110 -0.1166
15503W        W34357  10.333  10.815   5.022  0.2120  0.0410  0.0786
15504W        W34358  16.532  13.466  16.823 -0.0531  0.1240  0.3187
15505W        W34359   5.643  15.066  12.429  0.0487 -0.0748 -0.3135
15506W        W34360   5.291   2.519  17.217  0.0614  0.0559  0.2082
15507W        W34361   0.528   5.963   0.474 -0.1131  0.0552 -0.3476
15508W        W34362   2.358   1.716   3.264  0.1660  0.4015 -0.0521
15509W        W34363   6.303   1.693   3.120 -0.0182  0.0644  0.0040
15510W        W34364   2.900   8.341  16.058  0.0495  0.0089  0.0481
15511W        W34365   5.783  10.040   1.661  0.3543  0.1003 -0.0477
15512W        W34366  12.086   9.564  15.384 -0.0442  0.0707  0.0114
15513W        W34367   6.990  13.196   3.920 -0.0332 -0.0424 -0.0325
15514W        W34368   8.477   6.000  13.692 -0.1017  0.3395 -0.3032
15515W        W34369   0.634   0.705  17.326 -0.0623 -0.2168  0.0508
15516W        W34370   9.842   2.373  16.454  0.1774  0.2280 -0.2616
15517W        W34371   3.985   8.595  16.652 -0.2026  0.2722 -0.1182
15518W        W34372   1.172   7.275  15.428 -0.1929 -0.0471  0.0190
15519W        W34373   5.395   5.602   4.182 -0.1941 -0.0275 -0.1541
15520W        W34374  10.131  15.162  14.740  0.0153 -0.0864 -0.3522
15521W        W34375   0.871  12.166  12.914 -0.0059  0.0152  0.0861
15522W        W34376  16.887  13.218   1.932 -0.3155 -0.0850  0.0269
15523W        W34377   2.124   2.468  16.853  0.0332 -0.1854  0.0480
15524W        W34378  14.389   0.814  15.472  0.1597 -0.1216 -0.1732
15525W        W34379  12.315   0.376  16.685  0.2458  0.1122  0.2564
15526W        W34380   6.644  10.466  15.550  0.0160 -0.0195  0.2940
15527W        W34381  11.479   6.923  12.938 -0.0076 -0.1023 -0.1871
15528W        W34382  15.321  14.362   0.470  0.0822 -0.2395 -0.0427
15529W        W34383   2.822   4.198  17.337 -0.0381  0.1551  0.0298
15530W        W34384  13.674  14.912   2.753  0.1365  0.1024  0.1545
15531W        W34385   3.229   4.262   2.638 -0.2236  0.0129 -0.0374
15532W        W34386   3.474  10.275   1.638  0.0882  0.0680 -0.1594
15533W        W34387  12.471   1.375  12.721  0.1093  0.0673  0.0499
15534W        W34388   8.430   8.040   5.323  0.1580 -0.2740  0.0351
15535W        W34389   5.967   8.948  13.205  0.0445  0.1040  0.1053
15536W        W34390   6.623   4.670  16.345 -0.0196 -0.2773 -0.2718
15537W        W34391   1.635  12.396  17.224 -0.1724  0.2786 -0.0694
15538W        W34392   5.061   2.119  14.779 -0.1046  0.1533  0.1247
15539W        W34393  17.324  12.242  16.391 -0.0407 -0.0503  0.0291
15540W        W34394   4.560  12.613  16.102 -0.2352  0.0975 -0.0208
15541W        W34395  10.191  14.837   0.781 -0.2297  0.3584 -0.0724
15542W        W34396   6.209   9.440   2.842  0.0348  0.2903 -0.1590
15543W        W34397   2.359   2.305   5.059 -0.0365 -0.0981 -0.2201
15544W        W34398   7.114   9.090  12.960  0.2971 -0.1503 -0.1071
15545W        W34399   5.512   5.082   0.758 -0.0016 -0.0037  0.0708
15546W        W34400  15.530   8.624  16.101 -0.0241  0.1013  0.0884
15547W        W34401   1.253  13.879  16.580 -0.1618 -0.1604  0.3865
15548W        W34402   8.433   9.152  15.990  0.1391  0.4385  0.2402
15549W        W34403  14.134   3.533  12.179  0.2920 -0.0483  0.0870
15550W        W34404   1.861   8.790   4.489 -0.2632 -0.0130 -0.1417
15551W        W34405  16.690  17.345   0.931 -0.4290  0.0101 -0.1039
15552W        W34406   8.201   5.137   5.407 -0.0343 -0.3373  0.2094
15553W        W34407   8.254   2.816   2.320 -0.1027 -0.2307  0.0873
15554W        W34408  16.767   9.675  14.032 -0.0087 -0.1732  0.2950
15555W        W34409   1.137   1.632  15.194 -0.0970  0.1088  0.0402
15556W        W34410  10.017  10.257  16.071  0.2714  0.1245  0.2155
15557W        W34411   4.617   6.444   3.294 -0.3355 -0.0776  0.0113
15558W        W34412   5.068  15.428   1.677 -0.1290  0.0240 -0.0706
15559W        W34413   8.024   5.082  15.028  0.0505 -0.1716 -0.1163
15560W        W34414   2.257  12.336   1.815  0.0662  0.2436 -0.1356
15561W        W34415   8.872   6.829   3.444 -0.3087 -0.2187 -0.1276
15562W        W34416  13.856   4.546  13.418  0.2426 -0.0144 -0.0643
15563W        W34417   8.941   8.798  15.808  0.1110 -0.2203  0.1029
15564W        W34418  13.566   3.578  14.850 -0.0912 -0.0616  0.0069
15565W        W34419   2.769  16.934   4.703 -0.4412  0.2689 -0.1433
15566W        W34420   2.850  16.414  13.990  0.3383 -0.1781 -0.1673
15567W        W34421   6.227  13.352  16.284 -0.0291 -0.2794 -0.4412
15568W        W34422   0.435   5.526  13.641 -0.1726 -0.0996 -0.0045
15569W        W34423   8.620  12.645   1.155  0.1182  0.2910 -0.1882
15570W        W34424   1.937  15.554  13.508  0.1363 -0.2069  0.3604
15571W        W34425  12.096   5.773   2.979 -0.2986  0.1961 -0.2621
15572W        W34426  16.715   4.005  15.950  0.0569 -0.0710 -0.1209
15573W        W34427   9.281   7.969  16.363 -0.2466  0.0240 -0.1792
15574W        W34428   3.281  14.157   4.101  0.0360  0.0046 -0.1316
15575W        W34429   4.843  10.087   3.454 -0.1670 -0.1793 -0.0074
15576W        W34430   0.902   6.420   3.348 -0.0075 -0.0053 -0.1810
15577W        W34431  13.545   4.547   2.776  0.0110  0.2140  0.0080
15578W        W34432   0.975   5.631  13.754 -0.2459  0.1487 -0.0175
15579W        W34433  16.739   7.835  16.025  0.1806  0.0511  0.0184
15580W        W34434   4.661  15.780  14.552  0.4906 -0.3070  0.0083
15581W        W34435   3.148  13.853   5.459 -0.0341 -0.0243  0.4451
15582W        W34436  16.436  11.996   5.303  0.0395  0.1217 -0.1734
15583W        W34437  11.620  16.605  16.376 -0.1894 -0.1932 -0.1681
15584W        W34438  13.390   7.510   6.425  0.2291 -0.1276 -0.0963
15585W        W34439   5.925   9.399   6.253 -0.0557  0.0180 -0.0162
15586W        W34440   9.438   5.553   0.779 -0.1529  0.0618 -0.0300
15587W        W34441   1.071   7.493   2.017  0.0970  0.0008  0.0701
15588W        W34442  13.422  13.537   2.571 -0.1203 -0.0986 -0.0865
15589W        W34443   5.602  17.073   3.878  0.1601  0.2140  0.1095
15590W        W34444   6.750  16.471  15.310  0.0128 -0.1412  0.0047
15591W        W34445  16.883  11.660   4.465  0.1095 -0.0034 -0.0101
15592W        W34446   5.681   7.554  16.136 -0.0433 -0.0849 -0.0433
15593W        W34447  11.876   4.429   4.907  0.1193  0.0769 -0.1873
15594W        W34448  10.374   9.104   0.768  0.1904  0.1855 -0.2050
15595W        W34449  12.263  13.353   0.891 -0.0369 -0.2188 -0.2121
15596W        W34450  15.829   9.859   5.616 -0.0509  0.0738  0.0813
15597W        W34451   5.678   2.659  14.251 -0.1119  0.1344 -0.1194
15598W        W34452   5.382  10.125   3.180  0.3970 -0.1966  0.0691
15599W        W34453  10.501   8.596  16.825 -0.0364 -0.0982  0.0183
15600W        W34454   6.103   1.545   5.202  0.0334  0.2689  0.1592
15601W        W34455  11.474   3.004   0.240 -0.2695 -0.0365  0.1580
15602W        W34456  17.105  10.703   0.718  0.0618 -0.1114  0.0290
15603W        W34457  15.139   3.747  13.881 -0.2439 -0.1968 -0.1478
15604W        W34458  11.386   6.514   1.295 -0.0824  0.2028 -0.3330
15605W        W34459  14.327   7.973   2.553 -0.0289  0.0612 -0.1635
15606W        W34460   1.781   5.993   1.638  0.2666  0.2077 -0.0292
15607W        W34461   6.602  11.244  16.082 -0.0902 -0.0495 -0.1535
15608W        W34462   3.001   3.070   0.360  0.2379 -0.2666 -0.0953
15609W        W34463   5.673  15.897  13.370 -0.0753  0.0247  0.1175
15610W        W34464  17.126  12.432   4.043 -0.1519 -0.0328  0.0637
15611W        W34465   7.814   0.529  17.419 -0.0142 -0.2194  0.0072
15612W        W34466   5.708   6.061  13.957  0.0910  0.1004 -0.2141
15613W        W34467  14.503   0.540   1.588  0.5756 -0.0877 -0.2982
15614W        W34468  14.713   7.645   3.098  0.0311 -0.2631  0.2048
15615W        W34469   9.696   9.726  17.242  0.1030 -0.3686  0.0584
15616W        W34470   4.429  15.635   2.570 -0.4057  0.2856  0.0627
15617W        W34471  17.123  11.536   6.208 -0.1690 -0.3183  0.0978
15618W        W34472   5.433   3.916  12.558 -0.1413  0.0248  0.0442
15619W        W34473   6.911   6.219   6.363  0.0075  0.3319 -0.1366
15620W        W34474   8.477  10.195  15.857  0.1478 -0.4866 -0.1744
15621W        W34475   5.634  11.620  17.122 -0.0126 -0.0535  0.0110
15622W        W34476  14.178   0.705  13.416  0.1490  0.0435  0.1448
15623W        W34477  13.614   8.515   1.435  0.0786 -0.1780 -0.1361
15624W        W34478   5.730   5.645   1.747 -0.2802  0.3588 -0.1333
15625W        W34479   2.122  17.188  12.861  0.0462 -0.0921 -0.0503
15626W        W34480   1.897  14.255   3.150  0.1197 -0.1327 -0.0387
15627W        W34481   8.380  10.186  17.427 -0.1642 -0.0276 -0.0025
15628W        W34482  14.222   6.968   0.529 -0.0870 -0.1189 -0.0181
15629W        W34483  11.392   7.162   2.346 -0.3192 -0.0304  0.1275
15630W        W34484  15.660   9.173  17.227  0.0705 -0.2205 -0.0074
15631W        W34485   2.924   4.790  14.003 -0.0060  0.1727 -0.1440
15632W        W34486   0.645  12.858   3.009 -0.2679 -0.0267  0.2698
15633W        W34487   4.033  15.458   0.973  0.0019  0.3441 -0.0383
15634W        W34488  14.801  15.769  15.863  0.2950  0.0663  0.1895
15635W        W34489  11.527   1.168   0.563  0.0393 -0.0780  0.0999
15636W        W34490  12.551   3.640  17.094 -0.1215 -0.1186 -0.0784
15637W        W34491   1.362   9.616   0.829  0.1033  0.3071 -0.1004
15638W        W34492  14.532   1.316   5.746  0.2291  0.2390 -0.1114
15639W        W34493  14.712  14.821  12.279  0.3317 -0.0439 -0.1258
15640W        W34494   8.650   5.599   3.836  0.0247  0.1926  0.0496
15641W        W34495  13.671   4.699  14.629  0.1215 -0.2375  0.2521
15642W        W34496   8.794   8.637   1.122 -0.1373 -0.1373 -0.0730
15643W        W34497   7.148   3.888   0.123 -0.4227 -0.0187  0.0060
15644W        W34498   1.129  14.132   3.731 -0.1061 -0.3011 -0.1014
15645W        W34499  10.156  16.971  15.801  0.3831 -0.2972 -0.0360
15646W        W34500   3.849   2.371   2.390  0.0987  0.0842 -0.3383
15647W        W34501   3.917  14.993   2.125  0.1620  0.2596  0.0545
15648W        W34502  15.890  16.029   1.437  0.1309  0.1899 -0.0171
15649W        W34503   6.445   9.143   0.465  0.0172 -0.0057 -0.2116
15650W        W34504   9.212   8.732  16.426 -0.0462 -0.2247 -0.2184
15651W        W34505   0.878   9.619   3.695 -0.0968  0.0426 -0.3856
15652W        W34506  15.687   2.168  15.836 -0.0034 -0.0018  0.2672
15653W        W34507  16.360   1.455   3.898  0.1659  0.1605  0.0410
15654W        W34508  10.383   3.953  15.944  0.0294 -0.1852 -0.1323
15655W        W34509  13.322  10.692  15.535 -0.3447  0.0528  0.3099
15656W        W34510  13.698  15.350   3.750  0.0983 -0.0023  0.0501
15657W        W34511  16.570   6.763  12.627 -0.0138  0.1185  0.0644
15658W        W34512   0.645   4.502  14.631  0.1065  0.3641  0.1303
15659W        W34513   1.747  10.973  12.203  0.1180 -0.0120  0.1416
15660W        W34514  14.165   6.244  17.005  0.0091  0.1299 -0.3759
15661W        W34515   5.069   9.065   3.217  0.1130  0.1777  0.2420
15662W        W34516  14.795  14.391   2.190 -0.0688  0.1103  0.0585
15663W        W34517   0.797   5.013  14.441 -0.3480  0.0304  0.2537
15664W        W34518   7.045   0.212  15.268  0.1560  0.0730  0.1675
15665W        W34519   1.725  14.451   5.435 -0.0650  0.0591  0.0082
15666W        W34520   3.651   1.014   1.844  0.0521  0.1579  0.0202
15667W        W34521  10.432  12.106  15.487  0.1692  0.0351 -0.0493
15668W        W34522   2.132   6.708   3.578  0.0188  0.1071  0.0045
15669W        W34523   1.537   1.050   1.801  0.0776 -0.1701  0.2076
15670W        W34524  10.263   7.204  15.709  0.0114  0.2239 -0.1920
15671W        W34525  16.811   6.073  15.099 -0.0944 -0.2690 -0.2563
15672W        W34526   1.377   9.290   3.260  0.0503 -0.2123  0.3064
15673W        W34527   5.058  17.318  16.947  0.0299 -0.2243  0.0757
15674W        W34528   3.042   8.429  13.006 -0.0375  0.1657 -0.0034
15675W        W34529  13.730   6.860   1.294  0.1182  0.3621 -0.1165
15676W        W34530   0.340   4.089   5.044 -0.0441  0.1489 -0.0020
15677W        W34531  14.724  10.469   2.837  0.1310 -0.0367  0.0999
15678W        W34532   2.262  16.444   0.515 -0.1364  0.0158  0.0227
15679W        W34533   4.565   3.243   3.942 -0.0896  0.0545  0.0212
15680W        W34534   2.699   2.631  13.331 -0.1155 -0.0073 -0.2294
15681W        W34535  14.562  12.436   3.089 -0.1731  0.0606 -0.2961
15682W        W34536  16.732  16.087   2.891 -0.2002 -0.1312 -0.0823
15683W        W34537  15.858  11.226  12.264 -0.1550  0.2887 -0.3438
15684W        W34538   5.758   7.770  14.808 -0.0926 -0.1229  0.0082
15685W        W34539  11.562  14.555  15.189 -0.0453 -0.6018  0.0271
15686W        W34540  16.475   0.740  14.348  0.0506 -0.0088  0.4065
15687W        W34541  10.238   5.371  15.481  0.0154  0.0594 -0.0409
15688W        W34542  14.223  17.086   3.500 -0.3021  0.0024  0.2259
15689W        W34543  11.887   7.825   1.918 -0.0346  0.1713 -0.0150
15690W        W34544   8.757  10.282   0.480  0.0287 -0.0367  0.5445
15691W        W34545  17.340   7.018   4.600  0.0324  0.0089 -0.0584
15692W        W34546   9.212  12.720  12.656  0.1267  0.3008 -0.0727
15693W        W34547  14.908   1.809   0.623 -0.1062 -0.1259 -0.4045
15694W        W34548  10.043   5.621   0.107 -0.0501  0.0487  0.0220
15695W        W34549  10.083   2.815  16.299 -0.0494 -0.1525 -0.1177
15696W        W34550   2.803  13.294  13.051 -0.0654  0.1326  0.0416
15697W        W34551   7.884  12.461   1.304  0.0853  0.1249  0.1919
15698W        W34552  16.893  11.917   3.238 -0.1192  0.0197  0.1733
15699W        W34553   1.439  11.137   4.001  0.2637 -0.1096  0.4794
15700W        W34554   8.958  14.952   2.060  0.1385  0.1778 -0.0958
15701W        W34555   6.194  13.807  16.651 -0.1891 -0.1253  0.0498
15702W        W34556   0.324  17.204   0.643  0.0065  0.2846  0.1618
15703W        W34557  12.628   5.590   0.746 -0.0828 -0.0384  0.0493
15704W        W34558   9.197  14.363   1.627 -0.1370  0.1127  0.0873
15705W        W34559   8.447   9.446   2.472  0.3098  0.2916  0.2647
15706W        W34560   2.912  17.308  17.275  0.2843  0.2470  0.0219
15707W        W34561   7.783   6.931  16.689 -0.0287 -0.0688  0.1143
15708W        W34562   6.120   4.283   0.512  0.1430  0.1223  0.3170
15709W        W34563   0.841   0.008   1.963 -0.0153  0.2997  0.2469
15710W        W34564   7.420  11.036   1.716  0.0061  0.1258  0.0459
15711W        W34565  15.948   7.698   1.657  0.0065 -0.1163 -0.0911
15712W        W34566  13.968   5.769  17.142 -0.1010  0.0864  0.0675
15713W        W34567  12.361   6.448  14.746  0.0999  0.2202  0.3713
15714W        W34568  10.388   6.692   1.658  0.2368  0.4338  0.0671
15715W        W34569   2.672  11.130  16.811 -0.0726  0.0394 -0.0177
15716W        W34570  15.868  13.947   4.947  0.0625 -0.0088 -0.3744
15717W        W34571   4.251  11.721   2.029  0.1385  0.2091  0.2410
15718W        W34572   0.713   8.195   4.785  0.1271 -0.1999 -0.1342
15719W        W34573  15.084   5.711   3.166  0.0494  0.0296 -0.3679
15720W        W34574   7.673   2.510  12.811 -0.0695  0.2125  0.1316
15721W        W34575   9.380   6.426   0.627 -0.1033 -0.0541  0.0700
15722W        W34576  12.604   4.729   2.456  0.0873 -0.2442  0.1592
15723W        W34577  12.672   1.608   4.279  0.1533 -0.0445  0.0689
15724W        W34578  11.282   2.226  13.723 -0.0151  0.0569 -0.0526
15725W        W34579   8.366   9.208   4.710 -0.0112 -0.0036  0.0454
15726W        W34580   7.984  11.599   0.718  0.0110  0.0926 -0.1688
15727W        W34581   7.354   9.487   2.537  0.0753  0.2992 -0.5232
15728W        W34582   2.762   8.150  14.181 -0.0811 -0.4351 -0.0723
15729W        W34583  11.759   2.359   2.532 -0.0892  0.0362  0.3315
15730W        W34584   9.860   7.757   2.356  0.1976  0.1427  0.0229
15731W        W34585   5.039   0.072   4.590 -0.0167 -0.2699  0.1215
15732W        W34586   3.320   3.462   0.145 -0.0251 -0.1568  0.0848
15733W        W34587   0.326   0.842  15.103 -0.1558  0.0425 -0.1645
15734W        W34588  11.525  15.142   0.972 -0.0729 -0.0786  0.1055
15735W        W34589  13.885   2.854  16.049 -0.3823  0.0480 -0.0523
15736W        W34590   7.276  13.794  16.166 -0.0777  0.2799  0.0314
15737W        W34591   0.927  14.822   5.174 -0.0059 -0.2618  0.0400
15738W        W34592  14.046   1.525  16.992  0.3949  0.1429  0.1420
15739W        W34593  17.214  11.813   4.829  0.0565  0.1610  0.2325
15740W        W34594   6.027  12.217  15.301 -0.2413  0.1485 -0.0886
15741W        W34595   2.746  14.783  13.495 -0.0985  0.1303  0.1182
15742W        W34596   6.949  11.704   2.808 -0.1575 -0.1420  0.1336
15743W        W34597   3.695  14.258  14.956 -0.1155  0.2249 -0.2779
15744W        W34598   0.845  17.137  16.232  0.4493 -0.1815  0.1239
15745W        W34599  15.497   3.001   3.484 -0.0565  0.0617  0.0707
15746W        W34600  11.794   6.859  12.587  0.0050  0.1247  0.2821
15747W        W34601  14.452  13.329  12.480  0.1976  0.0495  0.0815
15748W        W34602   8.398   3.417   4.058  0.0969 -0.0969  0.0173
15749W        W34603  15.096  12.133  14.114 -0.0656  0.0078 -0.3478
15750W        W34604  11.173   6.758  12.499 -0.0704  0.1248 -0.2562
15751W        W34605   7.064   8.900   5.496  0.0982  0.1220 -0.1737
15752W        W34606   5.370   5.846  16.450 -0.3877  0.0655  0.0861
15753W        W34607  10.881   5.604   3.678 -0.1356 -0.0722  0.0026
15754W        W34608  10.604   0.448  16.102  0.2161  0.1289  0.0041
15755W        W34609  16.636  14.119   4.467  0.0034  0.3157  0.0410
15756W        W34610   0.442   8.477   2.605 -0.0209 -0.0117  0.2817
15757W        W34611  11.305   3.844  15.244 -0.1856  0.0302 -0.2391
15758W        W34612   6.630  15.297   3.662  0.2280 -0.0380  0.0566
15759W        W34613   2.754   6.234  14.336  0.0983 -0.2571 -0.1189
15760W        W34614   7.947   4.314  14.535  0.1416  0.2105  0.1513
15761W        W34615  11.341   4.155  11.463 -0.1628  0.2848  0.1580
15762W        W34616  11.454   5.359   1.416  0.1869  0.0174  0.0128
15763W        W34617  11.723   0.934  14.007 -0.1812  0.0543  0.0233
15764W        W34618   7.655   4.951   3.560 -0.1716  0.0593  0.1370
15765W        W34619   2.141   8.772  13.931  0.2029  0.0779  0.1137
15766W        W34620  17.213  14.699   4.899  0.0233 -0.2080  0.0896
15767W        W34621  11.199  16.727  16.113  0.1004 -0.0595 -0.0376
15768W        W34622  14.476  14.718  13.403 -0.4441 -0.1283 -0.2877
15769W        W34623  16.574  10.509  14.419 -0.0683 -0.1866  0.1174
15770W        W34624   4.556   1.705  15.587  0.1017  0.2632  0.2209
15771W        W34625   7.847  16.163  14.965 -0.3371  0.4917 -0.2967
15772W        W34626  14.775  14.768  14.419  0.2271 -0.1940 -0.0946
15773W        W34627  13.142   3.549  13.139 -0.1184 -0.2753  0.0711
15774W        W34628   1.457   5.282   0.046  0.0488 -0.0856 -0.0867
15775W        W34629  16.516   3.310  13.846 -0.2437  0.0258 -0.0338
15776W        W34630   5.628  15.816  15.345 -0.2387  0.3729  0.0257
15777W        W34631   6.553  10.556   4.035  0.0251  0.2906  0.3533
15778W        W34632   7.040  17.096   3.063 -0.1525 -0.0362 -0.1890
15779W        W34633   1.837  12.447   3.858 -0.0968  0.0040  0.0094
15780W        W34634   7.486   9.431   4.344 -0.2355 -0.4547 -0.1322
15781W        W34635  11.031   5.101  16.549 -0.0948 -0.0672 -0.0665
15782W        W34636   1.672  11.314   2.440  0.0772  0.0173 -0.0213
15783W        W34637   2.769   3.430  12.219  0.2207 -0.1731  0.0267
15784W        W34638  11.975   6.572   5.127 -0.0884  0.0568 -0.1775
15785W        W34639   8.708  11.789  15.210 -0.3838  0.0163 -0.0759
15786W        W34640  15.953   3.150  16.673  0.0221 -0.1332  0.0996
15787W        W34641   1.378  15.561  16.143  0.0707  0.1031  0.0438
15788W        W34642  16.599   8.188   1.844 -0.1404 -0.2235 -0.3635
15789W        W34643   5.570  16.058   2.067  0.0252 -0.2129 -0.0563
15790W        W34644  12.367  13.316   4.881  0.0100  0.0503  0.0551
15791W        W34645   8.994   8.386  13.825  0.0811  0.0408  0.1433
15792W        W34646  12.118  16.103   2.475 -0.2658  0.1820 -0.3012
15793W        W34647  15.277   3.790   3.239 -0.2011  0.0616 -0.2686
15794W        W34648   0.712   4.317   4.765 -0.1109  0.1147 -0.1433
15795W        W34649  10.217   1.771   0.493  0.0598  0.1122 -0.0728
15796W        W34650  16.704  10.493   3.576 -0.1133  0.1492  0.0171
15797W        W34651  11.922   1.434   1.051  0.0793 -0.0875  0.1621
15798W        W34652   8.377   7.484  14.155 -0.0144  0.1640 -0.3017
15799W        W34653  13.291  11.730  12.676 -0.1229  0.2490 -0.2651
15800W        W34654   9.583  14.992  13.496 -0.0809  0.2262 -0.0054
15801W        W34655   1.136  15.165  16.294  0.0389 -0.0381  0.0032
15802W        W34656   0.778  14.082  17.418  0.2474 -0.1728 -0.1778
15803W        W34657   0.831   9.663   1.006 -0.1647 -0.3399 -0.3656
15804W        W34658   1.665  13.802  15.646 -0.2917  0.3554 -0.2304
15805W        W34659  13.008   7.711  12.580  0.0440  0.3286  0.3887
15806W        W34660   1.772   9.329   0.593 -0.1275  0.0869 -0.2376
15807W        W34661   8.190  10.213   4.549 -0.1944 -0.0694 -0.0651
15808W        W34662   7.341   6.126   5.260 -0.3811  0.4689 -0.0822
15809W        W34663   5.092   8.544  13.516 -0.0618  0.0203  0.0170
15810W        W34664   4.015  15.467  17.124 -0.1059 -0.1127  0.3550
15811W        W34665   1.661   5.244  13.961  0.0396  0.0477 -0.1563
15812W        W34666  10.748  11.152   0.394 -0.1639  0.0872 -0.1331
15813W        W34667  13.817  10.395   0.474 -0.0847  0.2757  0.1770
15814W        W34668   8.914   7.781  14.350  0.1415  0.0875  0.4036
15815W        W34669  15.354   6.956   2.006  0.0584 -0.0384  0.0464
15816W        W34670   1.252  10.031   2.764  0.3066  0.1732 -0.3402
15817W        W34671  14.722  14.014  12.815 -0.0717  0.0542  0.1783
15818W        W34672   3.347   2.648  13.882 -0.1248 -0.2114 -0.0667
15819W        W34673   3.817   5.771  13.817 -0.0710  0.1470 -0.3468
15820W        W34674  15.037   1.191  12.528  0.1984 -0.0539 -0.2499
15821W        W34675   4.864   6.038  12.963 -0.0946 -0.0720  0.0730
15822W        W34676   1.594   6.550  16.921  0.0099 -0.1488 -0.2780
15823W        W34677  15.157  12.357  15.703 -0.1374 -0.2888 -0.1297
15824W        W34678   8.264  14.669  15.628 -0.1048  0.2402 -0.2410
15825W        W34679   8.819  14.521  14.305 -0.0456 -0.2344 -0.0687
15826W        W34680  15.388   2.621  13.189  0.1985 -0.0308  0.2266
15827W        W34681   4.188   1.264   4.737  0.0042 -0.4332  0.0651
15828W        W34682  10.793  13.174  16.676  0.0960  0.1493  0.1960
15829W        W34683  12.766   4.092   5.082 -0.5008 -0.1405 -0.0929
15830W        W34684   2.764  17.327  16.044 -0.0862 -0.0076 -0.1989
15831W        W34685  16.900   6.460  12.799 -0.1057  0.2518  0.0136
15832W        W34686  13.311   4.800  15.944 -0.0226  0.2395  0.0641
15833W        W34687   3.304  10.707   1.410 -0.0132 -0.0392  0.1338
15834W        W34688   8.079   6.173  16.115  0.1452 -0.2306  0.1801
15835W        W34689   0.161   7.953   2.760 -0.0217 -0.0470 -0.1065
15836W        W34690   2.121   2.917  17.077  0.0734  0.0241  0.0639
15837W        W34691  13.292   3.106   2.372  0.0836 -0.0264 -0.1106
15838W        W34692  12.025   5.828   4.392  0.5409  0.1013  0.2250
15839W        W34693   8.699   7.316  14.906  0.0549 -0.3669  0.1653
15840W        W34694  12.893   6.911  12.471 -0.0389 -0.2232  0.0632
15841W        W34695   7.771   6.824   1.286  0.1762  0.1269  0.2263
15842W        W34696   2.734   2.676   3.817 -0.0534  0.0497 -0.1636
15843W        W34697   2.995   3.988  13.357  0.1725  0.1574  0.0441
15844W        W34698   9.258  10.749   4.094 -0.0624 -0.1646 -0.2382
15845W        W34699  12.193   6.133  13.306 -0.1743 -0.1240  0.2651
15846W        W34700   9.912   4.999   5.064  0.1697  0.4384  0.2267
15847W        W34701   6.171   8.666   4.958  0.1445  0.0491  0.1868
15848W        W34702  15.997  11.870   0.524 -0.1892 -0.2076 -0.1180
15849W        W34703   0.493  10.568   0.150  0.1487 -0.0021  0.2921
15850W        W34704   4.250   2.995   1.765 -0.2455  0.1695  0.1420
15851W        W34705  13.848  16.020   1.792  0.0993 -0.3507 -0.3357
15852W        W34706   3.915  14.494   4.099  0.2323  0.2345  0.1419
15853W        W34707  15.283   3.072   0.288 -0.1995  0.0181 -0.2278
15854W        W34708   4.027  12.807   1.263 -0.3910 -0.1565  0.4083
15855W        W34709  10.301  16.483  15.964 -0.0895 -0.1198 -0.1094
15856W        W34710   4.337  10.082   0.330  0.1290 -0.0434 -0.0003
15857W        W34711   1.499   2.534  17.222 -0.0696 -0.1779  0.1777
15858W        W34712   3.619   1.167   4.800 -0.3596  0.1294 -0.1394
15859W        W34713   2.526   4.375  15.201 -0.1299  0.2698 -0.1159
15860W        W34714   1.291   1.743  16.125 -0.1375  0.0681 -0.1830
15861W        W34715   5.013   8.780  15.849 -0.2715 -0.0003  0.1642
15862W        W34716   1.540  16.859  13.442 -0.2738  0.1330 -0.1154
15863W        W34717   9.502   4.750   1.728  0.0977  0.2323  0.0314
15864W        W34718   1.489   8.483   1.038 -0.1068 -0.3510  0.2210
15865W        W34719   2.372  11.635  15.587 -0.4121  0.0187 -0.0722
15866W        W34720  15.035   3.647   2.767 -0.1987  0.1354 -0.1658
15867W        W34721   5.041  17.150   1.895  0.0449 -0.2685 -0.0240
15868W        W34722   3.651   4.092   4.218 -0.4501 -0.0502  0.1329
15869W        W34723   0.249  12.103   4.665  0.0394 -0.1424  0.1989
15870W        W34724   4.848   5.120   1.599 -0.2809  0.0654 -0.0232
15871W        W34725  13.912   8.766  15.265  0.4498  0.0638  0.1534
15872W        W34726   8.060  12.780   4.658  0.0184 -0.1813  0.0246
15873W        W34727  15.856   7.650  14.595 -0.1580 -0.0997  0.0313
15874W        W34728  13.956   5.429   5.056 -0.0867 -0.0245 -0.1266
15875W        W34729  17.271  13.988  12.753  0.3590 -0.0349  0.1891
15876W        W34730   8.859   4.388  14.187 -0.0740  0.0767  0.0537
15877W        W34731  16.138   8.194   1.510  0.0844 -0.0826  0.0049
15878W        W34732  16.778  12.403  13.475  0.0406 -0.2622 -0.2252
15879W        W34733   3.082  10.716  12.903 -0.0490  0.1343  0.2204
15880W        W34734   9.211   3.671   5.557  0.0821 -0.2417 -0.1140
15881W        W34735   0.984   2.126  12.219  0.2392 -0.2290 -0.0943
15882W        W34736   5.032   2.534   4.874 -0.0064 -0.2370  0.1399
15883W        W34737   4.244   3.678  16.410  0.0572 -0.1199  0.1197
15884W        W34738  12.292   8.564  14.403  0.1896  0.0380 -0.1988
15885W        W34739  13.002  15.966   3.602 -0.0167  0.3655  0.1709
15886W        W34740  16.676   5.609   0.003  0.4288  0.0104 -0.1803
15887W        W34741   8.037  14.288  13.994 -0.2241 -0.0035 -0.1320
15888W        W34742   2.016   4.462   1.894 -0.0397 -0.1106 -0.3072
15889W        W34743  16.398  14.189   2.594  0.2769  0.0819 -0.2961
15890W        W34744  16.545   2.766  13.888  0.1804 -0.1034 -0.0349
15891W        W34745   8.772  11.231  12.633 -0.1696  0.1285  0.1323
15892W        W34746  16.607  14.625  15.132 -0.2801  0.0396 -0.0433
15893W        W34747  15.741  15.847  16.337 -0.3140 -0.1566 -0.2383
15894W        W34748  12.218  15.391  14.907 -0.4077  0.0422  0.0862
15895W        W34749   4.336   6.414   3.747 -0.2121 -0.1595  0.3289
15896W        W34750  10.990   5.196  15.242  0.0037 -0.0597  0.5243
15897W        W34751   4.588  11.030   4.587  0.0651 -0.0082  0.1136
15898W        W34752  13.620   9.892   5.463  0.2028  0.0689  0.1572
15899W        W34753   0.640  11.971  16.061  0.1566 -0.0248  0.1485
15900W        W34754   8.971   3.713  13.703 -0.2389  0.0122 -0.1654
15901W        W34755   8.433  10.678  17.259 -0.1352  0.0022 -0.1106
15902W        W34756  15.398   1.669   0.527  0.1422  0.3035 -0.1480
15903W        W34757  14.293  16.522  14.941 -0.0971 -0.1126 -0.0368
15904W        W34758   0.689   6.429   4.411  0.2213  0.2685  0.0088
15905W        W34759  16.461  11.312   2.461  0.2881  0.2350 -0.1581
15906W        W34760   5.981  12.650  14.293  0.2751  0.0942 -0.0041
15907W        W34761   7.652   8.162   2.171  0.1269 -0.0505  0.1257
15908W        W34762   2.766   0.869  12.568 -0.1578  0.0800 -0.2029
15909W        W34763  14.416   3.686   0.039  0.0521 -0.1008 -0.1341
15910W        W34764   7.599   3.802  15.208  0.2393 -0.0674  0.0333
15911W        W34765   8.141  10.502  13.375  0.1443  0.4259 -0.1606
15912W        W34766   3.505  13.412  14.544 -0.1262  0.0574 -0.3354
15913W        W34767  11.146   2.687  12.808  0.0990  0.1133  0.0483
15914W        W34768   5.958   4.154  15.135 -0.1021 -0.2235 -0.1331
15915W        W34769  15.631   5.219  12.197  0.0542  0.3184  0.2656
15916W        W34770   0.414  15.138   0.106 -0.1744 -0.0005  0.2738
15917W        W34771  13.108  10.401  16.493  0.0105 -0.1436 -0.1579
15918W        W34772  11.809  12.724  14.979  0.0771  0.1572 -0.4677
15919W        W34773   1.995   5.499   4.753  0.0970 -0.3077  0.2836
15920W        W34774  13.750   4.809  14.115 -0.0326  0.0115 -0.1364
15921W        W34775  10.928   9.296  13.415  0.3739 -0.0370  0.1182
15922W        W34776   6.622   4.479  15.895 -0.0814  0.0466  0.0193
15923W        W34777  12.144  13.159  16.953  0.0801 -0.0917  0.1246
15924W        W34778   7.647   8.575  14.123  0.0503 -0.1655  0.1116
15925W        W34779   1.742  13.943  16.119 -0.1856  0.0206  0.0492
15926W        W34780   4.683   0.294  13.649 -0.2243 -0.1536  0.1550
15927W        W34781  13.911   0.182   3.808 -0.1048  0.1621  0.0172
15928W        W34782   5.215   6.286   2.096 -0.3135 -0.0892  0.0919
15929W        W34783   8.582   3.702  15.579  0.0670 -0.1421 -0.2112
15930W        W34784   7.199  15.542  13.905 -0.0959 -0.0283  0.2510
15931W        W34785   4.093   8.942  13.807  0.0314 -0.1670 -0.1568
15932W        W34786  11.043   2.060   2.437 -0.0659 -0.3221 -0.0281
15933W        W34787  11.652   3.267   1.683 -0.1435  0.1075  0.1958
15934W        W34788   7.755   5.265   1.538  0.0864  0.3191 -0.1800
15935W        W34789   8.540   7.390  12.666 -0.1007 -0.1084 -0.0213
15936W        W34790   1.807   6.144  15.428 -0.1670  0.0560  0.2066
15937W        W34791  14.841  16.456  13.326  0.0138  0.0267  0.1423
15938W        W34792  12.679  14.174   2.768  0.0189 -0.0123 -0.0412
15939W        W34793   4.348   3.102   2.572  0.2739 -0.2104 -0.1924
15940W        W34794  16.530  12.926  16.731  0.2241 -0.2443  0.1262
15941W        W34795  10.466   4.012   3.456  0.1753  0.1843  0.0886
15942W        W34796  13.947  14.532   2.541  0.0922 -0.1193  0.0046
15943W        W34797   2.979  14.696  14.616 -0.0311 -0.3609  0.0863
15944W        W34798  11.605  12.751   2.191 -0.1334  0.0158 -0.0879
15945W        W34799  14.825   5.120   3.977 -0.0266 -0.0855  0.3013
15946W        W34800   9.173  13.740  13.523 -0.2245 -0.0708  0.2075
15947W        W34801   5.718  13.378   4.472  0.0869 -0.2407 -0.0123
15948W        W34802   0.052   4.097  13.080 -0.1147  0.0165  0.2051
15949W        W34803   0.208  13.002  17.286  0.1122 -0.2664 -0.0057
15950W        W34804   5.971  11.839  14.925  0.0208  0.0007  0.3754
15951W        W34805   4.857  13.891  14.687 -0.2817 -0.1127 -0.1602
15952W        W34806  11.714  15.754   3.698  0.2882  0.3384  0.1581
15953W        W34807  10.999   5.352  16.975 -0.1351 -0.0974  0.1063
15954W        W34808  14.945   4.945  12.630 -0.0729  0.1717  0.0514
15955W        W34809   4.728  15.683  13.533 -0.0696  0.1601  0.1126
15956W        W34810   6.406   0.511   5.320  0.1425 -0.0553 -0.0827
15957W        W34811  10.561   5.351   5.007  0.1355  0.0800 -0.2472
15958W        W34812  16.819  11.912  13.294 -0.0049 -0.0370  0.0483
15959W        W34813  14.958   0.053   2.805  0.1569 -0.0845 -0.1001
15960W        W34814   7.062  16.052  12.447  0.0080  0.1735  0.2973
15961W        W34815  11.318   9.677   4.076 -0.0712  0.1017 -0.0196
15962W        W34816  11.270  13.081   2.358  0.1325 -0.1483 -0.2600
15963W        W34817   8.788  10.187   4.599 -0.0847 -0.0249 -0.0454
15964W        W34818   8.674   1.262  12.855  0.3697  0.2193  0.1027
15965W        W34819  13.431   9.177   4.707  0.0080  0.0215 -0.0062
15966W        W34820   8.894  13.617   2.382 -0.0074 -0.1471 -0.3713
15967W        W34821   1.596   2.967   4.324  0.0385 -0.0080 -0.0124
15968W        W34822   0.665   9.205   4.030  0.2337 -0.2308 -0.0505
15969W        W34823   1.169   4.167  13.030 -0.2296 -0.0890 -0.0555
15970W        W34824   3.670   9.095  16.504 -0.1593 -0.2388 -0.1661
15971W        W34825  14.990   5.092  14.385 -0.1402 -0.0775 -0.1798
15972W        W34826  10.772  10.514   4.972  0.1296 -0.2083 -0.0557
15973W        W34827   1.091   3.228  16.250  0.3170 -0.2022  0.0503
15974W        W34828  14.264  13.734  14.994 -0.1824 -0.0148 -0.0080
15975W        W34829   6.923  10.033  16.439  0.0087  0.0926  0.1420
15976W        W34830  16.764   3.553   0.113  0.1170 -0.2520 -0.4579
15977W        W34831   2.883   9.954   0.637  0.1226 -0.2523 -0.2077
15978W        W34832   2.306   9.381   0.885 -0.2290 -0.1080  0.0772
15979W        W34833  12.032  12.444   5.209  0.0035  0.1175  0.0345
15980W        W34834  12.857   3.462   1.713 -0.0884 -0.0402 -0.1054
15981W        W34835   9.460  16.619  12.534  0.0602  0.0389 -0.2040
15982W        W34836  11.445  11.682  17.330 -0.1644 -0.2365 -0.3212
15983W        W34837   7.502   3.314  14.540  0.0655 -0.0314 -0.1436
15984W        W34838  12.108   5.388   4.699 -0.0585 -0.1662  0.2018
15985W        W34839   7.239  12.270  15.497  0.0003 -0.1825 -0.1232
15986W        W34840   3.177   8.156  15.642 -0.0239 -0.1141 -0.0046
15987W        W34841  13.703   3.261  14.512 -0.2802  0.3566 -0.0142
15988W        W34842  11.758  13.842   2.556 -0.0369  0.0701  0.0572
15989W        W34843   6.416   8.176  16.360 -0.2389 -0.2095 -0.1496
15990W        W34844   6.507   4.521   0.248  0.2060 -0.0691 -0.2206
15991W        W34845   6.340  15.880   5.292  0.1580  0.0852  0.0315
15992W        W34846   6.691   5.445   2.841  0.1838 -0.0798 -0.0376
15993W        W34847  12.732   6.773  15.632 -0.1526 -0.0582 -0.3469
15994W        W34848  15.734   1.107   2.716  0.1456 -0.0591  0.0855
15995W        W34849   2.684  13.100   0.307  0.1186 -0.0065  0.2584
15996W        W34850   0.030  13.340   3.706  0.1285 -0.0094 -0.1450
15997W        W34851  10.221  10.975  12.830 -0.1445  0.2492  0.1476
15998W        W34852   1.796  11.719  12.146 -0.2948 -0.3231 -0.2156
15999W        W34853  15.319  13.468  14.112 -0.2979 -0.1450 -0.0380
16000W        W34854  12.724   3.202   5.549  0.0357  0.1879 -0.2065
16001W        W34855   9.549  11.892  14.995 -0.0137  0.2562  0.1565
16002W        W34856   8.355  13.446  17.223 -0.2514  0.1875 -0.1481
16003W        W34857  15.765   4.271   0.597  0.2717 -0.2220 -0.3127
16004W        W34858  10.071  14.060  14.606 -0.2603  0.3269 -0.1005
16005W        W34859   6.620   0.401   2.655  0.1045 -0.0351 -0.0120
16006W        W34860  16.732   1.910   2.478 -0.2710 -0.2910 -0.0117
16007W        W34861  15.294  13.529  12.526 -0.0640  0.3537 -0.0548
16008W        W34862  10.386   4.906  15.729  0.1277 -0.0545  0.1186
16009W        W34863   9.450  14.203   3.366 -0.3448 -0.1741  0.0708
16010W        W34864   0.301   7.464  16.911  0.0205 -0.0511 -0.0839
16011W        W34865  12.632  16.775   0.944 -0.0735 -0.1117 -0.4355
16012W        W34866   5.969   0.098  13.178  0.0680  0.0044  0.0552
16013W        W34867   3.862   3.806  16.008 -0.1354 -0.0168  0.0188
16014W        W34868  16.551  12.916   4.370 -0.1560 -0.1434  0.2508
16015W        W34869  16.378   8.082   4.370 -0.3182  0.1846 -0.0741
16016W        W34870  10.698   0.278  13.639  0.3596  0.1159 -0.0847
16017W        W34871   2.675  15.275   3.727  0.0467 -0.1293  0.0331
16018W        W34872   5.047   8.306   0.225  0.0119 -0.4126 -0.0412
16019W        W34873   0.215  10.088   1.277  0.0140  0.3104 -0.0346
16020W        W34874  17.091  15.157   0.121 -0.0581 -0.0351 -0.0325
16021W        W34875  15.913   3.433   2.472 -0.1799 -0.0222  0.0372
16022W        W34876  16.491   5.564  15.144  0.0407 -0.2248  0.0172
16023W        W34877  14.170  14.875   3.182 -0.2785  0.1270  0.0843
16024W        W34878   5.779   0.247   0.327 -0.0232  0.0168  0.0200
16025W        W34879  14.460  11.971   2.341 -0.0695 -0.2669 -0.3680
16026W        W34880   4.292  12.239   2.761  0.2464  0.1927  0.0881
16027W        W34881   6.774   2.253  14.382 -0.2465  0.1902  0.1429
16028W        W34882   7.707   3.711  15.785 -0.1326  0.0757  0.0992
16029W        W34883  14.608   0.443   3.061 -0.3423  0.2063  0.0263
16030W        W34884  14.881  10.460   3.351 -0.0540 -0.0507 -0.0107
16031W        W34885   4.054   8.910   1.993 -0.1195  0.0193  0.3423
16032W        W34886   4.138   4.257  15.885  0.3176  0.1312 -0.3081
16033W        W34887  10.159  10.472   5.751 -0.0967 -0.1107  0.5241
16034W        W34888  10.641   8.361   1.955 -0.0035 -0.3682  0.1300
16035W        W34889  12.533  13.775  12.497  0.0159  0.0277  0.1113
16036W        W34890   9.948   3.268   3.075 -0.2660 -0.3832  0.5314
16037W        W34891   0.800  16.894  15.757  0.0962  0.3492 -0.0231
16038W        W34892   1.611   8.304   3.116 -0.1558 -0.2041  0.4924
16039W        W34893   1.704   6.478   2.299  0.1873 -0.1712  0.2210
16040W        W34894   9.747  17.316  15.769  0.0811 -0.0707 -0.0928
16041W        W34895   9.896   3.138  13.294  0.3042 -0.2358 -0.0782
16042W        W34896  12.784   6.259  17.358  0.0357  0.2561  0.0786
16043W        W34897   0.768  10.897   2.749  0.0523 -0.2380  0.1652
16044W        W34898  14.916   1.469   0.244  0.0960 -0.0369  0.1812
16045W        W34899  13.179   7.316   1.691  0.0329  0.0886 -0.3726
16046W        W34900   5.198   6.859   1.376 -0.0160  0.1239  0.1888
16047W        W34901  17.067   3.447  15.651  0.0003  0.2460  0.3142
16048W        W34902  11.856   7.862  15.299 -0.2551 -0.1616  0.4290
16049W        W34903  16.586   4.398  14.578  0.0379 -0.0385  0.2723
16050W        W34904  14.425   1.808  16.915 -0.0185 -0.0350 -0.1667
16051W        W34905   4.457  12.784   3.822 -0.0441  0.1052 -0.2950
16052W        W34906  15.062   8.475   2.585  0.0226 -0.0280 -0.2093
16053W        W34907   0.064   6.964  17.172 -0.0304 -0.2708  0.1225
16054W        W34908  15.738  10.208   4.028 -0.2060  0.2759  0.0363
16055W        W34909  10.187   2.127   3.722 -0.1442  0.2288 -0.1865
16056W        W34910   8.694  11.515   4.044  0.2263  0.0786  0.4120
16057W        W34911   7.100  12.364  15.943  0.0084 -0.1310  0.0999
16058W        W34912  13.126  12.986  12.576 -0.0252 -0.1523 -0.0862
16059W        W34913   5.193  15.776  14.560 -0.2864  0.0439 -0.2721
16060W        W34914   2.615   1.402   4.527 -0.0414 -0.0206  0.0639
16061W        W34915  11.051   6.563   1.680  0.1408 -0.2209  0.2406
16062W        W34916   1.971  10.087   1.903  0.1326  0.0982 -0.4132
16063W        W34917  10.556   4.701   2.980  0.0680  0.0017  0.2916
16064W        W34918   6.687   9.973  15.133  0.2516  0.0040  0.1125
16065W        W34919  12.332  12.679  14.578 -0.0383 -0.1281  0.0189
16066W        W34920   4.466  15.138  11.828  0.0958  0.2039  0.0004
16067W        W34921  12.972  16.892   3.822 -0.2475  0.1471  0.0759
16068W        W34922   7.800   4.185  15.638  0.1099  0.3085 -0.1278
16069W        W34923  16.707   4.213  15.064 -0.0099  0.1364  0.0464
16070W        W34924   6.997  14.586  13.527  0.0225  0.2204  0.0555
16071W        W34925  11.354   8.807  13.361 -0.2629  0.2510 -0.1261
16072W        W34926   8.859   2.118   2.313  0.2609  0.5105 -0.0625
16073W        W34927   1.221  16.166  17.428 -0.0585 -0.1212  0.0446
16074W        W34928  15.521   2.939   0.714 -0.0327 -0.1492  0.2076
16075W        W34929  17.278   5.042  17.114 -0.0576  0.1709 -0.1169
16076W        W34930   1.458   6.883  15.236 -0.0482 -0.0680  0.2341
16077W        W34931   4.758   1.474   5.142  0.1596 -0.0045 -0.2099
16078W        W34932  16.083  14.534   2.865  0.1788 -0.3522  0.5610
16079W        W34933   7.800  13.615  16.333  0.3230 -0.1103  0.0960
16080W        W34934   0.671   9.817  17.240 -0.0029 -0.1761  0.2183
16081W        W34935   4.468  12.287   3.655  0.4471 -0.0169 -0.3914
16082W        W34936   1.379  11.877  16.177  0.0174 -0.1707 -0.0696
16083W        W34937   9.673   8.808   0.092 -0.0797 -0.0444 -0.1342
16084W        W34938   6.732   3.674   0.940 -0.2260 -0.2169  0.0504
16085W        W34939  12.196   5.847   3.797 -0.3220 -0.0919  0.0212
16086W        W34940  13.185  13.343  14.181  0.0300  0.2070 -0.1378
16087W        W34941  12.493  12.612  12.921 -0.0924  0.1225 -0.0196
16088W        W34942   0.968   2.315   1.170 -0.0769 -0.0103  0.1718
16089W        W34943   7.672  13.233   0.998  0.2995 -0.1233 -0.1013
16090W        W34944   1.460   1.637  14.160  0.0709 -0.1138  0.0314
16091W        W34945   2.971  12.803   1.282  0.1141 -0.1321 -0.0659
16092W        W34946  14.199   3.647   1.492  0.3438  0.0285 -0.1798
16093W        W34947   1.239   4.406   0.408 -0.2153  0.0448 -0.1498
16094W        W34948  15.975   3.245  15.610  0.0930  0.1077 -0.0946
16095W        W34949   2.095   0.741   4.693 -0.0813  0.0629 -0.0395
16096W        W34950   3.105  11.107   3.176  0.2162 -0.0777  0.0039
16097W        W34951   9.739  15.685   4.687  0.0715 -0.1947  0.1449
16098W        W34952  15.171   1.158   0.523 -0.3586 -0.1439 -0.2065
16099W        W34953  16.518   7.462  16.298  0.2353 -0.1580  0.2739
16100W        W34954  14.429  17.238  16.190  0.3260  0.0723  0.0453
16101W        W34955  14.104  14.839   4.360 -0.0407 -0.3405  0.0749
16102W        W34956  11.568   3.438  14.342  0.3575 -0.2014 -0.0473
16103W        W34957   5.509   3.554   3.526  0.0015 -0.1240 -0.2873
16104W        W34958   7.412  15.810  16.876  0.0131  0.2232 -0.0922
16105W        W34959   4.782  11.010  15.632 -0.2404  0.1066  0.2224
16106W        W34960   8.027   1.518  13.915  0.2266 -0.1255 -0.0667
16107W        W34961   8.956  15.981  16.120 -0.0259  0.1233 -0.2730
16108W        W34962   6.416   9.734   0.499  0.2040 -0.0935  0.3241
16109W        W34963   2.924  10.748   6.185 -0.0021 -0.2526  0.0986
16110W        W34964   5.230  13.446   3.609  0.0689  0.1787 -0.0415
16111W        W34965  14.203   8.539  14.850  0.0610  0.0593  0.3038
16112W        W34966  13.578   8.507  16.421 -0.2182  0.1459  0.3180
16113W        W34967  15.946  13.299   3.855 -0.0390  0.0527  0.2832
16114W        W34968  15.557   2.026   4.475  0.0952 -0.2222 -0.2281
16115W        W34969   2.758  13.098  14.799  0.4633  0.0608 -0.1115
16116W        W34970  13.083   6.998   2.075 -0.0103 -0.2397 -0.1297
16117W        W34971   8.526   5.567  16.548 -0.2930 -0.2189  0.4251
16118W        W34972   1.546  10.510   3.589 -0.1912  0.2543 -0.1102
16119W        W34973   4.459   5.088   1.919 -0.0935 -0.2425  0.2643
16120W        W34974   8.412  16.707   0.590  0.3499 -0.2808 -0.0169
16121W        W34975   3.515  16.271   2.988  0.1524  0.1316  0.0762
16122W        W34976   7.644  13.069   2.189  0.2015 -0.2213 -0.1437
16123W        W34977   5.810  14.881   1.426 -0.0121 -0.0844  0.1043
16124W        W34978   3.902   3.231  17.006  0.2500  0.1230  0.1036
16125W        W34979   5.377   0.166   1.845 -0.0629  0.1022  0.1563
16126W        W34980   9.082   4.014  15.433 -0.2342 -0.3287  0.3542
16127W        W34981  14.185  15.912  12.785 -0.0187  0.0038 -0.1688
16128W        W34982  10.258   5.982   3.628 -0.0002  0.3528  0.1065
16129W        W34983  11.260   4.192   2.946  0.2707 -0.1407  0.4667
16130W        W34984  12.057  14.439  15.321  0.0536 -0.0737  0.2331
16131W        W34985   3.495   9.857   4.879  0.0408 -0.3633  0.1543
16132W        W34986   6.976  16.369   0.933  0.0398  0.1562  0.2231
16133W        W34987   3.986   8.614   4.032  0.1255  0.2208  0.2343
16134W        W34988   5.413  12.040   4.518 -0.2278  0.0921  0.3469
16135W        W34989  11.169   9.664  13.728  0.0517  0.1788  0.1766
16136W        W34990  10.387  11.619   0.778  0.0006 -0.0118 -0.3038
16137W        W34991   7.750  15.377  15.413  0.0036 -0.1586 -0.3114
16138W        W34992   7.180  15.109  13.160 -0.2672  0.2127 -0.2538
16139W        W34993  13.293  15.607  14.375  0.2094  0.3179  0.1940
16140W        W34994   5.927  14.558  12.094  0.0713  0.0347  0.3502
16141W        W34995  15.691   3.460  14.476  0.5123 -0.0638 -0.2111
16142W        W34996   4.980   1.334   0.148  0.2289 -0.0697 -0.1897
16143W        W34997   7.300  15.032  15.806  0.2580  0.2007  0.0331
16144W        W34998   1.981   7.228  13.661  0.3254  0.1724  0.3179
16145W        W34999  13.376   3.257   1.029  0.0245  0.0744 -0.2520
16146W        W35000  10.263  15.591   5.254  0.0510 -0.1323  0.0330
16147W        W35001  11.703   3.829   0.788 -0.1657  0.0924 -0.1028
16148W        W35002   9.410   9.291  11.032  0.1017 -0.2351  0.1512
16149W        W35003   1.532  10.425  15.672  0.1398 -0.3532  0.0432
16150W        W35004   7.697   3.868   4.556  0.0067  0.1484 -0.3037
16151W        W35005   9.864  10.587   1.579 -0.0398  0.2105  0.3079
16152W        W35006   9.301   1.644  16.954  0.1741 -0.0858 -0.1591
16153W        W35007   1.079   4.796   3.020  0.1877 -0.0247  0.0856
16154W        W35008  13.146  14.582  13.173  0.2762 -0.1703 -0.0331
16155W        W35009   6.545   6.710   1.796  0.2516 -0.4034  0.1384
16156W        W35010   9.748   9.088   5.357  0.1634 -0.2599  0.0028
16157W        W35011  13.932   2.088   0.587  0.1638 -0.0538  0.0429
16158W        W35012  15.743   8.346  17.155  0.0862  0.0417  0.1289
16159W        W35013   6.366   8.335   5.311 -0.0451 -0.0776 -0.1299
16160W        W35014  16.961  11.315   2.506 -0.1147  0.0318 -0.2986
16161W        W35015  14.134   7.957   4.607 -0.0240 -0.1232 -0.3038
16162W        W35016   5.973  10.930  15.444 -0.0346  0.0679  0.1210
16163W        W35017   9.625  16.769  14.528 -0.2165  0.1776  0.4652
16164W        W35018  15.351   6.524   3.397 -0.0772 -0.0351  0.0857
16165W        W35019  12.646   0.539   0.116  0.3143  0.0910  0.1347
16166W        W35020   4.669  11.569   2.277  0.0176 -0.0597 -0.2141
16167W        W35021  14.298  10.381  13.481  0.0553 -0.0639  0.0837
16168W        W35022  15.960  15.264  15.958 -0.2439  0.0077 -0.0204
16169W        W35023   9.720   5.816   3.368 -0.0206  0.0891 -0.0328
16170W        W35024  13.696   3.092  12.630 -0.0272 -0.0468  0.2608
16171W        W35025   9.864   8.599  15.174 -0.0038  0.0559 -0.2436
16172W        W35026   3.745  11.119   1.289 -0.0166 -0.0057 -0.0142
16173W        W35027  12.551   7.583   2.510  0.1745 -0.1238  0.1163
16174W        W35028   2.157   9.987   3.923 -0.0354  0.2069  0.0147
16175W        W35029   3.988  14.898   4.739 -0.0119 -0.1344  0.0102
16176W        W35030   9.356  17.038   0.421  0.1891 -0.0504  0.1979
16177W        W35031   8.115   3.679  16.716  0.0946  0.1644 -0.3356
16178W        W35032   3.598  13.196   3.447 -0.0661 -0.1813  0.2673
16179W        W35033  15.172   7.010   3.532  0.2087 -0.2582  0.1423
16180W        W35034  16.144  16.565  17.462  0.0835 -0.0272 -0.1282
16181W        W35035   7.931   7.581  17.385 -0.1853  0.0523  0.3176
16182W        W35036   7.457   8.245   4.311 -0.2704  0.0092 -0.0350
16183W        W35037   8.019  10.973  15.336 -0.1041  0.2036  0.0015
16184W        W35038  11.303  14.879  14.457 -0.0566  0.0118  0.0049
16185W        W35039   7.518  14.275   0.439 -0.0431 -0.3228 -0.0753
16186W        W35040   1.340   1.090   3.605 -0.4869  0.3008  0.3436
16187W        W35041   2.409  12.619  13.967 -0.2048  0.1827  0.2851
16188W        W35042   1.815  13.014  16.525 -0.0701 -0.2976  0.2730
16189W        W35043  13.403   5.219  13.714  0.2101  0.0749 -0.0343
16190W        W35044   1.072   3.673  14.905  0.0877 -0.0154  0.1746
16191W        W35045  13.950  16.202   3.696  0.1235 -0.1157 -0.0955
16192W        W35046  14.217  17.097  13.543  0.2825  0.1162  0.1098
16193W        W35047  15.257  17.110   3.620 -0.3329 -0.0998  0.1006
16194W        W35048  11.855   6.475  16.983 -0.0219 -0.0323  0.0246
16195W        W35049  13.123  16.748  13.673  0.0275  0.1161  0.1157
16196W        W35050   7.575  17.156   4.787 -0.2194 -0.0568 -0.1074
16197W        W35051  15.860   8.346  15.153 -0.0117 -0.0632  0.2961
16198W        W35052   7.437  12.190   3.739  0.1780 -0.2539  0.1332
16199W        W35053   2.655  10.246  16.444 -0.1032  0.2221 -0.1238
16200W        W35054   1.409   5.841   3.919 -0.0268  0.1548  0.1728
16201W        W35055   1.787   3.268   0.522  0.1224  0.0471  0.1511
16202W        W35056  11.293   4.151   5.865  0.0407 -0.0286 -0.0160
16203W        W35057   4.192   2.650  15.857 -0.0301  0.2154  0.0636
16204W        W35058  13.100   1.346   0.551  0.0330  0.1525 -0.1781
16205W        W35059   5.688  10.994   1.622  0.1242  0.0866  0.0054
16206W        W35060   2.650  11.136  14.933  0.2253  0.0744 -0.2620
16207W        W35061  11.587   8.271  13.100  0.4055  0.0448 -0.1939
16208W        W35062  12.509  11.156   1.477 -0.3112 -0.0093  0.3895
16209W        W35063   5.275   2.962   2.719  0.3281  0.0155 -0.1550
16210W        W35064   8.979  13.133   2.740 -0.2273  0.0470 -0.1436
16211W        W35065   4.511   5.946  14.692  0.0562  0.0169  0.0405
16212W        W35066  16.183   0.845   2.270  0.2072 -0.0058  0.1834
16213W        W35067   2.888   7.130   2.297 -0.1432 -0.0482 -0.1069
16214W        W35068   7.788   1.494   3.104  0.1637 -0.1151  0.0339
16215W        W35069  13.522   1.765  16.821  0.1421 -0.1522 -0.1241
16216W        W35070   9.659  10.502   3.474 -0.3071 -0.1106  0.1294
16217W        W35071   1.557   0.837  14.639  0.1826  0.0890  0.1997
16218W        W35072  14.338  15.623   4.136 -0.0058 -0.1859  0.1695
16219W        W35073  17.301   8.133  13.940 -0.0573 -0.2401  0.1715
16220W        W35074   1.818   6.059  14.333 -0.0701 -0.0042  0.0728
16221W        W35075   8.429   5.665   1.759  0.0290  0.2062 -0.0712
16222W        W35076  10.340   9.868   0.342  0.1943  0.0245 -0.1887
16223W        W35077   9.264  15.600  16.126  0.2770  0.1848 -0.4703
16224W        W35078  12.611   4.540   0.912  0.0308 -0.0174  0.3082
16225W        W35079   4.086  10.916   4.728 -0.2279 -0.2137  0.0009
16226W        W35080   9.628   3.215  12.529 -0.0300  0.0602  0.0950
16227W        W35081   0.264  12.093   2.719 -0.0089 -0.2459  0.0963
16228W        W35082   5.820   2.450   0.408 -0.1689  0.1277  0.0184
16229W        W35083  13.164   2.387   0.020 -0.1358  0.0947  0.0297
16230W        W35084  12.047  12.963   2.264  0.3195 -0.2366  0.0793
16231W        W35085   4.484   8.786  16.005  0.1953  0.1144 -0.0190
16232W        W35086  11.851   0.809   3.937  0.0721  0.0114  0.3864
16233W        W35087   0.517   6.081   5.298  0.1562  0.2239 -0.1306
16234W        W35088   9.892   4.882  13.679  0.2418 -0.0699  0.2020
16235W        W35089  11.419   9.921   3.010  0.3017  0.0921 -0.0005
16236W        W35090   8.236  12.232   3.178 -0.0840 -0.2379 -0.1671
16237W        W35091  15.568   6.432  16.448  0.1311  0.1697 -0.0460
16238W        W35092   9.043   3.469  15.366 -0.0877 -0.1872  0.1311
16239W        W35093   9.722  16.180   0.210 -0.1972 -0.1123  0.0230
16240W        W35094   9.770   7.746   3.594  0.2045 -0.0113 -0.1677
16241W        W35095   3.430  12.577   2.767  0.2431  0.3983  0.2900
16242W        W35096  15.673   5.738  17.194 -0.2110 -0.3140 -0.1023
16243W        W35097  11.755  14.868   0.112 -0.1200 -0.2560  0.0519
16244W        W35098   2.543   9.013   1.156 -0.0335  0.2688  0.0707
16245W        W35099   7.344   8.246  12.908 -0.3733  0.1149  0.3751
16246W        W35100   9.472   4.920   5.678  0.1368  0.0956  0.1141
16247W        W35101   3.037   2.147  15.773 -0.0479 -0.0847 -0.5286
16248W        W35102  16.726  17.099   3.373  0.0289 -0.2515  0.1506
16249W        W35103   8.109  11.016  15.822  0.1511 -0.0617 -0.1052
16250W        W35104  15.987  10.322  13.651  0.0631  0.1426  0.2876
16251W        W35105  12.498   5.864   1.647 -0.1861  0.0978  0.0609
16252W        W35106   7.857   3.094   3.462  0.0282  0.1798 -0.2443
16253W        W35107  12.224  16.804   4.369 -0.2002  0.0805  0.1605
16254W        W35108   7.045   6.374   5.580  0.4213 -0.0637  0.1384
16255W        W35109   0.136  15.881  14.110 -0.2691 -0.1830  0.3080
16256W        W35110  11.663   7.104   2.867 -0.0345 -0.2245  0.1456
16257W        W35111   7.338   1.581  14.605 -0.0516  0.1207 -0.0192
16258W        W35112  13.937   7.118  15.943  0.2245  0.0484  0.1091
16259W        W35113   6.900   7.456   1.214 -0.0752 -0.0539 -0.0589
16260W        W35114   9.628   5.904   5.248  0.0335 -0.1015 -0.0519
16261W        W35115  16.004   9.695  15.775 -0.2114 -0.0416  0.2547
16262W        W35116   8.576  11.666  16.861  0.0352 -0.1319  0.2036
16263W        W35117   5.901  12.767  13.024 -0.1323  0.1366 -0.1334
16264W        W35118  16.735   1.908   3.058  0.2039  0.0646 -0.0378
16265W        W35119  14.249   1.034   0.787 -0.0258 -0.3753  0.0795
16266W        W35120   6.837  13.628  12.558  0.1316  0.2106  0.2401
16267W        W35121  12.072  15.292   4.423 -0.0809  0.1806  0.1981
16268W        W35122  16.843   0.494   0.575  0.2535  0.1797  0.0759
16269W        W35123   1.351   1.331  16.985  0.0231  0.2242 -0.3037
16270W        W35124   0.933   8.009  14.176  0.0200 -0.1459 -0.0393
16271W        W35125  15.705  17.298   0.260  0.0521  0.1220 -0.1257
16272W        W35126   5.408   4.527   2.521  0.1185 -0.2575  0.0563
16273W        W35127  14.710   0.019   1.522  0.4170 -0.2300 -0.1505
16274W        W35128   1.968  12.592   1.537  0.1472 -0.1693  0.4607
16275W        W35129   0.483  13.010  16.485  0.1554  0.0180  0.2848
16276W        W35130   3.110   8.543   0.349  0.1402 -0.2717 -0.1001
16277W        W35131   5.319   9.249  16.972  0.1224  0.1497  0.1559
16278W        W35132  16.904  15.155   2.176  0.0926 -0.2084  0.0316
16279W        W35133   9.206   0.035   4.253 -0.0082  0.1954  0.0035
16280W        W35134   5.037   7.128  13.829 -0.1073 -0.0558 -0.0286
16281W        W35135   5.221   7.546  15.355  0.0452 -0.1572  0.0516
16282W        W35136   7.056  10.402   1.119  0.0819 -0.1907 -0.1346
16283W        W35137  12.927  14.736  14.738 -0.1536 -0.0703 -0.0257
16284W        W35138   0.137  10.619  17.184 -0.1285  0.5416 -0.1850
16285W        W35139  16.320  11.918   4.618 -0.1689  0.2330  0.0945
16286W        W35140   9.597  12.559   0.059 -0.1469 -0.1435 -0.2126
16287W        W35141  16.303   1.288  14.508  0.2088 -0.0460 -0.1220
16288W        W35142  14.658  11.952  15.834  0.1305 -0.1683 -0.1008
16289W        W35143  16.004  11.627  17.077  0.1567 -0.1617  0.1051
16290W        W35144   1.350   6.727  14.245  0.1188  0.0748  0.0334
16291W        W35145   6.869  11.117   4.896  0.0780 -0.1015  0.4410
16292W        W35146   0.186  15.957  16.296  0.1475  0.2358 -0.0210
16293W        W35147   6.547   0.441  14.279  0.0581 -0.0726 -0.3923
16294W        W35148   0.129  11.348  14.526 -0.0374  0.0329  0.4276
16295W        W35149  15.174   9.054   3.923 -0.1368  0.1250 -0.0817
16296W        W35150   2.458   4.740   0.872  0.1109  0.1375 -0.1047
16297W        W35151  10.871   9.242   0.664  0.2682 -0.2885 -0.0391
16298W        W35152  15.280  11.120  15.960 -0.2604  0.0453 -0.1601
16299W        W35153   0.254   1.814   5.098  0.4298 -0.0841 -0.0029
16300W        W35154   2.816   2.378  11.987  0.1719 -0.2201 -0.3286
16301W        W35155   9.381  15.373   0.758 -0.0922 -0.1917  0.0359
16302W        W35156   0.575   0.865   1.615 -0.1375 -0.0472 -0.2564
16303W        W35157   3.529  16.950   3.146 -0.0461  0.1634 -0.0836
16304W        W35158   1.749   1.594   4.675 -0.2309 -0.3606 -0.1550
16305W        W35159   5.983   3.905  12.558  0.0119 -0.2016  0.1350
16306W        W35160   4.068   8.093  14.232 -0.0699 -0.2765 -0.0804
16307W        W35161  12.304   7.189   2.387  0.0616 -0.0260  0.0838
16308W        W35162  10.330  15.263   3.047  0.1699  0.2131  0.3188
16309W        W35163  12.317  10.237   3.948  0.1594  0.1571  0.0830
16310W        W35164  13.040  11.454   5.045 -0.0821 -0.0398  0.0778
16311W        W35165  15.960   7.150  15.731 -0.4447 -0.0204 -0.2419
16312W        W35166   2.567  11.106   4.965 -0.1774 -0.0783  0.1519
16313W        W35167  11.365   7.187  14.250  0.0902 -0.1637 -0.2943
16314W        W35168  14.097   2.395  16.317 -0.2579  0.1630  0.0753
16315W        W35169   0.936  16.850   1.111  0.0481 -0.1151  0.0263
16316W        W35170   9.794   5.198   4.609  0.2553  0.1459  0.0652
16317W        W35171   6.777  16.606   3.798 -0.0052  0.0798 -0.2097
16318W        W35172  15.056   8.767   5.736 -0.1805  0.1574  0.2958
16319W        W35173   5.235   9.433  14.917  0.0568 -0.2508  0.3256
16320W        W35174   1.593   6.537   6.399 -0.0557 -0.0859 -0.0333
16321W        W35175   5.659  16.637   1.186 -0.2230 -0.0493 -0.0632
16322W        W35176   7.904  13.870  14.942 -0.1651  0.0792  0.0230
16323W        W35177  14.447   0.370  12.928 -0.1666  0.0433 -0.0521
16324W        W35178   6.362   4.066  16.677  0.2768  0.3097 -0.1134
16325W        W35179  15.094  11.440  17.203 -0.0150 -0.1866 -0.3715
16326W        W35180  16.261  10.226  16.812  0.1956 -0.0764 -0.0488
16327W        W35181  14.644  14.533  16.636 -0.2611 -0.2463 -0.1336
16328W        W35182   2.403   8.338  13.784  0.0409 -0.3556 -0.2196
16329W        W35183   0.380   1.557   3.482 -0.0633 -0.0300  0.1217
16330W        W35184   0.851  10.384   1.976  0.0076 -0.1452  0.0426
16331W        W35185  10.107   5.149  16.701 -0.0479  0.1434  0.0913
16332W        W35186   7.690  14.932  14.500 -0.1287  0.0648 -0.0820
16333W        W35187  15.880  15.691  14.379  0.0625 -0.1130 -0.4290
16334W        W35188   3.657   0.724   2.262  0.0179 -0.0011  0.0056
16335W        W35189   2.372   9.080  13.231 -0.0030 -0.0268 -0.2219
16336W        W35190   6.625  13.339   2.364  0.0062 -0.0440  0.4522
16337W        W35191  12.048  11.581   3.093  0.3447  0.2085  0.0552
16338W        W35192  13.609  16.380   3.341  0.1173 -0.0052 -0.1043
16339W        W35193   8.468  12.978  17.293 -0.1028  0.0328 -0.0605
16340W        W35194  16.919   6.678  14.994  0.0510  0.1092  0.0390
16341W        W35195   6.232   4.399   4.059 -0.2074 -0.0379  0.2430
16342W        W35196   2.706   4.467  15.669  0.1684 -0.0011 -0.1685
16343W        W35197  16.231  14.132   0.113  0.0801 -0.0294  0.0537
16344W        W35198  16.482   2.136   4.662 -0.1034 -0.0578  0.0043
16345W        W35199  14.679   2.889   3.255  0.0988 -0.1899 -0.0351
16346W        W35200  14.596   9.227  16.766  0.2749  0.0649  0.0117
16347W        W35201  14.389   5.492   2.316 -0.0437 -0.2176  0.0773
16348W        W35202   0.725  15.588   2.559  0.0153 -0.2770  0.1488
16349W        W35203   0.836  11.000  16.031 -0.2908 -0.0614  0.0471
16350W        W35204   2.421   3.372   5.102 -0.1260  0.0735  0.0112
16351W        W35205  16.655   8.959   2.783  0.1136  0.0769  0.0935
16352W        W35206  12.247  12.975  13.678 -0.1646 -0.1082 -0.0070
16353W        W35207   3.698   3.947   2.739  0.3393 -0.1081 -0.1925
16354W        W35208  12.271   8.164  12.616  0.0382 -0.0730 -0.1434
16355W        W35209   5.983   3.299  16.334  0.2058  0.1216  0.0196
16356W        W35210   3.115   5.328  16.602 -0.1069  0.3282  0.0460
16357W        W35211   9.482   7.196  12.777 -0.0161 -0.2756  0.1134
16358W        W35212   0.129   9.337   2.658  0.2989  0.0024  0.1071
16359W        W35213   4.387   2.876   4.237  0.0060 -0.1976 -0.0167
16360W        W35214   3.229   9.218   1.740  0.0625  0.3402 -0.0704
16361W        W35215   5.834  12.412  12.476  0.0036  0.1126 -0.0116
16362W        W35216  13.700  12.012   4.497 -0.0232 -0.0971  0.1033
16363W        W35217   6.550  13.425   4.483  0.1539 -0.0668 -0.1509
16364W        W35218   9.351  14.567   2.054 -0.1547  0.1755 -0.0453
16365W        W35219   6.384  14.469  12.279  0.2057 -0.0102 -0.0609
16366W        W35220   9.945   7.638  17.089  0.3095 -0.1469 -0.1166
16367W        W35221  10.407  14.422  17.038 -0.0618  0.0503  0.1939
16368W        W35222   3.852   9.929  15.946  0.3042  0.1399 -0.3250
16369W        W35223   5.950  12.279   4.698 -0.2731 -0.0523  0.0684
16370W        W35224  16.938   5.407   5.965  0.1596 -0.2764  0.0653
16371W        W35225   8.471  14.540   1.313  0.0385 -0.2146  0.0489
16372W        W35226   3.708  10.068   4.014  0.2851 -0.0467  0.0574
16373W        W35227   6.486  14.762  15.740  0.0682 -0.0078 -0.2742
16374W        W35228  17.313   4.086   6.128 -0.1485  0.0418 -0.1312
16375W        W35229   5.751  13.275  16.118 -0.1336 -0.1273 -0.0823
16376W        W35230  10.956  12.988   3.322  0.1564 -0.1838  0.0827
16377W        W35231   6.728   5.212   4.023 -0.0648 -0.2607 -0.1839
16378W        W35232  14.219  13.819  16.348 -0.1751 -0.0697  0.0885
16379W        W35233   2.646   9.909  12.925  0.0501 -0.0143 -0.4236
16380W        W35234   9.759   9.736   2.772 -0.0992 -0.1172  0.3927
16381W        W35235   1.760   9.755   4.917  0.2647  0.0194  0.0618
16382W        W35236  13.083   0.695  16.134  0.1031  0.1345 -0.1708
16383W        W35237  11.313   2.321  16.621  0.1873 -0.5616 -0.0384
16384W        W35238   7.506   8.612   3.032 -0.0932  0.0017  0.3353
16385W        W35239   9.752  14.032  16.365  0.3297 -0.0299 -0.0826
16386W        W35240  12.573   9.904   3.534 -0.1492  0.0304 -0.1161
16387W        W35241  11.769   9.102  16.660 -0.0752  0.1549  0.0510
16388W        W35242   6.975  12.374   4.508 -0.0545 -0.2030  0.1591
16389W        W35243  10.697  13.000   2.825  0.0667  0.1278  0.0682
16390W        W35244   4.771   9.849   2.687 -0.0435 -0.0533 -0.0671
16391W        W35245  10.106  10.418  15.077 -0.2753 -0.2646 -0.0842
16392W        W35246   1.317  15.818   1.752 -0.2159  0.0868 -0.0285
16393W        W35247   3.097  10.523  15.695  0.0202  0.0940 -0.1887
16394W        W35248  12.808   2.753  14.321  0.0859 -0.0664 -0.2082
16395W        W35249   3.387   3.646  13.527  0.0720  0.0801  0.0210
16396W        W35250  10.776  10.852   3.131  0.0217  0.0201 -0.1704
16397W        W35251  12.242   5.368   1.618  0.1034 -0.1278  0.0135
16398W        W35252   9.529  16.357   2.144 -0.2751 -0.0500  0.1950
16399W        W35253  11.823   6.125   3.984  0.0458 -0.0269  0.1128
16400W        W35254  16.922  12.861  13.852  0.0388 -0.0123 -0.0679
16401W        W35255  16.123  15.423  13.005 -0.0102 -0.0978 -0.1736
16402W        W35256  14.644  17.250   1.027  0.1045 -0.0696 -0.0286
16403W        W35257  14.610   1.372  12.325  0.1362  0.1999 -0.2226
16404W        W35258   2.433  12.840   1.306  0.1813 -0.0428  0.0228
16405W        W35259   1.437  11.246  15.198  0.2060  0.1376  0.2777
16406W        W35260  13.743   0.328  17.403  0.0911 -0.0054 -0.2080
16407W        W35261   8.483   1.179  14.931 -0.1029  0.0615  0.0891
16408W        W35262   5.756  16.455  16.966  0.1006  0.0552 -0.0217
16409W        W35263   2.689  13.516   2.305 -0.1066 -0.0271  0.1486
16410W        W35264  11.495  12.433  17.017 -0.0905  0.2304 -0.0891
16411W        W35265   6.441   6.543   3.753  0.2998  0.1212 -0.0449
16412W        W35266  11.032   8.901   1.950 -0.1301  0.0191 -0.1431
16413W        W35267   0.481   7.082   3.843 -0.4571  0.2984  0.1910
16414W        W35268  14.172   9.030   1.037 -0.0593  0.0745 -0.1585
16415W        W35269  10.386  10.381  14.532  0.1176 -0.0425 -0.1137
16416W        W35270   0.469  16.255   3.520 -0.0841  0.2993  0.2607
16417W        W35271   9.236  13.173   5.435 -0.1365 -0.2373  0.1642
16418W        W35272  15.495   9.967   1.454  0.0846 -0.1499 -0.0386
16419W        W35273   5.460   9.655   1.874 -0.0852  0.0241  0.4084
16420W        W35274  12.155  10.660   0.081 -0.0194 -0.0583  0.1831
16421W        W35275   1.496  16.542   3.707 -0.0119  0.1995  0.0915
16422W        W35276  13.198   5.389  16.203 -0.2062 -0.2372 -0.2382
16423W        W35277   5.321   5.059  13.166 -0.3446  0.0008 -0.1263
16424W        W35278   6.641   8.011   0.380 -0.1360 -0.1658  0.2506
16425W        W35279  15.615   2.562   4.370 -0.0205  0.1955  0.0376
16426W        W35280   5.803  11.611  13.569 -0.3929 -0.1825  0.2226
16427W        W35281   3.160   9.299   2.223  0.0112 -0.1089 -0.1230
16428W        W35282   1.209   4.235  16.013  0.1153 -0.0496 -0.1198
16429W        W35283   9.137   9.398   3.942  0.0889  0.0927  0.2077
16430W        W35284   2.825   5.780  16.381  0.0147  0.1554  0.1294
16431W        W35285  15.368   2.313   4.044  0.1372  0.2139 -0.1142
16432W        W35286   9.806  12.023  16.408  0.0207  0.0464 -0.0944
16433W        W35287  11.502   2.142   2.139 -0.0966 -0.2766 -0.0350
16434W        W35288  10.238   0.652   2.318  0.1771  0.1425 -0.1110
16435W        W35289   0.105   2.549  14.937  0.0706 -0.0513  0.0021
16436W        W35290   2.156  16.712  14.286 -0.0701  0.1981  0.1201
16437W        W35291  15.207  13.956   3.802  0.1061  0.0759 -0.2097
16438W        W35292   1.739  14.076  16.636  0.0369 -0.0575 -0.0655
16439W        W35293  12.667  11.229  13.590 -0.0579  0.1831 -0.1488
16440W        W35294   3.201   5.475  12.771  0.0289  0.0230  0.2066
16441W        W35295   8.723   1.682  13.172 -0.0196 -0.2632 -0.1194
16442W        W35296   2.972   1.117   0.685 -0.1916 -0.0557  0.1104
16443W        W35297   2.888   2.004   0.132  0.2065 -0.0232  0.1700
16444W        W35298   9.217  12.281  12.437 -0.1969 -0.0306 -0.3393
16445W        W35299   0.175  11.148  13.162  0.2162  0.1853 -0.2462
16446W        W35300   5.236  11.234   1.370  0.0777  0.0354  0.0728
16447W        W35301  11.594  10.593  13.071  0.1420  0.1763 -0.0501
16448W        W35302   7.398  12.309   5.111  0.2131 -0.0698  0.2400
16449W        W35303  10.378   5.410  15.985  0.1139  0.0608 -0.0287
16450W        W35304  10.027  15.683   0.376  0.0650 -0.1442 -0.0173
16451W        W35305   1.797   4.406   2.344 -0.0059  0.1459 -0.0581
16452W        W35306   0.380   7.094  15.147 -0.2297 -0.0646 -0.1228
16453W        W35307   1.951   0.231   3.839  0.0703  0.1415  0.0050
16454W        W35308   6.934   8.282   4.114 -0.4208 -0.0207  0.1488
16455W        W35309  14.312  13.033  13.696 -0.3876 -0.1169  0.1844
16456W        W35310   0.657   3.744   2.743  0.2837 -0.0206 -0.1196
16457W        W35311   6.951   6.393   4.466 -0.1818 -0.0201  0.3384
16458W        W35312   8.985  13.604  16.940 -0.0485  0.0275 -0.1814
16459W        W35313   0.222   2.772  13.226 -0.0778 -0.3041  0.0276
16460W        W35314   1.760  11.134  16.019  0.0842  0.0449 -0.1849
16461W        W35315  11.818   2.512  14.822 -0.0141 -0.1147  0.1109
16462W        W35316   9.373   7.998  16.885 -0.3083 -0.1127 -0.1363
16463W        W35317   8.074  10.920  16.418 -0.1911  0.1042 -0.2039
16464W        W35318   3.362   6.286  16.498 -0.0931  0.2394 -0.0575
16465W        W35319   2.723   5.403   2.411  0.1589 -0.0519  0.1392
16466W        W35320   4.880  12.912   1.979 -0.0934  0.0911 -0.1130
16467W        W35321   5.826  15.996   0.563  0.1536 -0.0149  0.1741
16468W        W35322   8.399   9.988   5.036  0.0448  0.0132 -0.2373
16469W        W35323   3.620   7.421  14.572  0.1763  0.0653  0.1090
16470W        W35324   6.600   5.941  16.886  0.1128  0.2519  0.1628
16471W        W35325   7.175   8.618  13.227  0.0269 -0.0771 -0.1151
16472W        W35326   0.585   1.699   3.967 -0.1223  0.0891  0.0022
16473W        W35327  11.159   4.524   3.494  0.1939 -0.1101 -0.1094
16474W        W35328   7.008   8.586   0.986  0.1440  0.0001  0.1620
16475W        W35329  10.500   1.970   5.108  0.0110  0.1684  0.0266
16476W        W35330   9.947   1.034   2.500 -0.0927  0.2596  0.0916
16477W        W35331  16.618   0.422  16.267  0.0854 -0.2607  0.3030
16478W        W35332   4.485  15.084   4.549 -0.0564 -0.2131 -0.2508
16479W        W35333   7.187   5.679  16.805 -0.0243  0.2057  0.0558
16480W        W35334   1.409   0.575  15.535 -0.2109  0.1877 -0.0277
16481W        W35335   0.534  13.494  14.903  0.0950 -0.1429 -0.0593
16482W        W35336  15.312   2.793   5.506 -0.1536  0.0207 -0.0500
16483W        W35337   8.668  13.134  15.139  0.0647  0.0337 -0.3006
16484W        W35338  10.162   0.381  16.287  0.2999  0.0017  0.1963
16485W        W35339   5.401   2.546   0.775 -0.3459  0.0051  0.0279
16486W        W35340   2.048   2.127   1.928  0.5611  0.1035  0.0154
16487W        W35341   0.188  16.081   5.183 -0.0842  0.0043  0.2823
16488W        W35342   8.267  16.503  12.682 -0.1761 -0.1286 -0.0882
16489W        W35343   7.863   4.139  17.252  0.2529 -0.0335 -0.0357
16490W        W35344  14.859   0.451   5.511 -0.1998  0.2075 -0.1059
16491W        W35345  10.078  13.375   0.076  0.1618  0.3591  0.0564
16492W        W35346  16.829  15.959  14.855 -0.0075 -0.2238  0.1961
16493W        W35347   0.581   2.419   3.402 -0.2801  0.0585 -0.0097
16494W        W35348   9.042   4.602  15.570 -0.2777 -0.0477  0.1851
16495W        W35349   7.216  14.184   5.307 -0.1169 -0.0784 -0.2053
16496W        W35350   5.914  14.279   3.739 -0.1432 -0.0056 -0.0284
16497W        W35351   7.179   2.186  15.669 -0.0033 -0.2735  0.0916
16498W        W35352   8.375  13.192  15.619 -0.0524  0.0987 -0.1178
16499W        W35353   0.989   9.140   3.560  0.1389  0.0516 -0.0765
16500W        W35354   3.667   1.566  15.539 -0.4347  0.0615 -0.0839
16501W        W35355   0.485   2.436  14.009  0.0839  0.0520 -0.1338
16502W        W35356   3.281   1.147  13.377  0.0737  0.2867  0.0384
16503W        W35357   1.066  16.243   4.783 -0.0906 -0.1108  0.0118
16504W        W35358   0.153   2.514  16.633  0.0791  0.4249 -0.0764
16505W        W35359  15.322  16.425   2.285  0.3818 -0.0888 -0.1874
16506W        W35360  11.124  14.014  16.529 -0.1136 -0.1182 -0.2235
16507W        W35361  11.737  14.814   5.339 -0.0314 -0.1931  0.1932
16508W        W35362  14.017  16.932  16.099  0.1101  0.1014  0.2200
16509W        W35363   0.958   7.833   1.509 -0.0069 -0.0365 -0.0115
16510W        W35364   0.263   5.604   2.207 -0.0456 -0.1918 -0.1518
16511W        W35365  13.111  13.353   4.413  0.3774  0.1114 -0.0414
16512W        W35366   3.936   3.792   2.328 -0.0499 -0.1731 -0.0264
16513W        W35367   8.177   1.616   3.921  0.1070  0.3073 -0.2641
16514W        W35368  10.898   5.477   0.074  0.0790  0.0549 -0.1407
16515W        W35369  16.244   9.086  16.212  0.0140 -0.1154 -0.0485
16516W        W35370  10.811   6.066  15.539 -0.0179  0.0102  0.0156
16517W        W35371   4.446  14.124   3.386  0.0157 -0.0609 -0.1539
16518W        W35372  11.939   3.188  15.720  0.0042 -0.2480  0.3503
16519W        W35373  16.443   8.325   0.934 -0.0120 -0.1190  0.0361
16520W        W35374   0.988   2.173   3.255 -0.2326 -0.3531  0.2787
16521W        W35375   3.682  15.579   0.032 -0.0867 -0.0314 -0.0153
16522W        W35376   5.334  11.044   0.121 -0.4204  0.0453  0.0261
16523W        W35377  11.791   9.460  12.548  0.0201 -0.0064 -0.0830
16524W        W35378   0.707  14.231   4.574  0.0029 -0.0825  0.1450
16525W        W35379  10.187   1.301   0.921  0.1180  0.2007 -0.0715
16526W        W35380  10.886  15.846  14.499 -0.0549 -0.1510  0.1245
16527W        W35381  14.288  10.816  13.199 -0.0952  0.0483 -0.1350
16528W        W35382  11.577   7.593   2.615  0.0377 -0.2354 -0.0668
16529W        W35383   7.146   5.873   1.320  0.0526 -0.3929  0.1652
16530W        W35384  14.597   9.131   0.654 -0.3036  0.1763 -0.1562
16531W        W35385  10.800  14.403  13.820 -0.0716 -0.0979 -0.3097
16532W        W35386  10.668   9.665  15.575 -0.2705  0.3143  0.1037
16533W        W35387  15.549   0.941  14.260 -0.1317 -0.5441  0.2210
16534W        W35388   0.998  16.290  14.940 -0.0348  0.0322 -0.3022
16535W        W35389   1.053   7.643  12.758  0.1313 -0.0733 -0.0783
16536W        W35390   1.547   5.079   3.550  0.0532  0.2046 -0.1169
16537W        W35391  16.645  16.033   1.080  0.2294  0.4362 -0.2988
16538W        W35392  10.129   6.744  12.828 -0.2719  0.0441 -0.0294
16539W        W35393   8.778   5.776   0.858 -0.3909 -0.1533 -0.1399
16540W        W35394  16.476   0.479  11.999 -0.2265 -0.2392  0.1226
16541W        W35395   1.212   7.159  13.924  0.0354 -0.2341 -0.2403
16542W        W35396   9.960   2.467   1.664  0.2265  0.2250 -0.1674
16543W        W35397   1.613   7.893   5.358  0.0052 -0.1077 -0.1654
16544W        W35398   4.831  12.118   3.341  0.1759 -0.2668  0.0562
16545W        W35399   6.689  10.160  14.619 -0.0872 -0.1474 -0.2315
16546W        W35400   5.236  15.585   1.186 -0.1480 -0.2030  0.0444
16547W        W35401  17.307   6.307  15.007 -0.1076 -0.1147 -0.2220
16548W        W35402   5.600   7.328   2.672  0.1728 -0.0096  0.0937
16549W        W35403  12.483   3.614   5.688 -0.0088 -0.0777 -0.0502
16550W        W35404   0.065   6.059   0.323 -0.2302 -0.0069 -0.1443
16551W        W35405  13.962  12.809   4.472  0.0051  0.1147  0.0491
16552W        W35406  14.614  14.763   0.834  0.0922 -0.0398 -0.2614
16553W        W35407  14.756   2.884   4.210  0.0315 -0.1807 -0.3532
16554W        W35408  13.433   1.724   1.890 -0.2273 -0.0968 -0.1403
16555W        W35409   2.884  12.305   1.173 -0.1078  0.0407  0.1882
16556W        W35410   4.567   3.060  12.979 -0.0741  0.0374 -0.0271
16557W        W35411  14.719   5.403   0.098  0.1533 -0.0801 -0.2391
16558W        W35412   8.365   4.708   0.724 -0.1897  0.1126 -0.0011
16559W        W35413  14.222   9.366   3.694 -0.1854  0.0290 -0.0873
16560W        W35414  10.511  13.188   3.592 -0.1595  0.3481  0.1899
16561W        W35415   3.739  14.326  15.818 -0.2000 -0.0694  0.1707
16562W        W35416   2.074  14.707   4.466 -0.1457  0.0735  0.0885
16563W        W35417  16.027  11.561   4.330  0.1576  0.0655 -0.1715
16564W        W35418  17.010   8.716  13.998  0.0031 -0.0204 -0.1271
16565W        W35419   1.897  11.586  16.834 -0.0772  0.1332 -0.0006
16566W        W35420   1.783  11.603  13.426  0.2559 -0.0235 -0.3917
16567W        W35421  15.542   5.945   1.372 -0.1588 -0.2739 -0.4535
16568W        W35422   9.061   0.714  16.590  0.0388 -0.3306  0.0246
16569W        W35423  15.768  11.708  16.621  0.3571 -0.3225  0.1984
16570W        W35424  12.994   2.926   4.617  0.0269 -0.0122 -0.3476
16571W        W35425   2.261   5.378   3.206  0.0778  0.1476 -0.1363
16572W        W35426  13.947   2.571  15.634  0.1498 -0.1622 -0.1949
16573W        W35427   1.090  14.678  15.120 -0.0444  0.0067 -0.1475
16574W        W35428  12.759   8.887  16.127 -0.1519 -0.0101 -0.1833
16575W        W35429  12.716   2.499   0.153 -0.1497  0.2286  0.1023
16576W        W35430   6.023   0.923  12.831 -0.0947 -0.1753 -0.1757
16577W        W35431   8.011   7.508  16.067 -0.0486 -0.0840  0.1255
16578W        W35432   0.462   1.993  15.755 -0.0814  0.2882 -0.0767
16579W        W35433   2.770   7.802   2.459 -0.0772  0.2863  0.0613
16580W        W35434  15.530  17.016  15.806 -0.2125 -0.5509 -0.0075
16581W        W35435  15.507   5.476  16.329  0.0197 -0.2915  0.1856
16582W        W35436  12.659  16.388   0.493  0.2032  0.1236 -0.4403
16583W        W35437   1.205   9.024   2.806  0.0431 -0.0845 -0.1462
16584W        W35438  10.962  13.982  15.604 -0.3023  0.1406 -0.0554
16585W        W35439   4.308  10.691   3.111  0.0072 -0.2428  0.2123
16586W        W35440   5.027  16.863   5.407 -0.0394  0.0760 -0.3049
16587W        W35441   9.189   8.595  13.396 -0.0347  0.1578 -0.2664
16588W        W35442   4.673  10.757  13.552  0.0848 -0.0608 -0.0774
16589W        W35443  12.314   6.956   3.478 -0.0348 -0.0474 -0.0650
16590W        W35444   3.672   3.777   4.581  0.0714  0.3028  0.0232
16591W        W35445  14.969  12.000   3.092  0.0690  0.0922 -0.1457
16592W        W35446   9.850  13.170  13.413 -0.0118  0.1451  0.3376
16593W        W35447  14.540  10.032   2.036 -0.3725  0.0592  0.1217
16594W        W35448  12.675  12.283   3.459  0.4137  0.0389  0.1696
16595W        W35449   2.277   6.901  13.985 -0.0594  0.0535 -0.2175
16596W        W35450   1.616   0.428   5.295 -0.0516  0.0069  0.0405
16597W        W35451  15.840   7.348   0.548 -0.1809  0.1067 -0.1804
16598W        W35452   7.322  14.416  17.401  0.2427  0.1365  0.0391
16599W        W35453   2.494  14.193  13.951 -0.2167 -0.1967 -0.3941
16600W        W35454   1.551   4.151   4.434 -0.0496  0.3111 -0.2599
16601W        W35455  16.879   7.805   3.966  0.1035  0.1699 -0.0514
16602W        W35456  14.153   4.949  13.255 -0.1577  0.1269 -0.1283
16603W        W35457  16.650  10.534   1.351  0.2289  0.2522 -0.0388
16604W        W35458   5.080   6.008  13.380  0.2624  0.0215  0.3842
16605W        W35459  10.055   3.404   1.791  0.1226 -0.2182  0.1954
16606W        W35460   1.605  16.899  15.667 -0.0055 -0.0213 -0.0781
16607W        W35461  15.212   2.940   2.195  0.1148  0.1013  0.0941
16608W        W35462  14.408  14.396   5.015 -0.0428  0.1513 -0.2899
16609W        W35463  12.326  12.770  15.917  0.3369  0.2894 -0.1569
16610W        W35464  16.004   4.487  16.928 -0.0870 -0.1157  0.1835
16611W        W35465  10.717   9.646  14.585  0.1379  0.0940  0.2917
16612W        W35466   0.994   6.748  15.225  0.2539 -0.1836 -0.3938
16613W        W35467   9.122  11.765  17.111  0.0052 -0.1413 -0.0585
16614W        W35468  15.206   0.483  15.915  0.1912 -0.0824 -0.0012
16615W        W35469  14.070   6.005   4.914 -0.1540  0.0136 -0.0606
16616W        W35470   5.288  11.457  12.384 -0.0702  0.1897  0.1726
16617W        W35471   0.589  10.003   3.760 -0.1691 -0.4638 -0.1459
16618W        W35472   0.580   0.238  16.450  0.3010 -0.2532  0.1005
16619W        W35473   5.369   1.384  13.316  0.1446  0.1181  0.0003
16620W        W35474   3.187  10.253  14.149 -0.0752  0.1369 -0.2054
16621W        W35475   4.415  16.468  16.867  0.4719  0.0673  0.3013
16622W        W35476  11.923   7.949   4.465 -0.3477  0.0580  0.3516
16623W        W35477  16.510  12.976   0.814 -0.0437 -0.1275 -0.0312
16624W        W35478   4.742   1.087   5.541 -0.3057 -0.1081  0.2947
16625W        W35479  14.015   3.359   3.528 -0.1102  0.1593 -0.0031
16626W        W35480  16.440   3.247   3.588 -0.2278 -0.0107  0.2542
16627W        W35481  11.828  10.300  17.409  0.3741 -0.0493  0.2915
16628W        W35482   4.343  12.271  13.564  0.2312  0.0843 -0.0213
16629W        W35483   2.812   2.956   4.859  0.1869 -0.1130  0.2325
16630W        W35484   4.921   9.034   3.848 -0.3004  0.0502  0.4712
16631W        W35485   1.051   1.996  13.440 -0.3608  0.1534  0.2645
16632W        W35486  13.539  16.160  13.963 -0.0593 -0.0172  0.2344
16633W        W35487   5.251   0.405  12.949  0.2361  0.0732  0.1215
16634W        W35488  16.377   4.371   2.502 -0.0666 -0.3412 -0.3116
16635W        W35489  15.649   7.005   0.138  0.0310  0.4922  0.1082
16636W        W35490   6.971   1.919   0.815  0.0881 -0.0502  0.0738
16637W        W35491   2.710   5.214  15.080  0.0707 -0.2269 -0.1055
16638W        W35492  13.301   3.875   5.066  0.4389 -0.0767  0.2497
16639W        W35493  11.185   9.812  12.331 -0.2178 -0.1914  0.0395
16640W        W35494  15.016  15.907   2.235 -0.3740 -0.1776 -0.1070
16641W        W35495   2.104  11.223  13.359 -0.0149 -0.1869 -0.0353
16642W        W35496   2.102   0.816   3.247  0.2500 -0.0935 -0.0119
16643W        W35497   2.925   3.292  17.346 -0.1554 -0.2410  0.0884
16644W        W35498   3.076   4.931   4.111  0.0866  0.0279  0.2531
16645W        W35499  13.708   7.279  13.006 -0.0729  0.2563  0.0011
16646W        W35500   2.276   4.688  16.688  0.3760 -0.1383 -0.0729
16647W        W35501  13.542  15.675  12.595  0.2947  0.1035  0.1467
16648W        W35502  17.257  14.443   0.449 -0.2036 -0.1939  0.1199
16649W        W35503   5.109  16.912   0.500 -0.0158 -0.0112 -0.1685
16650W        W35504  15.679   8.672   2.123 -0.1307  0.2683  0.0080
16651W        W35505   3.930   8.891  14.377  0.1716 -0.0251  0.3048
16652W        W35506   6.901   4.701  14.247 -0.0984  0.0868  0.4241
16653W        W35507   7.618  10.679  15.453 -0.2391  0.2400  0.0858
16654W        W35508  16.034  11.089  17.304  0.2221 -0.1316  0.0528
16655W        W35509  16.330   1.205   1.815 -0.0569  0.0840  0.5567
16656W        W35510  13.539   7.673  12.791 -0.2575  0.0322  0.0443
16657W        W35511  13.787  14.111   4.200  0.0149  0.1439 -0.1133
16658W        W35512   1.331   7.748  14.243  0.0710 -0.1335 -0.3392
16659W        W35513   8.028  17.297  16.629 -0.2568 -0.2586 -0.1260
16660W        W35514  15.705   7.653  12.949  0.1922  0.0485 -0.1611
16661W        W35515   3.293   6.313  12.677  0.0702 -0.3032 -0.1788
16662W        W35516   7.289  13.541  13.751 -0.0620  0.0617 -0.0126
16663W        W35517   0.248   7.818  15.462  0.0639  0.1351  0.2988
16664W        W35518   6.639  13.114   1.902 -0.0282  0.2644  0.0435
16665W        W35519  14.545   4.944   1.492  0.1373 -0.0378 -0.1593
16666W        W35520   0.322  11.367  16.823  0.0932 -0.0845  0.2103
16667W        W35521  11.599  14.045   0.722  0.1608 -0.3338 -0.1397
16668W        W35522   5.904   3.144   4.690  0.2480  0.2458  0.1007
16669W        W35523  12.664   2.112   2.681  0.4912  0.3101 -0.0246
16670W        W35524   5.464   0.795   4.967 -0.1642  0.1193  0.2521
16671W        W35525   2.105  12.561   2.902  0.0850 -0.0414  0.1615
16672W        W35526  16.849  12.445  12.457  0.1258 -0.0509 -0.0348
16673W        W35527  16.753   8.795   4.201  0.1625 -0.2319 -0.1498
16674W        W35528   7.334  12.518   3.311  0.0976  0.0888 -0.2085
16675W        W35529   0.167   7.753   0.232  0.0413  0.0382  0.2477
16676W        W35530   7.857   2.430   4.199  0.1957  0.0653  0.0777
16677W        W35531   1.875  10.125  15.293  0.1333 -0.0287  0.0123
16678W        W35532   4.091  13.962  11.443 -0.0605 -0.2733  0.0135
16679W        W35533   4.142   0.082  14.748  0.1375 -0.2258  0.0158
16680W        W35534  14.371  14.371  12.713  0.0230 -0.1511  0.2024
16681W        W35535   1.054  11.884  15.790 -0.1904 -0.0170 -0.5220
16682W        W35536   5.528   8.682  12.343  0.0547 -0.2201  0.0516
16683W        W35537   1.699   5.503  13.516  0.0873  0.0682  0.0419
16684W        W35538   4.848  16.818   0.947 -0.2070  0.1302 -0.1549
16685W        W35539   1.114   6.680   0.368  0.1990  0.0360 -0.0297
16686W        W35540   2.004  13.133   1.477 -0.1460  0.2066  0.0515
16687W        W35541   8.110   1.518  12.549 -0.3989 -0.2390 -0.2719
16688W        W35542   5.433  14.418   3.656  0.2843 -0.2450 -0.0469
16689W        W35543   4.331   3.676  14.590 -0.1271  0.0624 -0.1753
16690W        W35544   1.992  12.310  14.829 -0.0783  0.1507  0.2439
16691W        W35545   1.185   7.652  13.678 -0.1383  0.0944 -0.0696
16692W        W35546   8.489  17.184   0.762 -0.2473  0.0937 -0.1895
16693W        W35547   2.843  14.144  16.911  0.1494 -0.1814 -0.2447
16694W        W35548  12.680   2.486   4.459 -0.1108  0.1083  0.0319
16695W        W35549  12.364  17.149  14.267  0.0810 -0.2017  0.1390
16696W        W35550  13.476  15.753   2.015  0.0796  0.1579  0.0416
16697W        W35551  10.577  11.362   2.464 -0.0275  0.1409 -0.1517
16698W        W35552  17.298  10.389   4.575 -0.1829  0.0511  0.2134
16699W        W35553  16.043   2.504  14.293 -0.0245  0.0368 -0.1806
16700W        W35554   3.752  16.600   2.728  0.0741 -0.0413 -0.0782
16701W        W35555   3.301  13.198  12.518  0.0052  0.2777  0.2821
16702W        W35556   7.812   7.037   0.186 -0.1071 -0.0206 -0.0100
16703W        W35557   6.015   1.965   1.587 -0.4514  0.1827  0.0143
16704W        W35558   7.097   4.340   0.470 -0.2662 -0.2425  0.0065
16705W        W35559  13.790  13.770  13.337 -0.0428 -0.1500  0.3572
16706W        W35560   7.131  13.967  15.221 -0.2071 -0.0621  0.1939
16707W        W35561   7.461   4.299  14.332 -0.1836 -0.0260  0.2553
16708W        W35562   2.552  17.248  14.632  0.1091  0.1038  0.1508
16709W        W35563   1.319  11.190   0.952 -0.1366 -0.0081 -0.0907
16710W        W35564   6.736   0.829   2.969  0.1863  0.0774 -0.0642
16711W        W35565  12.534   0.727   2.149 -0.1682 -0.2370 -0.2499
16712W        W35566  10.858   0.791   3.542  0.1913 -0.0048  0.1523
16713W        W35567   0.777   7.290  14.945 -0.0221  0.4559  0.1777
16714W        W35568   7.962  14.485   2.215  0.0067  0.1688  0.2213
16715W        W35569  17.271   9.920  14.804  0.0454  0.2173  0.0506
16716W        W35570   2.184   6.212  14.942  0.1373 -0.1143 -0.3187
16717W        W35571   0.414  15.052   0.647  0.3530  0.1938 -0.1016
16718W        W35572   7.334  13.916   3.384 -0.3449 -0.0244  0.3455
16719W        W35573  11.382  10.105   0.098 -0.0059 -0.0815 -0.0387
16720W        W35574   6.602  10.034   2.303  0.0799 -0.0534 -0.0634
16721W        W35575   1.228  16.336   4.296 -0.1242 -0.1707  0.1699
16722W        W35576   0.594   4.236  14.236 -0.1037  0.2455 -0.2487
16723W        W35577   3.979  14.900   1.280  0.2015  0.1313  0.1621
16724W        W35578  14.365   6.872   4.656 -0.0373 -0.1284  0.1161
16725W        W35579  12.853  12.070   2.532 -0.0764 -0.0285 -0.2250
16726W        W35580   0.007   2.171   1.855 -0.2515  0.3080  0.3097
16727W        W35581   7.127  15.584  13.400 -0.1218 -0.1023 -0.2792
16728W        W35582   2.155   8.458   3.477 -0.1918 -0.0156  0.0037
16729W        W35583  13.508   3.918  17.000  0.0423 -0.0813 -0.2253
16730W        W35584   1.902  11.097   4.580  0.1974  0.2228  0.0453
16731W        W35585   8.688  13.256   0.484 -0.0968 -0.1887 -0.0172
16732W        W35586  12.226  11.990   5.133 -0.3005  0.0523  0.3028
16733W        W35587  15.228   7.624   2.345  0.0386  0.1642  0.0212
16734W        W35588  14.559  13.632   1.690  0.0228  0.1421 -0.1883
16735W        W35589   0.262   2.393   0.359  0.0135 -0.0812  0.1056
16736W        W35590  13.883   1.621  15.686  0.1190 -0.3149 -0.2621
16737W        W35591  16.300   1.522   3.075  0.2225  0.0091 -0.3630
16738W        W35592  10.014   3.775   5.222 -0.2610  0.1360  0.2874
16739W        W35593  13.356  12.756   4.283 -0.2421  0.0993 -0.0296
16740W        W35594   0.247   7.270   1.970 -0.3412  0.3293  0.0816
16741W        W35595  13.707   6.891  13.288  0.0478 -0.0920  0.0216
16742W        W35596  10.227   7.947   3.626 -0.1616 -0.0240 -0.1992
16743W        W35597   4.085   0.437  16.272 -0.0369  0.0603  0.1977
16744W        W35598  16.647   2.677  16.138  0.1350  0.0056 -0.2335
16745W        W35599   3.553  14.161   3.698 -0.2241  0.0527  0.0911
16746W        W35600   2.741   8.978   3.111 -0.1524  0.0146 -0.1616
16747W        W35601   2.005   5.642  14.655 -0.0133 -0.0238 -0.0922
16748W        W35602  11.033   0.509  12.898 -0.1131  0.1001 -0.0486
16749W        W35603   5.502   5.402  14.981  0.1256 -0.1914 -0.3157
16750W        W35604   1.103   4.532  14.312 -0.0149 -0.0765  0.2125
16751W        W35605   1.953   7.088  16.652  0.0708  0.0490  0.0625
16752W        W35606   5.714   0.516  14.568 -0.0753  0.3509  0.0736
16753W        W35607  14.806   0.346  17.230 -0.0750  0.3269  0.0839
16754W        W35608   4.689   1.905   1.064  0.1632 -0.0416 -0.1830
16755W        W35609  15.311   9.808  12.576 -0.3051  0.1595  0.4509
16756W        W35610  15.389   3.320  16.492  0.1556  0.2506 -0.2203
16757W        W35611   2.277  11.235   3.662 -0.2060 -0.0651  0.3810
16758W        W35612   0.646   3.038   4.143 -0.1782  0.1844 -0.2680
16759W        W35613  10.910   8.866  13.742  0.0584 -0.0593 -0.0407
16760W        W35614   1.556  13.279  11.724 -0.0772  0.1533  0.0184
16761W        W35615   1.971   3.288  13.603 -0.0463 -0.2376  0.1064
16762W        W35616  12.172  13.057   0.014  0.0476 -0.1001  0.0381
16763W        W35617   5.781  14.352   1.360  0.0592 -0.1213  0.0507
16764W        W35618  12.386  12.242  16.615 -0.1313  0.1625  0.0831
16765W        W35619   6.765   5.423   5.387  0.1783  0.0187  0.1624
16766W        W35620   6.160   3.054   3.170 -0.1180 -0.1149 -0.1415
16767W        W35621   9.882  15.273  13.808  0.0156 -0.1274  0.0676
16768W        W35622   6.211   0.872  14.951 -0.1670  0.2117 -0.1025
16769W        W35623   4.721  16.028  16.844 -0.2184  0.2090 -0.0479
16770W        W35624  14.202   4.450  12.513  0.1588  0.1473 -0.1990
16771W        W35625   0.109   3.339  11.827  0.1578  0.2836  0.0916
16772W        W35626   2.477   3.451  15.337 -0.1771  0.0292 -0.0750
16773W        W35627   7.454   7.267  12.929  0.0058  0.3740  0.1488
16774W        W35628   8.928  11.100  14.456 -0.0208  0.0522  0.0945
16775W        W35629  14.720  15.260   2.856 -0.1576  0.3039 -0.0378
16776W        W35630  16.488   3.254  12.438  0.3566 -0.0782  0.1727
16777W        W35631  13.021   6.958  13.983 -0.1264 -0.2466  0.1282
16778W        W35632   3.919   4.834  14.234 -0.1413  0.2847  0.0519
16779W        W35633  15.997   0.899   0.336  0.0598 -0.2303 -0.1281
16780W        W35634   1.810   2.710  14.485 -0.2019 -0.0392 -0.0093
16781W        W35635  10.437  11.588   2.962  0.1790 -0.2602  0.1711
16782W        W35636   1.826  14.642   0.837  0.0507  0.0875 -0.4305
16783W        W35637  11.560   0.559   0.926 -0.2478 -0.0912  0.1181
16784W        W35638   6.025   6.432   1.692  0.1151 -0.1980 -0.0473
16785W        W35639  11.421   0.120  15.816 -0.2572 -0.2770  0.0880
16786W        W35640  16.105  13.839   1.662 -0.1986  0.1344 -0.4074
16787W        W35641   3.858   2.487   1.897 -0.3340 -0.1304  0.1748
16788W        W35642   0.438   5.153  14.718  0.0955  0.0343 -0.0837
16789W        W35643   1.856   5.969  13.239 -0.2237 -0.0081  0.3268
16790W        W35644   0.605   4.748  12.847  0.1971 -0.0871 -0.0246
16791W        W35645  16.064   8.211   0.104 -0.0859 -0.2657 -0.0654
16792W        W35646  12.342   6.684   2.580  0.1302 -0.3045 -0.1851
16793W        W35647  11.769   8.944  14.297 -0.1873 -0.0634  0.0850
16794W        W35648  16.907   2.389  13.829 -0.2613 -0.2713  0.0335
16795W        W35649   8.873   8.374   0.533 -0.1209 -0.0193  0.0372
16796W        W35650   5.775   9.099   4.987 -0.2406 -0.1612 -0.0738
16797W        W35651   4.696  17.107   5.067 -0.3656 -0.1940 -0.0930
16798W        W35652  17.178   9.842   1.974 -0.1570 -0.3223 -0.0407
16799W        W35653   5.651   1.242   0.455 -0.0951 -0.2378 -0.2566
16800W        W35654   1.723   9.593   2.022  0.0990 -0.0933 -0.2435
16801W        W35655   0.458   9.608   4.588  0.1037  0.2048 -0.2735
16802W        W35656  14.755   1.229  16.321 -0.0318  0.0971  0.1631
16803W        W35657   2.172   3.110  14.434  0.3073 -0.1905 -0.1626
16804W        W35658  16.494  16.006   4.549 -0.0972  0.2056  0.2319
16805W        W35659   3.144  12.012  14.223  0.2246  0.1543 -0.1630
16806W        W35660   9.481   6.834   4.321  0.1760 -0.0477 -0.2705
16807W        W35661   2.075  10.817   1.312  0.2906  0.0792  0.2414
16808W        W35662  15.666  17.340  14.521 -0.0007 -0.1749 -0.1741
16809W        W35663  11.487   0.488  12.659  0.0852  0.0055  0.0644
16810W        W35664  10.780   7.050  15.358  0.2487  0.4810  0.1843
16811W        W35665  10.286   4.699  13.428 -0.0439  0.4394  0.1239
16812W        W35666  11.995  16.976  16.464 -0.1433  0.2026  0.1559
16813W        W35667   4.848  10.148   0.892 -0.2255 -0.0618 -0.1956
16814W        W35668   0.915  15.124   0.821 -0.2879  0.1176 -0.0183
16815W        W35669  13.105   8.156  14.631  0.1418  0.0182 -0.1052
16816W        W35670   4.598  10.355  16.848  0.1403  0.0919  0.2878
16817W        W35671   0.133  12.375  15.391 -0.0358 -0.0777 -0.0635
16818W        W35672   5.340  11.763  13.660  0.2432 -0.1970  0.0740
16819W        W35673   9.499   1.294   2.318 -0.0401  0.1669 -0.0828
16820W        W35674   9.011   0.649  14.197  0.0816  0.1744  0.0531
16821W        W35675  10.433  17.058  13.737  0.1579 -0.0532 -0.0119
16822W        W35676  14.501   8.887   2.400  0.1705 -0.0064 -0.2360
16823W        W35677   9.739  11.951   4.629 -0.0754 -0.1766  0.0017
16824W        W35678  15.016   7.010  12.869 -0.2390  0.2780  0.0654
16825W        W35679   5.703  14.890   0.894  0.3546  0.0774  0.0870
16826W        W35680   1.931   4.525   5.150 -0.0995  0.0909 -0.0064
16827W        W35681   0.724  13.148  13.938 -0.0752 -0.0096  0.4550
16828W        W35682  13.721   2.974  15.351  0.0447 -0.3501  0.1177
16829W        W35683   6.559  14.082   0.440  0.1233  0.0833 -0.0358
16830W        W35684  10.533  12.023  13.422 -0.0388  0.1608  0.2377
16831W        W35685   9.885  15.405  14.341 -0.1853  0.0177 -0.1127
16832W        W35686   6.878  10.630   3.131 -0.1776  0.2507 -0.4306
16833W        W35687   9.498   6.101  15.349 -0.1171 -0.2066  0.1136
16834W        W35688   8.022   2.036  14.571 -0.2903 -0.4357 -0.2625
16835W        W35689   4.129  11.109   2.803 -0.1283  0.1070 -0.1824
16836W        W35690   0.597  17.125   5.044 -0.2615 -0.0261  0.2367
16837W        W35691  13.010   1.460  12.678 -0.3074 -0.4046  0.0090
16838W        W35692   7.941  12.717  14.881  0.2294  0.1844  0.3889
16839W        W35693   6.949   7.291   5.604  0.0725 -0.0162 -0.0918
16840W        W35694  15.187   1.246  15.112  0.0511 -0.3571  0.1568
16841W        W35695   7.109  13.038   1.821  0.4694 -0.0618 -0.1259
16842W        W35696  12.422   9.914  15.398 -0.1234  0.0825 -0.2808
16843W        W35697   3.695  15.548   3.662 -0.0010 -0.0898  0.1197
16844W        W35698  12.240  11.186  13.297 -0.2676 -0.1673  0.2462
16845W        W35699  15.539  11.009  13.317 -0.0875 -0.0271 -0.4397
16846W        W35700   0.528   0.736   3.835 -0.3287  0.0051 -0.2137
16847W        W35701  13.140   6.021  13.556  0.1726 -0.3368  0.1291
16848W        W35702   3.869   1.646   4.867 -0.1403 -0.1915 -0.0128
16849W        W35703  15.395  10.241   1.018 -0.0510  0.0956  0.0557
16850W        W35704  14.197  14.546  17.014  0.0331 -0.0716  0.0820
16851W        W35705   0.949   8.142   4.341  0.1164 -0.2986  0.1806
16852W        W35706   2.750  10.889  13.855 -0.0244  0.4589  0.0009
16853W        W35707  10.882   1.169  14.994  0.0255  0.3401  0.0520
16854W        W35708   0.441  10.968   2.384  0.0783  0.1692  0.0126
16855W        W35709  11.143   7.960  15.761  0.0498  0.2734  0.1689
16856W        W35710   4.756  12.391  13.177 -0.0347  0.3373  0.0093
16857W        W35711  15.724  16.767  13.415  0.0792  0.1494  0.3094
16858W        W35712   9.606  12.467  12.752 -0.1373 -0.2488 -0.0878
16859W        W35713  14.669  17.050  15.371 -0.4203 -0.0400  0.0145
16860W        W35714   2.203   1.495  12.055  0.0093 -0.0332  0.1697
16861W        W35715  10.699   6.371   2.017 -0.3215 -0.0245  0.1472
16862W        W35716  11.142  11.877  13.096  0.1948  0.2630 -0.0099
16863W        W35717   9.161   2.385  14.144  0.0085  0.1432 -0.2162
16864W        W35718  16.565   0.497  12.781  0.1779  0.2989 -0.0318
16865W        W35719   3.342   1.706  16.471 -0.3726 -0.2696  0.0339
16866W        W35720   0.369   6.751  14.360 -0.0115  0.1226  0.2956
16867W        W35721   4.251  11.277  15.070  0.1622  0.0732 -0.1867
16868W        W35722   9.944  10.447   2.940 -0.0039 -0.1613  0.1948
16869W        W35723   8.478  17.267  13.061 -0.4708  0.1684  0.1859
16870W        W35724   4.052   1.820   5.288  0.1769 -0.1180 -0.0033
16871W        W35725  11.472   0.761   2.407  0.0405  0.1716  0.2696
16872W        W35726   4.305  13.768   0.383 -0.0340 -0.0328 -0.0512
16873W        W35727  15.935   1.486   1.459 -0.0456  0.2850  0.1057
16874W        W35728  12.693  15.350   2.737 -0.0433  0.2319  0.2697
16875W        W35729  12.411   6.112  12.880  0.1358  0.0123 -0.3339
16876W        W35730  16.664  14.335  13.759 -0.0588  0.0665 -0.1601
16877W        W35731  14.195   9.741  15.767  0.1639  0.0129 -0.2446
16878W        W35732  17.257   7.655  13.474  0.0805 -0.0407  0.0367
16879W        W35733   8.861   3.998   3.854 -0.1968 -0.0597  0.0824
16880W        W35734  13.078   4.598  17.304  0.0952 -0.0176  0.0708
16881W        W35735   5.609   7.147  14.624 -0.1160 -0.0748  0.1316
16882W        W35736   0.833   5.077   1.272 -0.1539 -0.2268  0.0360
16883W        W35737   9.073   4.221   0.457 -0.0838 -0.0217  0.2035
16884W        W35738   5.242   2.586  14.663  0.0116  0.2789 -0.0891
16885W        W35739   8.719   1.476  14.489 -0.1885 -0.0806 -0.0190
16886W        W35740   0.615   8.078   2.945 -0.0124 -0.2433 -0.0351
16887W        W35741   9.621  10.843  13.532  0.1579 -0.1816 -0.0125
16888W        W35742  15.561  10.995   0.894 -0.2560  0.0988  0.0485
16889W        W35743  12.079   4.038   5.134 -0.0355 -0.0665 -0.2217
16890W        W35744   4.161   4.816   5.136 -0.2206 -0.1511 -0.4729
16891W        W35745   6.129   7.227   5.149 -0.2297  0.0434  0.1476
16892W        W35746   2.436  13.328  12.707  0.0615 -0.2081 -0.0220
16893W        W35747  14.822  10.818   1.362  0.0482  0.0399 -0.2642
16894W        W35748   4.583  10.997   4.067 -0.0873 -0.3334 -0.2331
16895W        W35749  10.612  16.212   2.588 -0.0891  0.0525 -0.0133
16896W        W35750  12.378   4.970   0.814 -0.1597 -0.0209 -0.2105
16897W        W35751   4.739   3.409  14.885 -0.1716 -0.1116  0.0294
16898W        W35752  14.393   7.994  17.421  0.0580 -0.0793 -0.2793
16899W        W35753  12.036  11.419  17.010 -0.0620  0.1892  0.3019
16900W        W35754  15.164  14.536  13.941 -0.1557  0.0435  0.1804
16901W        W35755   6.171  16.700   3.880  0.0891 -0.0716 -0.0686
16902W        W35756   3.530   8.661  12.632 -0.0729  0.1198 -0.0601
16903W        W35757   2.708   4.855   2.440  0.2584 -0.1451  0.1032
16904W        W35758   1.808  14.991   5.465 -0.2240 -0.0782  0.2354
16905W        W35759   9.097  12.126   4.248  0.1696 -0.3203  0.2496
16906W        W35760   6.535   6.943   0.804 -0.0984 -0.0966  0.2322
16907W        W35761   6.275  12.270  12.288  0.1759 -0.1192 -0.2245
16908W        W35762  11.391   7.054   4.183 -0.2326  0.3911 -0.1680
16909W        W35763   8.793  13.378  17.448  0.0010 -0.0426  0.2348
16910W        W35764   3.922   3.070  13.836 -0.1272 -0.2046 -0.2508
16911W        W35765  14.737   3.563  16.221 -0.2377 -0.1156  0.1419
16912W        W35766   7.483  13.283  17.436  0.1639 -0.1055  0.2633
16913W        W35767   0.325   2.212  15.354  0.0300 -0.1619 -0.3880
16914W        W35768   3.987   3.622  15.008 -0.3765  0.1447 -0.1606
16915W        W35769  12.986  13.778   1.162 -0.0041 -0.0774  0.2017
16916W        W35770   3.225   9.731   1.005 -0.0499 -0.1150 -0.1555
16917W        W35771   9.471   5.998   1.556  0.0440 -0.3178 -0.0004
16918W        W35772   9.336  11.226   3.840  0.1800 -0.1887 -0.0213
16919W        W35773  16.732   7.395  16.776  0.0781  0.0459 -0.0764
16920W        W35774   3.430   7.960  17.204 -0.0222  0.3109  0.0211
16921W        W35775   8.327   7.023   4.944  0.0880 -0.0419 -0.0145
16922W        W35776  13.153   0.199   1.918 -0.0001  0.0012  0.0406
16923W        W35777   2.207   9.787  15.747 -0.0388  0.1112  0.0662
16924W        W35778  14.613  16.109  15.523 -0.3021 -0.1226  0.0564
16925W        W35779   5.787   6.780  16.001  0.1954 -0.0399  0.2897
16926W        W35780   4.007   7.695  15.596 -0.0822 -0.0269  0.0470
16927W        W35781   7.890   7.249   1.738  0.0365  0.2653 -0.3330
16928W        W35782   5.790   0.574  13.073  0.0175  0.0695  0.1401
16929W        W35783  11.064   3.534  15.526  0.4784 -0.0988 -0.0238
16930W        W35784   1.033   8.074  16.453  0.0233  0.1562  0.0598
16931W        W35785   6.232   9.911   1.566 -0.0292 -0.2899 -0.0459
16932W        W35786   6.424   8.818  15.027  0.1910 -0.0923 -0.0574
16933W        W35787   9.607  13.937  15.534  0.2307  0.1323  0.0574
16934W        W35788   5.925  13.210  12.758  0.0225 -0.1668 -0.1112
16935W        W35789   8.704   9.929  12.974  0.2053  0.0687 -0.0042
16936W        W35790  16.715  16.729   4.956 -0.2396  0.1906  0.4598
16937W        W35791  11.176   3.732  16.867  0.2090  0.1916  0.0270
16938W        W35792  15.502  10.228  12.727 -0.2328 -0.0157 -0.0441
16939W        W35793   1.198   8.985  15.674 -0.3241  0.0085 -0.0954
16940W        W35794   7.092  13.592   4.200 -0.0299  0.1662  0.0906
16941W        W35795   2.588  11.183  13.468 -0.2484  0.0833  0.1946
16942W        W35796   9.227   8.712   3.888 -0.1991  0.1470 -0.0161
16943W        W35797  17.036   4.678  14.428 -0.1718 -0.2161 -0.4623
16944W        W35798   6.616  15.646   3.196  0.0053  0.1741 -0.1057
16945W        W35799  13.873   3.165   0.729  0.2945 -0.1334 -0.3065
16946W        W35800   8.116   5.378   1.177 -0.0846 -0.3137  0.0384
16947W        W35801   3.699  14.037   3.217 -0.2594  0.1529  0.1084
16948W        W35802   3.190   1.770  12.211 -0.2111  0.2953  0.2418
16949W        W35803  12.053  14.661   1.465 -0.0683  0.0289  0.3117
16950W        W35804   9.494  11.087   6.271  0.0984 -0.1468  0.0764
16951W        W35805   4.385   9.165  14.146  0.1231 -0.0907  0.0481
16952W        W35806   5.389   9.057  13.836 -0.2484 -0.2968 -0.0491
16953W        W35807  10.039  12.455  15.233  0.4275 -0.1393 -0.1375
16954W        W35808   3.764   7.938   0.165 -0.0119  0.0493 -0.0136
16955W        W35809   1.672   0.085   3.409  0.0352  0.2699  0.3581
16956W        W35810   6.842  12.149  13.117  0.0485 -0.1919  0.1382
16957W        W35811  11.403  10.596  15.286 -0.0541 -0.0269 -0.0837
16958W        W35812  16.794   9.226   4.578 -0.0795  0.0548  0.1008
16959W        W35813   1.798   2.623   0.337 -0.2489  0.0313 -0.1851
16960W        W35814   7.806   7.435   5.106 -0.0058 -0.1534 -0.2513
16961W        W35815  16.713  11.963   1.788  0.1969 -0.0065  0.0136
16962W        W35816  17.172  10.053   2.429 -0.1417 -0.0611  0.0740
16963W        W35817   7.906  15.132   1.014 -0.1251 -0.1348  0.1007
16964W        W35818  13.900   3.932   2.836  0.2254  0.1788  0.0025
16965W        W35819   9.933   5.700   3.883 -0.2974  0.2177  0.1267
16966W        W35820  14.754   6.383   1.984 -0.2273 -0.1652  0.3162
16967W        W35821  10.924  11.423   2.129 -0.3147  0.0462 -0.0372
16968W        W35822   4.457   8.930   5.252  0.2067 -0.4290  0.3086
16969W        W35823  17.118   0.224   1.824 -0.1804 -0.2905 -0.1182
16970W        W35824   3.570   7.540  13.608  0.3704 -0.0399 -0.1379
16971W        W35825   8.594  16.239   1.376  0.1130 -0.0166 -0.0167
16972W        W35826  12.570   3.033  13.642 -0.0148  0.0186 -0.0430
16973W        W35827   2.417   6.203   4.823  0.0662  0.1078 -0.1571
16974W        W35828   1.737  11.487   3.759  0.1357 -0.1804  0.0607
16975W        W35829  17.329   1.210  16.913 -0.0841  0.0505  0.1140
16976W        W35830   6.976   9.598  15.098  0.2961  0.2768  0.0161
16977W        W35831  13.030   3.191  15.397 -0.1619 -0.0870 -0.3320
16978W        W35832   8.519   2.308  13.813  0.0110 -0.0190 -0.1908
16979W        W35833   8.102   8.709   4.616  0.0894  0.1946 -0.0974
16980W        W35834  12.437   4.779  13.718  0.3770 -0.0718 -0.0100
16981W        W35835   9.957   7.081  16.328  0.0237  0.1688 -0.0692
16982W        W35836  13.942   5.676  14.376  0.2647  0.1152  0.0660
16983W        W35837  15.832  14.492  13.583 -0.0256 -0.0470  0.1876
16984W        W35838   6.629   6.849  14.654  0.0281 -0.0002 -0.1280
16985W        W35839   6.781  16.389  13.357  0.0449  0.1717  0.2658
16986W        W35840   2.404  15.208  11.456 -0.2531  0.2763  0.1189
16987W        W35841   5.740   5.563   0.522  0.1175  0.0747  0.1831
16988W        W35842  12.611  15.527  14.609  0.0173 -0.0994 -0.0244
16989W        W35843   5.667   1.814   1.879  0.0723  0.0506  0.1256
16990W        W35844  14.947  14.217   0.734 -0.0934  0.0381  0.4471
16991W        W35845  17.079   6.870  15.957 -0.0454 -0.0657  0.2240
16992W        W35846  12.790   1.080  16.355 -0.0370 -0.0581  0.0151
16993W        W35847   9.482   2.839  13.347 -0.1173 -0.2423 -0.3760
16994W        W35848  11.033  16.250   2.313 -0.0633  0.2703 -0.0202
16995W        W35849  13.672  13.726  15.915  0.0013 -0.1842 -0.1708
16996W        W35850  14.987   7.822  14.355 -0.1470 -0.1373 -0.0972
16997W        W35851   7.223   8.437  14.580 -0.2428  0.0004 -0.0669
16998W        W35852   0.264   7.678   1.001  0.1032 -0.2269 -0.1416
16999W        W35853  16.441   5.998   4.414  0.1948 -0.2776  0.3445
17000W        W35854   8.523   8.262  16.444 -0.0775 -0.2292 -0.0215
17001W        W35855  15.533   2.695  13.697 -0.0729 -0.0784  0.1536
17002W        W35856  17.112  12.312  15.943  0.0518 -0.1263 -0.1023
17003W        W35857   6.645  11.868  16.860  0.2857 -0.0661 -0.4986
17004W        W35858   6.425   4.289  13.832  0.2559 -0.0889  0.0767
17005W        W35859  13.140   2.502   2.486  0.1877  0.0915  0.2445
17006W        W35860  11.878   7.216   3.339 -0.4618 -0.0908 -0.0341
17007W        W35861  12.165  10.153   1.142 -0.0589  0.0728  0.0367
17008W        W35862  15.782   4.784   2.424 -0.0336 -0.0235  0.1546
17009W        W35863   5.095   9.852  13.176 -0.0505 -0.2451  0.0423
17010W        W35864   1.344  17.283   2.330 -0.0481  0.0781  0.0671
17011W        W35865  10.415   3.205  12.404 -0.0307  0.2036 -0.0320
17012W        W35866   9.266   8.467   0.203 -0.0309 -0.1535  0.0255
17013W        W35867   8.427  15.590  12.796  0.0636 -0.1134  0.0563
17014W        W35868  16.327   4.825   1.723  0.0425  0.0370  0.0271
17015W        W35869  10.869   1.582   1.052  0.2999  0.1099  0.3406
17016W        W35870  10.138   1.268   2.978  0.0421  0.0019  0.2383
17017W        W35871  10.769   4.631  14.170  0.1614  0.2897  0.3191
17018W        W35872   0.896  12.812  13.510  0.2399  0.3253  0.0256
17019W        W35873   5.436   5.725  14.584 -0.0338  0.1316 -0.2415
17020W        W35874   4.867   6.044   0.248 -0.4954 -0.0405  0.1057
17021W        W35875  15.875  16.253   2.261  0.1085  0.0431 -0.0249
17022W        W35876  15.266   2.841  16.240  0.1072 -0.2825 -0.1086
17023W        W35877   9.860   2.880   4.811  0.1071 -0.0319 -0.0275
17024W        W35878   8.010   9.614   4.274  0.1674 -0.2342  0.0769
17025W        W35879  10.137   8.688   1.208  0.1670 -0.1311  0.1123
17026W        W35880  12.071  11.167  15.674 -0.3068  0.2895  0.1948
17027W        W35881   9.404   3.466   4.111  0.3247 -0.0368 -0.1422
17028W        W35882  16.107  11.843  15.834 -0.0757 -0.0587 -0.2649
17029W        W35883  10.076  14.911   3.310  0.0700  0.1288  0.0658
17030W        W35884  16.928   1.427   3.087  0.0143  0.1642 -0.0411
17031W        W35885   5.500  12.078  16.214  0.1202 -0.3042 -0.3420
17032W        W35886  13.165  15.643  17.050 -0.0780  0.3359 -0.0873
17033W        W35887   4.592  11.944  16.402  0.0975 -0.2113  0.0699
17034W        W35888  15.455  13.212   3.836  0.2405  0.1580 -0.0151
17035W        W35889  11.227  15.482  12.785  0.0125  0.0622  0.0582
17036W        W35890   8.860  12.323   0.831  0.0879  0.0463 -0.0470
17037W        W35891   5.433  16.678  15.954  0.1587 -0.1397 -0.4125
17038W        W35892  10.806   0.706  15.210 -0.1985 -0.2567  0.3317
17039W        W35893   7.200  13.662  11.538 -0.1201 -0.0556 -0.0602
17040W        W35894   9.200   9.723  13.117 -0.1029  0.2714 -0.1611
17041W        W35895   5.957   1.601   4.559 -0.2867 -0.1182  0.0364
17042W        W35896   2.303   4.514   0.453 -0.0691  0.1840  0.3319
17043W        W35897   6.008  11.711   2.794  0.0370  0.1615 -0.0855
17044W        W35898   6.201   4.844  15.977  0.0718  0.1869 -0.1859
17045W        W35899   4.467   7.709  16.805 -0.1735  0.2189 -0.0229
17046W        W35900  12.141  15.902  14.753 -0.0307 -0.2135 -0.0857
17047W        W35901  15.188   2.649  14.516  0.0265 -0.0029  0.2201
17048W        W35902   3.489  11.893   0.776  0.3879 -0.1075 -0.1982
17049W        W35903  14.284  14.913  12.607  0.1142  0.0266  0.0283
17050W        W35904  15.660  16.349  17.208  0.0878 -0.1815  0.1054
17051W        W35905  10.765  15.125  17.388  0.0126 -0.1703  0.0532
17052W        W35906   9.244   0.844   0.000 -0.1969 -0.0241 -0.2349
17053W        W35907  16.016   5.410  14.923  0.4850 -0.2779  0.1483
17054W        W35908   5.755  11.720   3.230 -0.2738  0.2041 -0.1165
17055W        W35909   0.761   5.566   2.167  0.1266  0.3438 -0.1199
17056W        W35910  16.038   9.326   3.835 -0.0639  0.1336 -0.2898
17057W        W35911  11.085  16.510  12.983 -0.1980 -0.3569 -0.1447
17058W        W35912  14.807  16.766  12.295  0.1791  0.0284  0.1008
17059W        W35913   6.594  16.742  12.804 -0.1830 -0.1864 -0.0014
17060W        W35914  10.281  11.767   4.632  0.2042  0.2192  0.3059
17061W        W35915   8.155  12.801   0.859 -0.0018  0.2160  0.1984
17062W        W35916   0.579  15.359  12.746  0.2070  0.1081 -0.1672
17063W        W35917  13.158   3.522  16.438  0.2576  0.1716 -0.1265
17064W        W35918  12.797  14.384   3.309  0.2678  0.0435 -0.0009
17065W        W35919   1.850   8.744  12.391 -0.0165 -0.1045 -0.1843
17066W        W35920  15.735   0.967  17.261  0.0409  0.3659  0.3089
17067W        W35921   7.672   8.876  12.372 -0.2960  0.1990  0.0254
17068W        W35922  11.035   0.547  12.403 -0.2539 -0.0490  0.1738
17069W        W35923   5.625  13.754  12.710 -0.1283 -0.0717  0.3537
17070W        W35924  15.304  15.465  17.347  0.2150  0.0403  0.1210
17071W        W35925  12.916  15.046   1.092 -0.1410  0.1471  0.1027
17072W        W35926  13.672   1.422  12.600  0.2922  0.2091  0.1930
17073W        W35927  10.344   9.431  12.148  0.1140  0.2569 -0.2774
17074W        W35928   5.743   3.138   2.054 -0.1823  0.0754 -0.0998
17075W        W35929   1.772  15.625   1.979  0.0756 -0.0509  0.0670
17076W        W35930   9.443   0.063   2.045 -0.0173  0.1937  0.1320
17077W        W35931  14.077  13.051   4.899  0.1685 -0.1551 -0.2076
17078W        W35932   0.786   4.034   1.737 -0.2825  0.1160  0.0403
17079W        W35933   7.765  16.466   1.042  0.0367 -0.1615 -0.1451
17080W        W35934   1.356   6.212  11.997  0.1601 -0.3747  0.2919
17081W        W35935  17.238   0.958   5.248  0.0507 -0.0644  0.3737
17082W        W35936   1.689  11.024   1.736  0.0365  0.0809  0.1974
17083W        W35937   0.810   6.360  14.951 -0.2539  0.1610 -0.0069
17084W        W35938  13.691   8.066   1.863 -0.2144  0.0427  0.0613
17085W        W35939   0.961  10.503   2.980  0.1226  0.0386  0.0190
17086W        W35940   4.957  11.459  14.181 -0.0849  0.2514  0.3929
17087W        W35941   4.429  10.214  12.510 -0.0556  0.1986  0.1829
17088W        W35942  15.294   6.765  17.281  0.4000  0.2135 -0.1505
17089W        W35943  15.876  12.518   1.262 -0.1962 -0.6408 -0.0445
17090W        W35944   2.841  10.892  15.321  0.0602  0.4122 -0.0325
17091W        W35945  10.319   8.824   0.279 -0.2483  0.2218 -0.0430
17092W        W35946   3.383  13.604   1.881 -0.2306 -0.0887 -0.2097
17093W        W35947  14.825  16.441  17.170 -0.1849  0.2543 -0.1894
17094W        W35948   4.466  11.026   1.126  0.0003 -0.1801 -0.0309
17095W        W35949  12.202   4.976   2.552 -0.0997  0.0170  0.0983
17096W        W35950  16.555  14.653  14.625  0.0661  0.1243  0.0264
17097W        W35951   8.558   4.756  15.741 -0.2156 -0.0809  0.2448
17098W        W35952  11.191  13.605  14.377 -0.0794 -0.3864 -0.0416
17099W        W35953   3.357   5.638  17.062 -0.0641  0.1223  0.0001
17100W        W35954   8.319  14.529   5.475 -0.1646 -0.2574  0.2669
17101W        W35955   8.498  10.579  13.958  0.0512  0.0355 -0.1025
17102W        W35956   1.322  13.518   4.009  0.2197 -0.1071 -0.0991
17103W        W35957   4.133  12.835  14.748  0.0242 -0.0724  0.1406
17104W        W35958   8.276   1.195   3.134 -0.0895 -0.1335 -0.1130
17105W        W35959   1.057  16.830  16.679 -0.1629 -0.4958 -0.1280
17106W        W35960   3.907  14.101  13.893 -0.1839  0.2736 -0.2761
17107W        W35961   2.959  14.166   5.162  0.0651  0.1275  0.2409
17108W        W35962   8.834   4.080   5.733  0.0907 -0.1634 -0.0935
17109W        W35963  13.226   5.524  11.454 -0.0587  0.0059  0.0228
17110W        W35964   2.852   0.216   4.214 -0.2636  0.1582 -0.1244
17111W        W35965  10.781   1.500  16.914 -0.0155 -0.0503  0.0489
17112W        W35966  15.080   9.347   0.539 -0.1221  0.1943  0.2771
17113W        W35967  10.074   0.043   0.576  0.1832  0.1625  0.1942
17114W        W35968  16.198   3.108   4.732  0.0445  0.2259  0.0248
17115W        W35969   5.338  13.179  13.594 -0.2918 -0.0031 -0.0680
17116W        W35970   5.553  17.216  15.034  0.0719 -0.0552  0.2323
17117W        W35971   1.109  17.157   4.893 -0.0078  0.2035  0.0787
17118W        W35972   9.542  10.430   0.801 -0.0041  0.1010 -0.0049
17119W        W35973   1.527  10.426   1.887 -0.1693  0.1991 -0.0003
17120W        W35974   0.182   0.948   3.547 -0.0564  0.0965  0.2112
17121W        W35975   3.958  12.697   3.722 -0.0314 -0.1279 -0.2243
17122W        W35976   3.328   5.801   1.857 -0.1187  0.3197 -0.1111
17123W        W35977   3.748  12.347   0.578 -0.1709  0.0149  0.0863
17124W        W35978   9.694  14.972   3.716  0.0501  0.4029 -0.3783
17125W        W35979   3.150  14.609   1.710  0.0722 -0.1553 -0.1864
17126W        W35980  13.331   5.429  14.941  0.0637 -0.1441  0.0619
17127W        W35981   9.556  13.091  17.441  0.0233 -0.1270  0.2385
17128W        W35982  13.902  11.163   2.755  0.0633  0.0262 -0.5021
17129W        W35983  14.025  15.582  16.527 -0.2013  0.1228 -0.1886
17130W        W35984   8.465  11.658   2.526 -0.0084 -0.1694  0.0114
17131W        W35985   7.623   6.055   4.362 -0.2593  0.0468 -0.2085
17132W        W35986  14.839   6.509   3.908  0.0891  0.0307  0.0650
17133W        W35987   5.947  13.818  13.539 -0.0132 -0.0208  0.0431
17134W        W35988  15.793   5.143  16.198  0.0426  0.1272 -0.2698
17135W        W35989   9.889   2.268   0.332 -0.2059 -0.1097  0.2735
17136W        W35990   3.817   2.755   6.451 -0.2129  0.1285 -0.0067
17137W        W35991   7.585   4.033   3.218  0.0755  0.2340 -0.2020
17138W        W35992   3.751  10.561   4.733  0.2787  0.0414  0.0552
17139W        W35993   1.273   5.123  14.818 -0.0970  0.1034  0.0080
17140W        W35994  11.825  11.040  14.464  0.0197  0.3693  0.0241
17141W        W35995   2.284   1.968  16.840 -0.0957  0.1835  0.3116
17142W        W35996  13.583  11.931   1.443  0.3761  0.0910 -0.0794
17143W        W35997  16.351  15.323   2.364  0.1153 -0.0692  0.3014
17144W        W35998   6.776  17.116  13.806 -0.0598  0.0721  0.0251
17145W        W35999   9.156   1.671   4.484 -0.0840  0.0755  0.0268
17146W        W36000   8.281  17.123   5.420  0.0312 -0.0784 -0.0468
17147W        W36001  13.538   9.478   0.034  0.1664 -0.3183 -0.1493
17148W        W36002   6.343  13.740   0.775 -0.0650  0.1081  0.0615
17149W        W36003   3.977   0.386   0.630 -0.1235  0.3102  0.1653
17150W        W36004  14.110   9.236   1.549 -0.1088  0.0942  0.1417
17151W        W36005   9.439   4.968   3.754  0.1213 -0.0888 -0.0603
17152W        W36006   3.421  17.087  12.419  0.0483 -0.1675 -0.0499
17153W        W36007   1.776  11.670  15.173 -0.0586  0.1228  0.0948
17154W        W36008  10.876   1.395  13.982 -0.2329  0.0177  0.1044
17155W        W36009   1.420   8.426  16.392  0.0147  0.0199  0.0496
17156W        W36010  15.457   8.254  13.355  0.0706  0.2061 -0.3404
17157W        W36011   9.514  13.920   2.969  0.1150 -0.2005 -0.1261
17158W        W36012  14.496   5.935   0.697  0.4680  0.0697 -0.1016
17159W        W36013   2.938  12.300   4.795 -0.1717 -0.1554  0.1660
17160W        W36014  15.220   6.601   5.685  0.1959 -0.1678 -0.0094
17161W        W36015  12.899  13.749   2.620  0.0501  0.1535  0.1695
17162W        W36016  15.933  14.347   3.918 -0.0182  0.1155  0.2674
17163W        W36017  13.088   9.362   1.613 -0.1537  0.1457 -0.2333
17164W        W36018   9.550  10.425  13.996 -0.0186 -0.1473 -0.2562
17165W        W36019   9.466   1.102  12.863 -0.1436 -0.0768  0.4694
17166W        W36020  12.128   4.409  16.868 -0.0643  0.1703  0.1774
17167W        W36021  11.561   1.315  14.321  0.1364 -0.0356 -0.0632
17168W        W36022  17.088   5.304   3.621 -0.0120 -0.1215 -0.0420
17169W        W36023   1.283   3.993  12.154  0.0816  0.3318  0.1247
17170W        W36024   0.436  10.741  16.009 -0.0492  0.0664  0.2343
17171W        W36025  12.332   4.518   4.456 -0.1111 -0.1592 -0.1470
17172W        W36026   5.780  10.119  12.709 -0.0444  0.1184  0.0474
17173W        W36027   3.551   9.879   3.016 -0.0382  0.0763  0.0998
17174W        W36028   0.650  15.118   2.722 -0.0614 -0.0412  0.1215
17175W        W36029   3.921   9.982   0.599 -0.0272 -0.2307  0.1658
17176W        W36030   3.197   2.545  16.099  0.0567  0.0010  0.1104
17177W        W36031   3.088  14.707  16.208  0.0540 -0.1250 -0.1549
17178W        W36032   3.593   2.705  15.184  0.1836  0.1083 -0.0513
17179W        W36033  14.769   4.726  15.117  0.1811 -0.0052 -0.2577
17180W        W36034  11.185   4.462   1.242  0.2153 -0.1208 -0.3247
17181W        W36035  17.089  15.777   2.966  0.1872  0.2176  0.1035
17182W        W36036  15.859   3.786  13.468 -0.0993  0.1225  0.0057
17183W        W36037  11.000  12.486  16.039  0.0661 -0.2948 -0.0826
17184W        W36038   1.202   4.310   1.470 -0.1041 -0.1744  0.1718
17185W        W36039  11.053  12.010   1.236  0.1421  0.1164  0.0366
17186W        W36040   2.089   7.769  12.817  0.0853  0.2960 -0.1516
17187W        W36041   8.878   4.425   1.453 -0.0219  0.2063  0.2955
17188W        W36042   0.365  14.761   3.823  0.2540  0.0981 -0.1761
17189W        W36043   9.288   8.055  13.579  0.3188  0.0758 -0.1323
17190W        W36044   6.934  15.580   0.883 -0.0916  0.2266 -0.1815
17191W        W36045   6.259  13.296   0.384  0.0471  0.0008 -0.0938
17192W        W36046   1.133   9.513   2.626  0.3713 -0.1442 -0.1210
17193W        W36047   8.665  15.192   3.792  0.2170 -0.3393  0.0231
17194W        W36048  15.243   6.845   3.071  0.0319  0.1680  0.2168
17195W        W36049   6.927   1.002   3.539 -0.1964 -0.3159  0.0285
17196W        W36050  15.768  16.491  14.571  0.5517  0.0812  0.0293
17197W        W36051   1.808  13.648   3.973  0.1472  0.1318  0.3333
17198W        W36052   2.849   5.831   2.165  0.1251 -0.1591 -0.2426
17199W        W36053   6.402  12.700  17.401 -0.1303 -0.3471 -0.4002
17200W        W36054   5.783  13.001   3.306 -0.0541 -0.0687  0.3929
17201W        W36055   1.932   6.475  14.577 -0.0823 -0.0754  0.0771
17202W        W36056  10.962   9.829  13.312 -0.0947  0.1355  0.1719
17203W        W36057  13.896   8.870  12.470  0.0250  0.0263  0.0118
17204W        W36058   0.847   8.336   1.705  0.0607 -0.1691 -0.3494
17205W        W36059  10.863   5.826   1.938  0.2354 -0.1648  0.1709
17206W        W36060   2.771   3.821  12.508 -0.1567 -0.2316  0.2223
17207W        W36061  11.814   8.653  15.933  0.3594 -0.1207 -0.1836
17208W        W36062   9.529   7.787  14.967 -0.3174 -0.1546 -0.0441
17209W        W36063  10.912   3.423   3.057 -0.0118 -0.0067 -0.0651
17210W        W36064   8.151   7.456   3.330 -0.0643  0.3173 -0.2916
17211W        W36065   9.003   7.016  13.662  0.1214  0.0254 -0.2454
17212W        W36066  16.684  14.471   2.206 -0.1994  0.2573 -0.3056
17213W        W36067   4.243  15.272  15.726  0.2870  0.1311 -0.0177
17214W        W36068  11.018  16.903  12.539  0.0071 -0.2909 -0.2266
17215W        W36069   1.415   8.652  15.230  0.3037  0.0532  0.1582
17216W        W36070   9.036   0.050   1.717 -0.2585  0.2783 -0.1471
17217W        W36071  16.462  16.407  14.057 -0.2176 -0.0729 -0.0954
17218W        W36072   6.220  15.890   1.228  0.1353 -0.2256 -0.0444
17219W        W36073  16.568   0.842  15.932  0.2597 -0.1930 -0.1207
17220W        W36074   7.527  11.471  14.840 -0.2459  0.1186 -0.0829
17221W        W36075   5.524  12.127  14.509 -0.0798 -0.0405  0.3357
17222W        W36076   6.324  14.266   2.323 -0.3963  0.0298  0.0414
17223W        W36077   6.612  14.050  12.395  0.0755 -0.0241  0.2679
17224W        W36078  13.740   0.467  14.553 -0.1344 -0.0483  0.0358
17225W        W36079  11.372   1.918   5.490 -0.1545  0.3258  0.1588
17226W        W36080  11.414   4.229  16.951  0.0598 -0.3135  0.1971
17227W        W36081   2.907   3.974   1.111  0.1039 -0.1276  0.1680
17228W        W36082   7.015   6.321  13.348 -0.1434  0.0748 -0.0030
17229W        W36083   0.307   3.136  13.686  0.0989 -0.1769 -0.2335
17230W        W36084  16.561   4.084   3.992 -0.0401 -0.0248  0.4882
17231W        W36085   6.595   9.917  12.846  0.0978 -0.1804  0.0817
17232W        W36086   9.721  10.086   3.223 -0.1694  0.0537 -0.1244
17233W        W36087  11.292   2.017  14.797 -0.1856  0.1057  0.0055
17234W        W36088  10.655   0.286  16.585  0.2002 -0.1699  0.0090
17235W        W36089   2.972  14.994   4.027  0.2516 -0.2508  0.0003
17236W        W36090   2.842   5.131  17.436  0.1425 -0.1140 -0.0126
17237W        W36091   4.623  11.639  14.580  0.0171  0.0865  0.0604
17238W        W36092  10.397   9.199  12.710  0.0120 -0.0198  0.1864
17239W        W36093  14.444   6.246   1.619 -0.0199 -0.0902  0.1442
17240W        W36094  15.660  15.030  14.488  0.1975 -0.3977 -0.1711
17241W        W36095  10.527   7.901  14.738 -0.1827 -0.0543 -0.1006
17242W        W36096  13.458   4.341  16.049 -0.0171  0.0695 -0.1020
17243W        W36097   3.068   2.757  17.419  0.1381  0.3141 -0.2525
17244W        W36098   1.593  16.182   0.873  0.0046 -0.1289 -0.1287
17245W        W36099  15.723   9.580   4.915 -0.0657  0.1749  0.1845
17246W        W36100  14.242   5.008   3.248  0.1181  0.1372 -0.1929
17247W        W36101   9.845  15.564   0.943  0.0692  0.1426  0.2049
17248W        W36102  11.132  14.654  13.069  0.0397  0.3090 -0.1104
17249W        W36103  15.730  15.303   5.082 -0.1770  0.0499 -0.0244
17250W        W36104   0.838   9.879  16.092  0.0947 -0.0965 -0.1149
17251W        W36105  12.437   9.696  13.625  0.1896  0.4280  0.2238
17252W        W36106   9.265   3.279  13.464  0.0812 -0.2687  0.1489
17253W        W36107   0.655   5.592   3.523  0.2237 -0.2272  0.0989
17254W        W36108  11.439  14.460   0.872  0.0612 -0.1628  0.0671
17255W        W36109  11.059  14.059   2.590  0.0708 -0.0513 -0.0033
17256W        W36110  13.793   4.233   0.365  0.1071 -0.1603  0.1526
17257W        W36111  15.860  17.211   2.361 -0.0080 -0.0638 -0.0453
17258W        W36112   6.232  15.026   3.824  0.0747  0.1117  0.0189
17259W        W36113   2.625   3.031  16.481 -0.1263  0.1442 -0.1549
17260W        W36114   3.095  12.892  13.194 -0.0066  0.2769  0.1848
17261W        W36115  12.399   9.096  16.446 -0.1138 -0.1333 -0.3755
17262W        W36116   3.260   7.336   2.080 -0.0255  0.0755  0.1590
17263W        W36117   1.140   4.813   2.096  0.0108 -0.2211 -0.1723
17264W        W36118   0.470   4.882   1.037 -0.1027 -0.0856 -0.2712
17265W        W36119   5.452   7.837   2.580  0.0417  0.0740 -0.2292
17266W        W36120   7.633  17.233   0.927 -0.0090  0.2161  0.0114
17267W        W36121  14.157   4.557  13.870 -0.1045 -0.1337  0.2636
17268W        W36122  11.078   1.216   1.332 -0.0225  0.0971  0.1726
17269W        W36123   3.985   0.855  14.840  0.4043 -0.2537 -0.1385
17270W        W36124  10.330  16.614   1.218  0.3605  0.1767  0.0437
17271W        W36125   2.730   4.596   3.730 -0.1125 -0.1928  0.0796
17272W        W36126  12.828  13.121  15.064  0.0061 -0.2357 -0.2087
17273W        W36127   3.739   0.546  13.352  0.1737  0.2758  0.2454
17274W        W36128   8.571   3.660   0.847 -0.1715 -0.1206  0.0292
17275W        W36129  16.826   2.785   3.205  0.1449  0.1189  0.0792
17276W        W36130   5.488   5.466   2.108  0.0931  0.2054  0.3577
17277W        W36131  15.541   3.901   2.624 -0.0478  0.0537 -0.3195
17278W        W36132  13.929  14.583  15.621  0.1128  0.0530  0.1057
17279W        W36133   1.220   7.774  17.389  0.3579  0.3230 -0.0833
17280W        W36134   8.462   8.423   4.391  0.0981  0.2866 -0.4252
17281W        W36135   0.666  10.726  13.294  0.1606  0.1227  0.1753
17282W        W36136   8.800   6.927   5.049  0.1941  0.0811  0.0375
17283W        W36137  14.096  13.746   3.601  0.2285  0.1145 -0.1415
17284W        W36138  13.385  11.766  16.956 -0.1299 -0.0354  0.2437
17285W        W36139   8.559  10.666   4.907 -0.1123 -0.1311 -0.1901
17286W        W36140  13.216  12.215   1.197  0.0273  0.0420 -0.0930
17287W        W36141  10.682   2.339  12.259  0.0688 -0.1492  0.1084
17288W        W36142   7.362  12.653   4.727 -0.2081  0.1908  0.0799
17289W        W36143  16.634   4.782   4.953 -0.0042  0.0255 -0.2498
17290W        W36144  15.276   5.569   0.155 -0.1775 -0.0821  0.2396
17291W        W36145  10.872   5.996  15.023 -0.0824 -0.1174  0.1510
17292W        W36146  17.255   8.602   0.385 -0.1332 -0.0115  0.0442
17293W        W36147   9.888  16.710  17.348  0.1831  0.1179  0.1950
17294W        W36148   8.415  16.551  15.660 -0.1094 -0.0054 -0.1010
17295W        W36149  14.431   2.240  15.462 -0.0770  0.1066 -0.2226
17296W        W36150  16.895   1.292  16.604 -0.2483 -0.0122 -0.0560
17297W        W36151  12.202  10.085   0.689  0.0789 -0.1720 -0.1319
17298W        W36152   3.944   3.239   4.124  0.1837 -0.3541 -0.2335
17299W        W36153  17.142   4.942  12.428  0.2902 -0.1175 -0.0882
17300W        W36154  16.537  11.645  16.231  0.0332  0.0324 -0.1738
17301W        W36155  14.327   6.683  13.985 -0.2617  0.2355 -0.1947
17302W        W36156   6.237   1.611   1.916  0.0152  0.0225 -0.0642
17303W        W36157   9.222   7.925  13.077  0.0129  0.1563  0.0584
17304W        W36158  16.305   9.305  16.686 -0.0290 -0.2385  0.0296
17305W        W36159   8.878   0.893  14.918 -0.0301  0.2425 -0.1542
17306W        W36160   1.518  16.375   2.596 -0.1083 -0.1201  0.0702
17307W        W36161   6.283   3.586  15.548  0.2808  0.0697  0.0019
17308W        W36162   3.637   9.837  13.792 -0.1471  0.0024 -0.0709
17309W        W36163   2.247  17.079  13.957 -0.0347 -0.2965 -0.0094
17310W        W36164   5.272   7.593  12.855 -0.0985  0.2192 -0.0666
17311W        W36165   9.959   1.945   0.877 -0.1609  0.2402  0.1091
17312W        W36166  12.713  10.280   2.428 -0.2685  0.3331 -0.1936
17313W        W36167  13.136  11.820   2.194  0.2538  0.0926 -0.1504
17314W        W36168  11.488   3.949  14.291  0.0323  0.4603  0.0303
17315W        W36169  16.029   4.182  15.766  0.1185  0.0941  0.0353
17316W        W36170  16.998  12.650   2.571 -0.1516  0.0392  0.0519
17317W        W36171   7.593   7.506  15.315 -0.0237 -0.2292  0.1403
17318W        W36172   3.529   3.925  14.637  0.0969  0.3487  0.2361
17319W        W36173  15.102   1.160  15.980 -0.0806 -0.0321  0.0038
17320W        W36174   1.559   7.664   1.423 -0.1514  0.0437  0.0351
17321W        W36175   0.207   3.077   3.840 -0.0601 -0.1407  0.1533
17322W        W36176   7.294  11.049  12.512 -0.1249 -0.1354 -0.0316
17323W        W36177  10.882   7.049   0.306  0.0167  0.1046 -0.1717
17324W        W36178   0.528   9.872   5.113 -0.0059 -0.0707 -0.3515
17325W        W36179   5.829  12.396  16.521 -0.1266  0.2841 -0.0960
17326W        W36180   4.412   9.460  16.509  0.0028 -0.1040 -0.0589
17327W        W36181  15.992  11.786  12.913 -0.2300 -0.0096 -0.1019
17328W        W36182  12.482   8.717   0.403  0.1530 -0.1296  0.0817
17329W        W36183   1.966  10.564   1.740  0.0039 -0.0211 -0.3538
17330W        W36184   1.948  10.824   3.552  0.0101 -0.1187 -0.1872
17331W        W36185  17.123   0.915   3.868  0.0734 -0.0010  0.1233
17332W        W36186  12.784   4.299  14.027  0.0232  0.0201 -0.0596
17333W        W36187   0.096   2.629  17.134 -0.0053  0.2766  0.3803
17334W        W36188  13.504  11.975   2.497 -0.1633  0.1363 -0.2352
17335W        W36189  11.967   5.556  17.289 -0.2394  0.0096  0.2024
17336W        W36190   6.335  12.746   1.683 -0.0442 -0.0235 -0.0590
17337W        W36191   0.941  14.263  16.049  0.0793 -0.0839  0.2575
17338W        W36192   4.992  11.801   5.193  0.0102 -0.0024  0.1259
17339W        W36193   0.337   1.695  14.528 -0.2356 -0.0292 -0.3210
17340W        W36194  14.104   7.647   0.162 -0.3586 -0.0171  0.2134
17341W        W36195   4.086   3.887  17.396  0.1134  0.0304 -0.0631
17342W        W36196   8.643   3.842  15.077 -0.3475 -0.1030  0.0449
17343W        W36197   0.591   9.292  14.958  0.2091 -0.1897 -0.0018
17344W        W36198   0.425   9.294   0.431 -0.2662  0.0702 -0.2185
17345W        W36199   1.394   1.373   0.969  0.0698  0.1108  0.0427
17346W        W36200  13.975  11.235   5.404 -0.1765  0.2538  0.1028
17347W        W36201  11.498  14.296   2.493 -0.1445 -0.1858 -0.0355
17348W        W36202   6.461   5.542  17.176  0.0537  0.1396  0.1525
17349W        W36203  15.716   4.013   3.512  0.2900 -0.6195  0.1334
17350W        W36204   3.812  15.911  17.026 -0.2463 -0.0342  0.2616
17351W        W36205   8.803   2.956   2.225  0.0549  0.1712 -0.0151
17352W        W36206   3.701   4.416   3.466  0.0104 -0.0954 -0.0551
17353W        W36207  15.356  16.462   1.009  0.0988  0.2004  0.2832
17354W        W36208   3.353   4.717  13.309 -0.1026  0.1071 -0.0206
17355W        W36209   0.382  12.571   0.123 -0.0810 -0.2068 -0.1761
17356W        W36210   0.666   8.526   4.362  0.1099 -0.3564 -0.0083
17357W        W36211   6.517   5.892   0.427  0.0553 -0.1696  0.1880
17358W        W36212   3.389  13.621  12.162  0.2039  0.2333 -0.0778
17359W        W36213  11.752   1.543   2.624 -0.0355 -0.1345 -0.0401
17360W        W36214   5.778   4.268   0.900 -0.2031 -0.0301 -0.0792
17361W        W36215   2.553   9.319  12.423  0.0296  0.2870 -0.1950
17362W        W36216   3.280   6.273   2.772 -0.1737 -0.0675  0.0908
17363W        W36217  15.857  16.393   0.732  0.1456 -0.2903 -0.0434
17364W        W36218   5.517  12.183   3.953  0.0136  0.0064 -0.0652
17365W        W36219   3.845  13.588   4.896  0.2061 -0.1596 -0.1250
17366W        W36220   4.234   8.347   3.344  0.0189 -0.0152  0.1460
17367W        W36221   6.459   6.446   4.715  0.0091 -0.1763  0.0233
17368W        W36222   5.210   1.560   1.403  0.3200  0.0839  0.1680
17369W        W36223   5.761  15.344  15.589  0.1777 -0.1204  0.0292
17370W        W36224   1.696  16.541  13.045 -0.3221  0.0806  0.2168
17371W        W36225   1.527  11.026   3.510 -0.1996  0.1495 -0.1745
17372W        W36226   2.576   5.714  14.991 -0.1162  0.0377 -0.0680
17373W        W36227   2.052   2.889   4.146 -0.0347  0.1930  0.1097
17374W        W36228   1.804  16.753  13.967  0.2595  0.1419  0.0936
17375W        W36229  13.910  13.583   4.695 -0.0568 -0.3200  0.0743
17376W        W36230  11.644  10.763   0.884  0.0287 -0.0014  0.1567
17377W        W36231  12.038  15.406   2.069 -0.0999  0.2426 -0.0712
17378W        W36232   9.728   8.140  12.788 -0.3642  0.1503 -0.1956
17379W        W36233   0.697  12.059   4.838  0.0445 -0.1403  0.2411
17380W        W36234   7.565  13.672  15.320  0.1180  0.0905 -0.1736
17381W        W36235   2.533   6.736  13.095 -0.0884 -0.1828 -0.0543
17382W        W36236   1.827   6.420   2.831  0.2700 -0.0084 -0.2146
17383W        W36237   0.138  13.463  17.142 -0.2235  0.3712  0.3058
17384W        W36238  10.910  10.707  13.602 -0.0693  0.1037 -0.3348
17385W        W36239  16.837   8.389   1.427 -0.1001  0.3398 -0.1898
17386W        W36240   1.453   7.990   0.344 -0.0360  0.0607 -0.1025
17387W        W36241   4.217   6.788  13.628  0.0327 -0.2866 -0.2972
17388W        W36242  15.598   7.967  15.438  0.0947  0.2002 -0.0647
17389W        W36243   9.573   4.702  15.001  0.1182  0.1737 -0.0504
17390W        W36244   4.658   4.348  14.185  0.3841 -0.0297  0.0496
17391W        W36245   0.476  12.316   3.182  0.1321  0.1352 -0.2871
17392W        W36246   0.564   6.397   1.821 -0.3923  0.1059  0.1035
17393W        W36247  16.368   8.050  16.323  0.1407  0.2309 -0.1573
17394W        W36248   0.077  11.279   2.526  0.3194  0.1530 -0.0104
17395W        W36249   4.430   8.116  14.877  0.0859 -0.1194 -0.0010
17396W        W36250  13.836   2.915  17.322  0.0031 -0.0236  0.1927
17397W        W36251   5.763   3.301   2.550 -0.0965 -0.3195 -0.0224
17398W        W36252  11.224   8.878   2.548  0.0391  0.2357  0.3287
17399W        W36253   9.449   6.260   4.571  0.1166 -0.1521 -0.0480
17400W        W36254   5.029   9.675  14.117  0.1712 -0.3391  0.1847
17401W        W36255  12.529   6.752   3.031 -0.1074  0.1513  0.0405
17402W        W36256   2.604   6.832   3.725  0.0584  0.0357 -0.4042
17403W        W36257   2.265  13.832   5.794  0.1192 -0.0241  0.1828
17404W        W36258  13.253  14.859   2.056  0.2609 -0.0795  0.0286
17405W        W36259  15.709  15.559  12.692 -0.2700  0.2313 -0.0369
17406W        W36260   2.869   2.913  12.936 -0.2801  0.0741  0.2534
17407W        W36261  16.953  11.007  16.557  0.2553 -0.1473  0.3611
17408W        W36262   1.081  14.235  14.899  0.1448 -0.2291 -0.0744
17409W        W36263   0.224   8.038  16.003  0.3004 -0.2483 -0.2169
17410W        W36264   1.471   6.725  13.368  0.2744  0.0297 -0.3084
17411W        W36265   7.809  15.232   4.976 -0.0966 -0.1354 -0.0723
17412W        W36266  11.746   0.006  16.633  0.2418  0.0848  0.0001
17413W        W36267   7.919  16.264  12.920 -0.0179 -0.0047  0.1013
17414W        W36268   8.930  11.290  17.365  0.0072  0.0122 -0.0863
17415W        W36269  12.824   6.121   0.740  0.0214  0.1536 -0.0364
17416W        W36270   0.780  15.216   4.432 -0.2968  0.2468 -0.2415
17417W        W36271  14.526   4.813  15.604  0.3269  0.2981  0.2243
17418W        W36272  16.825  13.589  12.755  0.0743 -0.1026 -0.0804
17419W        W36273   2.398   2.496   4.132  0.0749 -0.1738  0.3468
17420W        W36274   0.458  13.763  12.619 -0.2711 -0.1623  0.0321
17421W        W36275   0.309   3.551  17.135  0.0381  0.1772  0.0227
17422W        W36276   3.758  16.418   1.790 -0.1667  0.1014  0.4683
17423W        W36277   3.335   5.606   1.340  0.1617  0.0084 -0.0079
17424W        W36278   3.136  11.824  15.079 -0.2521 -0.0558  0.1369
17425W        W36279   2.146   2.294   0.715 -0.2165 -0.1782  0.0902
17426W        W36280   8.194  14.082   2.146 -0.0907  0.1595 -0.2474
17427W        W36281   1.239  15.729  14.105  0.2036 -0.1104 -0.3674
17428W        W36282   8.925   0.624  15.726 -0.0488 -0.1513 -0.1996
17429W        W36283  15.617   1.067  12.341  0.2650 -0.1517  0.0937
17430W        W36284   4.138   3.710  16.921  0.2224  0.2918  0.1326
17431W        W36285  14.256   6.314   2.138  0.2197  0.0110 -0.3246
17432W        W36286   5.728   6.967   0.397 -0.0369  0.3366 -0.3251
17433W        W36287  14.464   6.590   2.483 -0.1149 -0.0954 -0.0905
17434W        W36288   3.329  15.362  15.875  0.0033  0.1243 -0.1381
17435W        W36289  16.153  14.593   2.354  0.2053 -0.0660  0.1380
17436W        W36290   7.279   5.193  16.900  0.1056  0.3199 -0.3100
17437W        W36291   8.486   9.072  13.560  0.2459  0.0065 -0.1298
17438W        W36292  10.859   4.249  16.947  0.0675  0.0417  0.1461
17439W        W36293  13.969  11.671   1.031 -0.1344 -0.0170  0.0488
17440W        W36294   8.368  10.291   1.474 -0.0080  0.1595  0.4625
17441W        W36295   3.905   4.449  15.328 -0.1956 -0.2667  0.0603
17442W        W36296   8.369  13.460   1.909 -0.0127  0.0984 -0.0011
17443W        W36297  13.574  10.503  14.681 -0.2410 -0.0882  0.0319
17444W        W36298  11.694  16.630   4.377 -0.1910 -0.3271 -0.1309
17445W        W36299   1.093   8.600   2.023 -0.1705 -0.3511 -0.2785
17446W        W36300  15.518   7.531  14.282 -0.0940 -0.2466  0.0835
17447W        W36301  15.342  10.895  15.412  0.0936 -0.0512 -0.1113
17448W        W36302   1.630   1.043   1.285 -0.0702 -0.0001  0.3598
17449W        W36303  12.686  10.661   4.845 -0.1380 -0.0245  0.0565
17450W        W36304   4.503  11.368   0.676 -0.1201 -0.1123  0.1482
17451W        W36305   1.744   9.502   5.962  0.1357 -0.0595  0.1442
17452W        W36306   4.788   7.225  13.343 -0.4199 -0.2077 -0.1719
17453W        W36307   2.251  12.906  13.559  0.2587  0.0732  0.0045
17454W        W36308  12.138   1.493   1.555  0.0262  0.1476  0.0418
17455W        W36309  13.656  15.352  15.436 -0.2352 -0.2433 -0.2977
17456W        W36310   5.730   7.648  12.446 -0.2272 -0.2410  0.0279
17457W        W36311   2.613  15.994   2.134  0.4421 -0.0464  0.0621
17458W        W36312  15.557   8.653   4.543 -0.2963 -0.0862  0.2591
17459W        W36313  16.267   9.498   4.877 -0.0294  0.3001  0.2567
17460W        W36314  11.392  15.070   2.378  0.0981  0.2286  0.0200
17461W        W36315  13.358  16.211  15.882 -0.2380  0.1923 -0.1655
17462W        W36316   5.683   2.446  11.445 -0.0332  0.0866  0.2042
17463W        W36317  15.346   1.367   5.359  0.0462  0.0755 -0.0498
17464W        W36318   8.639  13.335   4.727  0.0623 -0.3559  0.3092
17465W        W36319  16.041  16.565   2.710 -0.0704  0.0755  0.2759
17466W        W36320   5.072  13.286   1.545  0.1529 -0.0782  0.0252
17467W        W36321  11.215   2.393  13.212 -0.0467 -0.0216 -0.3369
17468W        W36322  16.007  16.714   3.233 -0.3032  0.1704 -0.0048
17469W        W36323  11.353   9.240   1.748 -0.1277 -0.0982  0.4380
17470W        W36324   1.975   1.305  15.157 -0.2043 -0.0434 -0.1287
17471W        W36325   5.519  17.147  17.169 -0.0567 -0.0362  0.0895
17472W        W36326   9.891   5.544   4.927  0.3787 -0.0752 -0.2789
17473W        W36327  16.521   8.840  15.790 -0.0769 -0.0092 -0.1996
17474W        W36328  17.108  10.692   1.693 -0.0929  0.2918  0.2552
17475W        W36329   1.164  13.684   0.351  0.0216  0.1754 -0.0002
17476W        W36330   5.822   4.751  13.109  0.2874  0.1445 -0.2160
17477W        W36331  15.833   9.159  13.903 -0.1139  0.2538 -0.0476
17478W        W36332   9.592   8.394   2.930 -0.0232  0.1800 -0.0103
17479W        W36333  11.425   6.850  14.790  0.0569 -0.2656 -0.1836
17480W        W36334   4.922   8.968  17.092  0.0722 -0.1892  0.0038
17481W        W36335   8.842  15.316   0.670 -0.1296  0.1998 -0.1301
17482W        W36336   8.538   2.721   0.073 -0.0492  0.1589 -0.1352
17483W        W36337   2.006   6.086   2.493  0.1662  0.2920  0.0805
17484W        W36338   0.922  16.008  13.380  0.2861 -0.3293  0.1185
17485W        W36339  10.373  14.295   0.061  0.1802  0.3528 -0.3290
17486W        W36340  13.829   4.734  15.932 -0.0402  0.1517  0.2581
17487W        W36341   5.574  11.107  17.195  0.5015 -0.0891  0.2078
17488W        W36342   9.834  10.672   5.449  0.2183 -0.0364 -0.0206
17489W        W36343   8.231  11.553  17.184 -0.0103  0.0322 -0.0954
17490W        W36344   9.624   3.177  16.128  0.3112 -0.2564 -0.0526
17491W        W36345   1.711  11.677   2.133  0.0969  0.0220  0.1301
17492W        W36346  15.891   6.356   2.640 -0.1496  0.0739 -0.3189
17493W        W36347  16.642  14.498   1.714 -0.2627  0.0441  0.1817
17494W        W36348   1.209   5.757  17.275 -0.1375  0.1481  0.0302
17495W        W36349   1.635  10.070  13.897 -0.0979  0.2104  0.1483
17496W        W36350   0.898   1.013   4.007 -0.1178 -0.1302 -0.0410
17497W        W36351  11.211  10.712  12.079 -0.0635 -0.0735  0.0736
17498W        W36352  14.199   4.851  16.425  0.0825 -0.2871 -0.0613
17499W        W36353   8.785   7.755   4.993  0.1393  0.1816 -0.3400
17500W        W36354   2.844   0.040   5.599  0.1945  0.0618  0.2624
17501W        W36355  10.910   7.650  12.867 -0.0634 -0.1294  0.1575
17502W        W36356   1.205  12.190   4.994  0.3060 -0.2034  0.0171
17503W        W36357  11.710  13.391  16.764 -0.3106  0.1251  0.3355
17504W        W36358   6.334   3.932   3.255  0.0300  0.3301  0.2664
17505W        W36359  17.316  11.805  13.408 -0.0284 -0.1323 -0.1384
17506W        W36360  11.054   2.686  14.072  0.2995 -0.0119  0.1531
17507W        W36361   0.241   4.229  14.905 -0.0554  0.0901  0.0788
17508W        W36362  10.692  16.373   3.703  0.0284 -0.0135  0.0012
17509W        W36363   9.996   8.507  15.989 -0.0135 -0.4011 -0.2057
17510W        W36364   1.710  15.717  13.987 -0.1018 -0.0958  0.1218
17511W        W36365   6.447  10.940  13.525  0.2091 -0.2067 -0.2014
17512W        W36366  12.063  12.358  13.110  0.1983  0.0446  0.2507
17513W        W36367   1.251   7.261  14.883 -0.1435  0.3714 -0.3527
17514W        W36368   7.080   4.041   4.285  0.0367 -0.0978  0.1742
17515W        W36369  14.621  10.336   1.074  0.0625  0.1265  0.2189
17516W        W36370  13.715  11.577   3.806 -0.0837  0.2295  0.1739
17517W        W36371  16.329  12.089  13.232  0.2637 -0.1476  0.2173
17518W        W36372   3.836   8.010  13.732 -0.2738  0.1385 -0.1351
17519W        W36373   8.303  12.135   2.395 -0.0624  0.0585  0.2450
17520W        W36374   5.062   9.616   0.149 -0.2273  0.0034  0.0960
17521W        W36375   3.034   6.632   0.512  0.0976  0.0020  0.0713
17522W        W36376   5.009   9.688   3.163 -0.1158 -0.2088  0.0172
17523W        W36377   8.331   5.860   3.535  0.0774  0.3148 -0.1280
17524W        W36378   0.272   9.864  14.243  0.1691  0.1327 -0.3086
17525W        W36379   2.377  10.639  14.175 -0.0475  0.2701  0.0659
17526W        W36380  15.951  14.161   2.341  0.0574 -0.0490 -0.2184
17527W        W36381   0.395   4.842  15.837 -0.0600 -0.2808  0.0140
17528W        W36382  15.936  14.871   5.249  0.2807 -0.1461 -0.0438
17529W        W36383   9.266   1.689   0.034  0.2960 -0.0706 -0.1652
17530W        W36384   5.268   6.094  17.011 -0.0387 -0.0035  0.1249
17531W        W36385  16.635  16.577   2.619 -0.0168 -0.0447 -0.2231
17532W        W36386  10.619  13.675  15.386  0.0192  0.1646  0.0581
17533W        W36387   7.184   3.438  12.486  0.0941  0.1087  0.1835
17534W        W36388   0.788  15.015   1.863  0.1673 -0.2458 -0.0557
17535W        W36389  13.303  12.178  16.569  0.0938  0.2873 -0.2749
17536W        W36390  15.253   8.159  17.301 -0.2012  0.1533 -0.3826
17537W        W36391   6.801   7.688   0.804 -0.0972  0.0919  0.0515
17538W        W36392  10.680  13.944  11.221  0.0472 -0.0687 -0.1451
17539W        W36393   3.372   3.071  12.688 -0.0600 -0.1032 -0.2828
17540W        W36394   8.768   7.085  15.853 -0.1399 -0.0176 -0.3703
17541W        W36395   7.804   6.956   5.017  0.3400  0.0127 -0.1056
17542W        W36396   2.229  15.387  16.094  0.2102 -0.2498  0.1337
17543W        W36397  12.079   3.964   3.547  0.1663 -0.1431  0.1244
17544W        W36398  12.192  11.591   0.289 -0.1068 -0.1023  0.2576
17545W        W36399  16.508  14.517   3.681  0.0438 -0.0275 -0.1818
17546W        W36400  14.445  15.752   4.685 -0.2385 -0.0007 -0.3786
17547W        W36401   4.472  10.150   1.329 -0.2222  0.0026  0.2079
17548W        W36402   7.781  10.543  14.185  0.0181  0.0222 -0.1210
17549W        W36403   5.719   2.318  13.288 -0.2334 -0.0612  0.2312
17550W        W36404  12.246   7.125  12.503 -0.4771 -0.1640  0.2234
17551W        W36405   5.644   6.920   3.972  0.0627 -0.1053  0.1105
17552W        W36406  14.140   3.242   0.027 -0.0576  0.1112 -0.1064
17553W        W36407  13.846   5.928  12.853 -0.2716  0.0381 -0.1608
17554W        W36408  13.986   8.329   2.859  0.0464 -0.2208  0.1680
17555W        W36409   8.376  16.713  17.201  0.3476  0.0676 -0.1056
17556W        W36410  14.109   1.162   5.464  0.0728 -0.2501  0.0385
17557W        W36411   3.418   8.240  13.832 -0.0773 -0.1119  0.0010
17558W        W36412   8.679   9.818   0.686  0.2315 -0.4530  0.1988
17559W        W36413  16.863   2.527  15.116 -0.0615 -0.2634  0.3176
17560W        W36414  10.966  14.519   1.111 -0.1226  0.1322 -0.0423
17561W        W36415   9.289  16.180  12.717 -0.2046 -0.0730 -0.1670
17562W        W36416  14.203   9.718  11.889 -0.2135  0.0011  0.0463
17563W        W36417   1.098   7.675   0.582 -0.0309  0.2339 -0.1391
17564W        W36418   5.492  15.694   4.026  0.3948 -0.0072 -0.2239
17565W        W36419  13.279  11.469   0.879  0.1636 -0.0620 -0.4011
17566W        W36420  16.202   8.420   2.045  0.1189  0.0080 -0.1561
17567W        W36421   7.042   9.755  13.016  0.0050 -0.0670  0.1194
17568W        W36422   2.912  10.318  12.654 -0.2175 -0.4182  0.1817
17569W        W36423  14.415   9.199  15.875  0.3656 -0.0075 -0.0101
17570W        W36424  11.071   3.247   5.677  0.1768  0.1613  0.1806
17571W        W36425   2.295   1.357   2.375  0.1773 -0.0613 -0.1806
17572W        W36426  12.190   0.144   3.368  0.0529 -0.0990 -0.0898
17573W        W36427  10.378   1.587  12.356  0.0217 -0.2062  0.0159
17574W        W36428  13.573   5.537  12.815 -0.0282 -0.1252 -0.3597
17575W        W36429  12.013   4.147   0.274 -0.1104 -0.3111 -0.1290
17576W        W36430   6.650  13.728   1.209  0.4088 -0.1649  0.0030
17577W        W36431   2.137  12.720  16.214  0.0446  0.2621 -0.1872
17578W        W36432   0.438   5.214  17.277  0.1974 -0.1242 -0.0261
17579W        W36433   0.914   5.031   2.456 -0.0484 -0.0613 -0.3594
17580W        W36434   3.157  13.113   0.561  0.0293  0.2793 -0.3262
17581W        W36435   4.842   8.294   4.185 -0.1010 -0.1260 -0.0574
17582W        W36436  11.292  10.149  14.166  0.0667 -0.1376  0.1328
17583W        W36437  16.985   8.009  17.042  0.0860  0.3364  0.3712
17584W        W36438  13.600  11.866  14.852  0.2226 -0.0425  0.1093
17585W        W36439  14.535  12.216   4.561 -0.1643 -0.0014 -0.0720
17586W        W36440  11.406   7.903   3.632 -0.2883 -0.1288 -0.1299
17587W        W36441  10.609  13.801  15.936  0.0422  0.1047 -0.0260
17588W        W36442   6.953  15.899   2.973  0.1982 -0.1095 -0.0769
17589W        W36443   2.893  10.604  14.312  0.0088 -0.1361  0.0296
17590W        W36444   3.882   0.589  12.590 -0.0288 -0.4359  0.2008
17591W        W36445  14.220   5.998   3.081  0.0153 -0.1425  0.0151
17592W        W36446   4.111   3.132   0.445  0.2559  0.0467  0.1015
17593W        W36447  10.165   4.067  14.170  0.0029 -0.1532 -0.1908
17594W        W36448   4.876  16.063   0.352  0.3235 -0.2608  0.2300
17595W        W36449  16.005   5.826   4.394  0.0289 -0.2094  0.1784
17596W        W36450   3.087   4.766  15.583  0.0062  0.2385 -0.0563
17597W        W36451   5.661   7.837   4.037 -0.0893 -0.2200 -0.2053
17598W        W36452   5.189   9.419   3.604  0.2175  0.2139 -0.0101
17599W        W36453  16.318   7.503  14.290  0.1314  0.0323 -0.1762
17600W        W36454  16.475  13.535  15.876  0.0464  0.0163 -0.0640
17601W        W36455   5.688  14.197  12.553 -0.0930  0.4192  0.0788
17602W        W36456  13.085   9.896   2.220 -0.0461  0.0209  0.0867
17603W        W36457   7.658  16.210  16.800 -0.0088 -0.0472  0.0771
17604W        W36458   4.997   0.041  14.433 -0.0990  0.3901  0.3506
17605W        W36459   0.083   3.532  12.877 -0.0866 -0.1770  0.3065
17606W        W36460   6.826   8.187  15.497 -0.0930  0.0465 -0.0719
17607W        W36461  14.294   9.371  15.417 -0.0175  0.2607 -0.0050
17608W        W36462   6.875   9.383   0.221 -0.0075 -0.0648  0.1449
17609W        W36463   8.555   1.290  13.570  0.0264  0.1925  0.0719
17610W        W36464   1.590  10.169   3.965 -0.1608 -0.1088 -0.1147
17611W        W36465  13.216   8.849   1.304 -0.0081 -0.0379 -0.1875
17612W        W36466  13.691  15.609  14.057 -0.1001 -0.1272 -0.0019
17613W        W36467  13.101  11.085   0.579 -0.1960  0.0437  0.2660
17614W        W36468  11.547  10.368   2.867  0.0666 -0.0375 -0.2716
17615W        W36469   6.216   6.236  13.922 -0.4895 -0.0216 -0.0624
17616W        W36470  16.187  13.486   5.923  0.0122  0.1862 -0.0605
17617W        W36471   0.791  15.233   3.196  0.0712 -0.1127 -0.0663
17618W        W36472  13.833   9.562   3.935 -0.0377  0.1294 -0.2706
17619W        W36473   5.348   7.164  12.631 -0.3855  0.2244  0.3802
17620W        W36474   0.219   6.727   2.879 -0.0300  0.0596 -0.3602
17621W        W36475   9.797   1.823  14.553 -0.0486 -0.0435  0.0411
17622W        W36476  13.286   9.315   0.490  0.1911 -0.2215 -0.0964
17623W        W36477  12.046  12.643  14.052  0.2862 -0.1035 -0.3762
17624W        W36478  11.994  11.368   1.564  0.0693  0.0351  0.1920
17625W        W36479   0.245  13.311   5.198 -0.0098 -0.1368  0.0567
17626W        W36480  16.218  11.587   5.069 -0.1818 -0.2463 -0.0718
17627W        W36481   4.498   0.397  16.603  0.0071  0.3232 -0.3508
17628W        W36482   0.244   1.364  15.822  0.2003  0.0170  0.2358
17629W        W36483   1.420   5.210   4.793  0.0774  0.1346  0.0611
17630W        W36484   1.753  11.046  13.721 -0.0438 -0.0863 -0.1115
17631W        W36485   9.826   9.696   1.151  0.0334  0.0099 -0.1893
17632W        W36486  16.715  16.134   3.380  0.0680  0.0957 -0.0454
17633W        W36487   0.629   1.595  16.682  0.2261  0.0147 -0.3398
17634W        W36488   5.868  13.755  16.222  0.1119 -0.0209  0.2801
17635W        W36489   5.195   6.785   1.970  0.1194  0.2298  0.0726
17636W        W36490   6.571  10.632   1.128 -0.1920  0.3291  0.1476
17637W        W36491  17.173   3.390  14.705  0.3417  0.0179  0.1150
17638W        W36492   6.899  10.666   1.527  0.0177 -0.1707 -0.0346
17639W        W36493  15.833   7.635   1.105 -0.1561 -0.0471  0.2536
17640W        W36494  16.642   0.079   0.404 -0.3145 -0.1214  0.3045
17641W        W36495   2.983  15.773   2.468  0.2212 -0.1632  0.2515
17642W        W36496  10.240  13.000  13.704  0.1898 -0.1189 -0.1055
17643W        W36497  13.020   9.022  15.768 -0.1083 -0.1351  0.0729
17644W        W36498   0.196   1.416   0.095 -0.1336 -0.1705  0.0748
17645W        W36499   7.752   1.869   2.768  0.1508 -0.0148 -0.1382
17646W        W36500   3.537  12.667   3.307  0.0694  0.2240 -0.1132
17647W        W36501  12.010  10.062  13.593  0.1529  0.2681  0.1567
17648W        W36502   0.453   2.368   4.609  0.0749  0.1987  0.1938
17649W        W36503   9.077   1.167   0.930  0.0087  0.1923  0.3216
17650W        W36504   9.151  15.002   2.958  0.0363 -0.1473  0.1089
17651W        W36505   7.750   4.813   2.791 -0.1263  0.2924 -0.1353
17652W        W36506   0.980   8.893  13.734 -0.3256  0.2365 -0.0804
17653W        W36507   8.076   8.992   3.684 -0.0035 -0.3383 -0.0308
17654W        W36508  16.853   5.178  17.281 -0.0409 -0.0540  0.2700
17655W        W36509   1.374  10.371   4.390  0.2401 -0.0281 -0.1578
17656W        W36510   8.316   7.962   1.226  0.1597  0.0166  0.0324
17657W        W36511  16.596   7.121  17.183  0.1742 -0.1228 -0.1140
17658W        W36512  14.623  11.044   2.038 -0.0106 -0.0992 -0.1885
17659W        W36513   2.420  17.293   0.042  0.1036  0.3101 -0.0788
17660W        W36514   5.996  11.141  13.634  0.0669  0.1567 -0.1192
17661W        W36515   5.954  14.763   2.887 -0.0611 -0.0187 -0.0633
17662W        W36516  12.185  16.588   2.574  0.1808  0.0472  0.3072
17663W        W36517  10.345   2.416  16.758 -0.0314  0.0659 -0.2033
17664W        W36518   6.158   6.020  12.927  0.0790 -0.1935 -0.0251
17665W        W36519  14.811   7.075   4.842 -0.1502 -0.0562 -0.0098
17666W        W36520   9.762  12.547  16.673  0.0740 -0.1377 -0.1357
17667W        W36521   3.923   5.666  12.998  0.0783 -0.1874 -0.2417
17668W        W36522  12.600  13.685   4.577 -0.0236 -0.1733  0.0285
17669W        W36523   7.291   3.547  13.555  0.1181  0.1990  0.3009
17670W        W36524   8.069   7.537  15.564 -0.1537  0.4377  0.0103
17671W        W36525  14.498   4.776   4.546 -0.1594 -0.2839  0.1785
17672W        W36526  13.899   0.467   3.241  0.0200 -0.1453  0.4071
17673W        W36527  16.427   9.675  16.928 -0.0007 -0.1184 -0.0574
17674W        W36528   7.423  10.337   4.251  0.0485  0.1306 -0.0070
17675W        W36529   6.952   0.073  13.267  0.2899  0.3457  0.2072
17676W        W36530  15.606  15.029  17.243  0.0017 -0.2131 -0.0947
17677W        W36531   8.569   6.820  13.420  0.3616  0.2926 -0.2232
17678W        W36532  15.619  12.701   3.723 -0.0430  0.1415  0.1199
17679W        W36533   0.567   7.870  17.387  0.1161  0.2874 -0.0708
17680W        W36534  13.847  12.146   3.742  0.2788  0.2195 -0.1937
17681W        W36535   2.670   2.145   0.760 -0.0568  0.1481  0.5242
17682W        W36536  12.694   4.147  12.664 -0.1052  0.0638 -0.0863
17683W        W36537   3.827   3.135  15.105 -0.0127  0.1688 -0.0795
17684W        W36538   0.148   7.052   0.250  0.0094  0.1207 -0.2264
17685W        W36539   2.493   5.591   1.936  0.1153 -0.0554  0.0827
17686W        W36540   4.139   5.456  15.226 -0.0866  0.0577  0.1870
17687W        W36541   8.503   2.176  15.857 -0.1782  0.0473  0.0711
17688W        W36542   5.088   8.566   0.673 -0.0395 -0.3762  0.2478
17689W        W36543   4.955  10.077  17.213  0.2060 -0.1715  0.2183
17690W        W36544   5.045   5.994   5.110 -0.0793 -0.0610  0.2509
17691W        W36545  12.313  12.054  15.651 -0.0287  0.0024 -0.0485
17692W        W36546   8.069   0.997   0.636  0.1522 -0.0269  0.1132
17693W        W36547   9.399   0.471   2.876 -0.1167 -0.0608 -0.1030
17694W        W36548   5.906   6.227  16.247  0.1461  0.3473 -0.1476
17695W        W36549  13.480  14.640  17.274  0.0562 -0.0539  0.0536
17696W        W36550   6.054   7.676   4.936  0.0316 -0.0422  0.0040
17697W        W36551   5.696   1.704  12.674  0.0323 -0.1117 -0.0530
17698W        W36552   2.660   4.719  12.560  0.0892  0.1030  0.0540
17699W        W36553   2.550   5.035  16.410 -0.2103  0.0220 -0.0936
17700W        W36554  12.736  12.619  16.358 -0.2408 -0.0654  0.2611
17701W        W36555  16.355   7.054  16.677  0.2999 -0.1048 -0.0388
17702W        W36556   4.545  12.989   2.341  0.1546 -0.1764  0.2958
17703W        W36557  14.891   1.454  13.872  0.0894 -0.1532 -0.3175
17704W        W36558  14.808   9.050  15.634  0.1409  0.1257 -0.0694
17705W        W36559  17.281   5.138   0.980  0.0687 -0.1537  0.0612
17706W        W36560   4.018  15.273   2.863  0.2640  0.0444  0.0815
17707W        W36561   8.644   0.971   2.645  0.0628 -0.0030  0.1914
17708W        W36562  11.727   7.152   0.643 -0.1953 -0.2591  0.0752
17709W        W36563  15.290  11.062  14.556 -0.1243  0.0309 -0.1031
17710W        W36564  13.454   0.275   3.281 -0.4443 -0.1905 -0.0830
17711W        W36565   4.375   8.374   1.280  0.2500 -0.0836  0.1224
17712W        W36566   7.434  10.240  15.902  0.0093  0.0548 -0.0135
17713W        W36567   2.827   4.872  11.699 -0.1555  0.1091  0.2090
17714W        W36568   2.652   4.872   1.266  0.1074 -0.4080 -0.0830
17715W        W36569   0.304  12.531   1.037 -0.1663  0.0176 -0.0071
17716W        W36570  12.485  11.084   3.771 -0.1060 -0.1311 -0.0176
17717W        W36571   2.359   4.929  13.065 -0.2104 -0.1052  0.2302
17718W        W36572   8.230   7.605   4.932 -0.0031  0.1098  0.0654
17719W        W36573   8.246  15.459  15.388 -0.3077 -0.1336 -0.0835
17720W        W36574  11.526   6.232  16.221  0.2171 -0.0436 -0.1137
17721W        W36575   5.728   9.801   4.008  0.1083 -0.0382 -0.1458
17722W        W36576   2.025   4.672  13.367 -0.0214  0.1341 -0.2570
17723W        W36577  10.660  12.634   3.629  0.0443  0.1184 -0.0831
17724W        W36578  16.647   0.845   1.648  0.0585  0.0654 -0.0541
17725W        W36579   0.636   4.143   2.504  0.0999 -0.1401  0.2885
17726W        W36580   9.459  14.526   3.877 -0.3018 -0.0734 -0.1059
17727W        W36581   4.524  17.200  12.844  0.0133  0.0023 -0.2644
17728W        W36582   3.536  12.774   1.292 -0.0663 -0.0082  0.3021
17729W        W36583   1.057  11.896   4.414  0.4848 -0.2657  0.1093
17730W        W36584   9.789  15.355  12.368  0.0981  0.0547 -0.1543
17731W        W36585   1.481  10.774   2.267  0.0113  0.1886 -0.2554
17732W        W36586  15.643   1.810  15.492  0.2757 -0.0656 -0.1733
17733W        W36587  15.687  12.055  14.876 -0.0147  0.2202  0.0242
17734W        W36588   6.075  13.064  17.433 -0.0815 -0.0293  0.2043
17735W        W36589   0.226   5.669   5.104  0.1189 -0.0456  0.0655
17736W        W36590  15.011   9.752   4.202  0.0887 -0.0859  0.0522
17737W        W36591  10.413   0.909  16.059 -0.0671  0.0424 -0.1775
17738W        W36592   6.947  13.529   2.041 -0.0485 -0.0500 -0.2623
17739W        W36593  12.978  10.814  13.679 -0.2444 -0.1030  0.0083
17740W        W36594  13.124   1.784  15.047  0.0687 -0.1721 -0.1360
17741W        W36595  16.243  10.500   5.250  0.1278 -0.1096  0.0788
17742W        W36596  11.972  17.154   3.768 -0.0093  0.2059 -0.0543
17743W        W36597  13.794   4.727   3.291 -0.0920 -0.3095  0.1678
17744W        W36598  10.324   1.770   1.992 -0.3481  0.2034  0.1380
17745W        W36599  11.008   5.692   4.786 -0.2483  0.0235 -0.0925
17746W        W36600   6.750  15.652  16.931  0.2719 -0.1344 -0.0981
17747W        W36601   4.050  10.405   3.744 -0.0032  0.2076  0.1830
17748W        W36602  10.248   5.040   1.085 -0.1455  0.2147 -0.0199
17749W        W36603   3.673   0.027  14.950  0.0514 -0.0322  0.3170
17750W        W36604   3.150   8.234   5.006 -0.0588 -0.2961 -0.0539
17751W        W36605   5.042  12.693   0.050  0.0158 -0.2212 -0.2396
17752W        W36606   1.717  11.467   4.852 -0.1453  0.0577 -0.1029
17753W        W36607  14.873   8.595  13.202 -0.2426  0.3754 -0.1298
17754W        W36608   0.956  11.347   0.054 -0.0166  0.0480 -0.1144
17755W        W36609   1.095  13.294  13.529  0.1136 -0.2469 -0.2153
17756W        W36610  16.228  15.275   4.276  0.1079 -0.0759  0.3834
17757W        W36611  12.520  14.778   1.361  0.2817 -0.2135  0.2326
17758W        W36612  11.822  14.231  13.368  0.3744  0.0000  0.1207
17759W        W36613   8.445  14.517  12.618 -0.0730 -0.2372  0.0696
17760W        W36614  12.567   3.839   0.082 -0.0819 -0.0674  0.1256
17761W        W36615  13.945  12.479   2.835  0.1111  0.1833 -0.0350
17762W        W36616  11.193   6.600  15.539  0.0557 -0.0607 -0.0226
17763W        W36617  15.644   1.057   3.643  0.0976  0.2945  0.0387
17764W        W36618   4.612  10.449   3.876 -0.2185 -0.2189  0.1923
17765W        W36619   7.683  11.150  15.700  0.3927  0.0708  0.2032
17766W        W36620   2.457  12.618   3.741  0.2037 -0.3346  0.0365
17767W        W36621   7.003   8.676   2.940 -0.0222  0.2110 -0.3858
17768W        W36622   7.198   4.743  16.504 -0.0882  0.0349 -0.0400
17769W        W36623   1.897   3.267   5.038  0.0047  0.2405 -0.1755
17770W        W36624  14.455  15.269  14.689 -0.0478 -0.2286 -0.0235
17771W        W36625   2.422   2.537   1.911 -0.3033  0.0606 -0.2215
17772W        W36626   7.086   9.884   2.657 -0.1426  0.0035  0.1251
17773W        W36627   4.574   3.935  16.684 -0.0205 -0.1260  0.0294
17774W        W36628  13.877   9.266   2.921  0.1817  0.1534  0.4578
17775W        W36629   8.368  13.702   2.423  0.2336  0.2446  0.0395
17776W        W36630  11.685   9.892  12.346  0.0897 -0.0668  0.0927
17777W        W36631  11.699   2.994  14.508 -0.2409  0.1230 -0.0626
17778W        W36632   4.780   6.674   4.195  0.0040 -0.0918 -0.2378
17779W        W36633   7.844  15.870   2.379  0.2598 -0.0025 -0.1063
17780W        W36634   5.395   7.919  14.451  0.1961 -0.0953  0.3675
17781W        W36635   3.680  17.213   4.800  0.0291  0.1325 -0.2112
17782W        W36636   1.275  12.274  16.557 -0.1977  0.0278 -0.5012
17783W        W36637   9.020  10.990  16.533 -0.0739  0.0299  0.1058
17784W        W36638  17.137  14.837   4.411  0.2613 -0.1153 -0.2346
17785W        W36639   9.076   1.711   1.060  0.2695  0.2960  0.1705
17786W        W36640   5.426  12.531   1.286 -0.1851 -0.1335  0.0945
17787W        W36641  12.751   5.151  14.954 -0.1239 -0.1739 -0.3274
17788W        W36642  16.177  15.792   4.210 -0.1590 -0.4455  0.0816
17789W        W36643  12.259   0.304   0.493 -0.0691  0.0373 -0.1030
17790W        W36644   5.329  12.763   1.709 -0.0960 -0.1058  0.2726
17791W        W36645  14.022   8.452   1.143  0.0389  0.0828 -0.0825
17792W        W36646   6.569   8.862  14.533 -0.1683  0.1806 -0.1383
17793W        W36647   6.169   8.475  13.296  0.2390 -0.4773  0.0790
17794W        W36648  13.357   2.245  12.715 -0.0792 -0.1910 -0.0643
17795W        W36649   1.375  13.983  11.646 -0.1493 -0.0864 -0.2207
17796W        W36650  15.999  12.954   1.904 -0.2099  0.0105  0.1162
17797W        W36651   9.952  17.081   2.569  0.2548  0.0861 -0.1632
17798W        W36652   4.361  17.329   3.131 -0.0692 -0.0983  0.1460
17799W        W36653  11.322   1.020  15.783 -0.0262  0.1004 -0.2481
17800W        W36654  13.917  11.423   4.892 -0.0321 -0.0643  0.1429
17801W        W36655  11.633   0.229   3.257 -0.1005 -0.3562  0.1981
17802W        W36656   2.024   2.690  13.542  0.0145  0.2039 -0.1687
17803W        W36657   3.972   2.291   5.103  0.3111  0.1530 -0.0446
17804W        W36658   9.603   9.455  12.668 -0.0215  0.1485 -0.1235
17805W        W36659   5.404  14.878   3.178  0.2432 -0.1297  0.3275
17806W        W36660  13.492   0.355   0.915  0.0337 -0.0901 -0.1112
17807W        W36661   2.842   3.742  14.243  0.2883  0.2140 -0.1154
17808W        W36662  15.270   7.856   5.255  0.2387  0.0001 -0.0240
17809W        W36663   3.204   2.094   4.078 -0.1522 -0.2716 -0.0901
17810W        W36664  16.056   5.165  14.445  0.0252 -0.0763 -0.0300
17811W        W36665  14.402   4.115   4.510  0.0483  0.2103  0.1362
17812W        W36666  11.402   4.869  15.965 -0.0679  0.0840  0.3964
17813W        W36667  16.569   5.743   1.511  0.1532 -0.0204  0.3609
17814W        W36668   0.309  12.217  16.748  0.0147  0.1267 -0.1069
17815W        W36669   3.698  16.153   4.191 -0.1987 -0.2634 -0.1357
17816W        W36670   4.892  10.943  16.647 -0.2275 -0.2282 -0.0612
17817W        W36671   7.913   7.920  13.411  0.0676  0.1200  0.1748
17818W        W36672  11.784   4.681  15.494 -0.0433 -0.1977 -0.0742
17819W        W36673  14.660  16.206  16.190 -0.0597  0.1449 -0.0931
17820W        W36674  16.057  15.882  14.980 -0.1809 -0.2181 -0.2228
17821W        W36675   2.174   8.332   4.511 -0.0558  0.1169 -0.3491
17822W        W36676   3.115   6.296  15.168 -0.3073  0.0289  0.0216
17823W        W36677   2.278   1.622  15.412  0.0018 -0.2568  0.2528
17824W        W36678   8.537  15.898   4.551 -0.1845 -0.0827  0.3200
17825W        W36679   0.617   3.987  16.797  0.1942 -0.0687  0.1011
17826W        W36680   7.321   7.579   1.556  0.4540  0.0840  0.0062
17827W        W36681   7.099   2.085   0.322  0.0050 -0.2023  0.1673
17828W        W36682   8.451   7.352  16.179  0.0349  0.1385 -0.0044
17829W        W36683   3.529  10.533  15.996  0.2720  0.2367  0.0242
17830W        W36684  14.174  16.880  17.049 -0.2362  0.1379  0.4156
17831W        W36685   0.409   5.295  12.782  0.1404 -0.1116  0.3061
17832W        W36686   2.667   0.059   2.076  0.0607 -0.3594 -0.2549
17833W        W36687  13.036   6.232   1.520  0.3425 -0.2332 -0.2998
17834W        W36688   2.070   9.480  16.545  0.1657 -0.1639  0.0141
17835W        W36689   0.724  11.654   2.026 -0.2005  0.0959 -0.2619
17836W        W36690   4.796   4.818  14.590  0.2063 -0.1232  0.2508
17837W        W36691  14.690  10.389  16.194 -0.2746 -0.1194 -0.0615
17838W        W36692   1.721   8.457  13.774 -0.0438  0.0746 -0.1844
17839W        W36693  11.572   4.494   3.829  0.1468 -0.2288 -0.1019
17840W        W36694  10.416  10.177  15.350  0.0599 -0.3308 -0.1522
17841W        W36695  11.474   5.053   5.218 -0.3008 -0.0237  0.1743
17842W        W36696   5.056  16.978  16.545  0.0687  0.0551 -0.1745
17843W        W36697   7.886  10.286   2.761  0.0145  0.0227 -0.1561
17844W        W36698   6.854   8.088  12.761  0.2204 -0.0883  0.0827
17845W        W36699   0.128   3.694   3.887 -0.0241  0.1064  0.0001
17846W        W36700  10.849  12.407  15.524  0.2187  0.0210  0.1488
17847W        W36701  15.924   5.254  12.618  0.1952  0.0268  0.0316
17848W        W36702  11.302  11.203   3.378 -0.1710 -0.2329 -0.1443
17849W        W36703   2.835   0.288  14.561  0.0501 -0.0537 -0.0445
17850W        W36704   6.107   4.180   0.025  0.0119 -0.1594 -0.1044
17851W        W36705  10.196   8.917   5.116 -0.2191 -0.0585  0.1833
17852W        W36706  11.004   7.628   0.167 -0.0987  0.0303  0.2161
17853W        W36707   8.224   3.096  12.593  0.2271 -0.0789 -0.0199
17854W        W36708   8.970   0.633   2.573  0.0637  0.1405  0.1280
17855W        W36709  15.105  11.900   1.227  0.1963  0.2878 -0.1597
17856W        W36710   4.669  12.439   3.010  0.0575 -0.0878 -0.0580
17857W        W36711   9.837   6.519  15.423 -0.0234  0.1242 -0.5445
17858W        W36712  13.050   7.626   1.300 -0.2198  0.0037 -0.0101
17859W        W36713   9.612   2.473   4.790  0.1705 -0.0373 -0.1308
17860W        W36714   4.495  11.721  16.895 -0.2729  0.0680 -0.1350
17861W        W36715   7.481   3.103   3.004 -0.0865 -0.1590  0.1968
17862W        W36716  11.942  10.043  14.121  0.0719 -0.1735  0.1693
17863W        W36717  15.208  14.764   1.861  0.2414 -0.1296 -0.0126
17864W        W36718   7.571  14.650   1.939  0.0379  0.0792 -0.1139
17865W        W36719   6.979  14.079  16.972  0.0593  0.2027 -0.4078
17866W        W36720   5.084   7.742   1.307  0.1094  0.0785 -0.3731
17867W        W36721   6.881  13.251  15.625  0.1452  0.1450  0.2660
17868W        W36722  16.011   4.836  16.550  0.0986 -0.3244 -0.1790
17869W        W36723   0.999  15.145  12.924  0.0469 -0.0027 -0.2208
17870W        W36724   5.262   7.051   0.551 -0.0302  0.3080  0.3183
17871W        W36725   6.496  16.722  14.906 -0.2319 -0.0904 -0.3304
17872W        W36726  13.825   5.075   2.870 -0.0806 -0.0453 -0.2531
17873W        W36727   0.562   6.546   2.505  0.0757  0.0859 -0.1401
17874W        W36728   5.596   2.413   2.798  0.0331  0.1792  0.0927
17875W        W36729   8.883   0.045   3.668 -0.2758 -0.0469  0.0837
17876W        W36730  15.640   9.097   4.124 -0.1528 -0.2882 -0.2080
17877W        W36731   7.164  10.843   0.230 -0.3136 -0.2315 -0.1106
17878W        W36732   1.828   0.493   1.091  0.1123 -0.2360  0.0721
17879W        W36733   3.095   4.671   1.388 -0.0571  0.2130 -0.2158
17880W        W36734   1.171   4.707  13.630  0.0286 -0.2285  0.2810
17881W        W36735   0.041   4.432  12.114  0.1683  0.0129 -0.2240
17882W        W36736   1.417   8.103  15.220  0.0951 -0.3131 -0.1755
17883W        W36737  15.494   5.046   0.222 -0.0848 -0.0393  0.0038
17884W        W36738  15.232  14.515   3.509 -0.3053  0.5168  0.2914
17885W        W36739   9.156   6.407  15.047  0.0608  0.1499  0.0006
17886W        W36740   3.437   0.846   5.120 -0.0030  0.1517 -0.1848
17887W        W36741  15.944  11.884  14.363 -0.0980 -0.3655 -0.1254
17888W        W36742   5.072   4.942   0.965 -0.1923  0.4480 -0.0395
17889W        W36743   4.839   8.583  16.435  0.3548 -0.1779  0.3208
17890W        W36744  11.630   5.675  15.517 -0.0539  0.1795 -0.2037
17891W        W36745  11.298   0.917   3.795 -0.0042  0.0365  0.3176
17892W        W36746   7.180  16.341   1.939  0.0900  0.0651  0.2006
17893W        W36747  15.180   3.827  16.240  0.1546  0.2883 -0.0648
17894W        W36748  16.870  15.748  14.129 -0.1174  0.3324 -0.1412
17895W        W36749  15.614   3.338   1.424 -0.0379 -0.1932 -0.1226
17896W        W36750   4.010   2.548  15.416  0.1062  0.1120 -0.0844
17897W        W36751   9.881   1.104   1.520 -0.0107  0.1479  0.2517
17898W        W36752  11.934  10.762  13.398 -0.0008 -0.0405  0.0667
17899W        W36753   3.722   9.964  12.433 -0.0441  0.1271 -0.1805
17900W        W36754  10.088  12.478  13.953  0.0208 -0.0170  0.2910
17901W        W36755  12.205  10.768  14.266 -0.3874 -0.0647 -0.1741
17902W        W36756   5.754   8.535   1.208  0.1044 -0.1738  0.1024
17903W        W36757   0.335   2.774  16.217 -0.0833 -0.1582  0.0172
17904W        W36758   5.475  14.462  14.787 -0.1297 -0.2270 -0.0655
17905W        W36759  13.855  14.518  16.203 -0.1479  0.0205  0.1916
17906W        W36760   0.319  14.934  15.540 -0.0128 -0.0376  0.0289
17907W        W36761  11.968   0.090  12.418 -0.0306 -0.2925 -0.0190
17908W        W36762   1.224  12.153  17.042  0.1405  0.2364 -0.1969
17909W        W36763   6.368  12.920   3.305 -0.1130 -0.0304  0.1647
17910W        W36764  16.013  17.279  14.173 -0.1981 -0.0473 -0.0175
17911W        W36765   2.901  14.444   1.259  0.1469  0.1078  0.0699
17912W        W36766   6.808   2.478  15.656 -0.1191  0.3469 -0.2027
17913W        W36767  11.761  15.301   3.933 -0.0348  0.0337  0.0056
17914W        W36768   0.671   8.893   5.303  0.0314  0.0807  0.0780
17915W        W36769  11.904   8.481   0.587  0.2658  0.1180  0.0096
17916W        W36770  15.465   7.374  17.209 -0.2397  0.0097 -0.0000
17917W        W36771  11.332   9.170  13.688 -0.1239 -0.3724  0.0284
17918W        W36772   3.114   3.940  13.857 -0.2584  0.1149  0.1826
17919W        W36773   8.678   9.490  13.762  0.0148 -0.0816 -0.1304
17920W        W36774  12.012  13.699   4.881  0.0522  0.0611  0.2694
17921W        W36775  13.845  14.682  14.731  0.0611 -0.1184  0.0026
17922W        W36776  14.291   3.623   4.172  0.2254  0.0783  0.2494
17923W        W36777   0.921  14.253  16.592 -0.1943 -0.0832 -0.2173
17924W        W36778   8.529   3.216   1.018 -0.2983  0.1901  0.1938
17925W        W36779   5.565  17.151   4.530 -0.0793 -0.0071 -0.0688
17926W        W36780  10.904   8.918  12.832 -0.0464  0.1107  0.2115
17927W        W36781  15.630  10.710  12.372 -0.2688  0.0839 -0.2082
17928W        W36782   5.862  15.938  16.842  0.1188  0.0397 -0.0693
17929W        W36783   8.743   8.252  14.297  0.0286  0.0774  0.2297
17930W        W36784   7.460   1.773   0.047 -0.0866  0.0779 -0.0997
17931W        W36785  17.318  17.122  13.476 -0.2043 -0.1620 -0.2471
17932W        W36786   2.442  17.140   2.497 -0.0787  0.1584  0.0282
17933W        W36787  13.880   2.037  13.833 -0.2245 -0.1070 -0.1478
17934W        W36788  11.061   4.209   0.390  0.1871  0.1927 -0.1417
17935W        W36789  13.819   2.341  14.300  0.0292  0.0622  0.2569
17936W        W36790   6.646   6.111  15.544  0.0165  0.3983 -0.0034
17937W        W36791  13.395   2.308   3.921  0.0639  0.0901 -0.0056
17938W        W36792  16.078   6.064   3.906  0.1655  0.2222  0.1219
17939W        W36793   2.752   4.588  16.508 -0.2228 -0.2050 -0.0636
17940W        W36794  16.708   0.819   1.091  0.0015 -0.1692 -0.3703
17941W        W36795  10.015  13.783   2.805  0.1320 -0.2308 -0.0025
17942W        W36796  13.245   9.629  14.438  0.0638  0.0388 -0.0552
17943W        W36797  10.028   8.941   2.160 -0.2475  0.0052 -0.1146
17944W        W36798  11.498   3.224   0.672  0.0544  0.0204  0.0499
17945W        W36799  12.330   1.765  12.935 -0.1858 -0.2196 -0.2087
17946W        W36800   5.785  15.372   4.877 -0.0096 -0.0652  0.2112
17947W        W36801   3.423   7.185   4.042 -0.0404  0.1695 -0.0821
17948W        W36802   9.318   6.383  13.987  0.0778  0.0176  0.2198
17949W        W36803  13.811  10.555   3.904  0.2857 -0.1018 -0.1776
17950W        W36804   8.794  11.756  13.758 -0.0959  0.0421  0.1822
17951W        W36805  15.432   8.413  12.380 -0.1523 -0.0658  0.0505
17952W        W36806   0.316  16.542  13.152  0.1591 -0.2155  0.0665
17953W        W36807  14.723   0.203   5.097  0.1798 -0.0201  0.0951
17954W        W36808   3.552  12.076  16.194 -0.2334  0.0942  0.2887
17955W        W36809   3.707  13.557  11.331 -0.0229  0.1554  0.2056
17956W        W36810   1.329   9.870  14.839  0.2206 -0.3409  0.3089
17957W        W36811   0.176  16.207   2.099  0.2728  0.1630 -0.0384
17958W        W36812   9.356  12.875   5.020 -0.0773  0.0263 -0.0965
17959W        W36813  16.991   5.359  13.729 -0.0033  0.1181  0.2451
17960W        W36814  11.362   6.015  13.593 -0.1289 -0.3694  0.4765
17961W        W36815   4.108  14.294  15.318 -0.0238  0.0347  0.2599
17962W        W36816   7.167  16.610  16.507 -0.2281  0.0218  0.2370
17963W        W36817  13.125   7.633   0.622 -0.2995  0.0113  0.0946
17964W        W36818   3.815  10.271  16.344 -0.1751  0.0028  0.2401
17965W        W36819  16.774   6.381   4.058 -0.0365  0.1101 -0.3077
17966W        W36820   5.586   8.064  16.060 -0.0804  0.0356 -0.0437
17967W        W36821   9.945   6.798   3.356 -0.0288  0.0474 -0.2021
17968W        W36822  10.396   0.962  14.815 -0.1635 -0.0861 -0.1260
17969W        W36823  12.921  15.920  14.228 -0.0448  0.5275  0.1248
17970W        W36824   6.596   7.041  13.513  0.0726 -0.0124 -0.1868
17971W        W36825   3.857   2.488  12.193  0.3083  0.0453  0.1561
17972W        W36826  14.094   4.648   2.897  0.0504 -0.2808  0.0577
17973W        W36827   2.822   9.259  13.446 -0.0766  0.3426  0.1232
17974W        W36828   3.476  14.105   2.321 -0.1548 -0.0751 -0.1957
17975W        W36829   0.148   3.626  13.429  0.1347  0.0885 -0.0106
17976W        W36830   2.501   6.000  16.071 -0.0399  0.2501  0.0476
17977W        W36831   6.959   4.584  17.077  0.3659  0.2222 -0.0481
17978W        W36832   4.337   0.736   0.694  0.0619  0.1801  0.1382
17979W        W36833  14.719  13.494  15.730 -0.1192  0.1581  0.1140
17980W        W36834   6.605   2.589   2.531 -0.0388 -0.2060 -0.0021
17981W        W36835   5.864   5.012  14.049 -0.3713 -0.3020 -0.0094
17982W        W36836  11.397  16.664   3.037 -0.3064 -0.1985 -0.1352
17983W        W36837   9.354   6.023  15.828  0.0522  0.0577  0.0994
17984W        W36838  10.370   3.825  13.789 -0.0826  0.0236 -0.0929
17985W        W36839  11.471   0.553  13.159 -0.3179 -0.2971 -0.2659
17986W        W36840  12.912   8.700  16.633 -0.1923 -0.0738  0.1271
17987W        W36841  14.656   5.658  13.207  0.4390 -0.2962  0.1813
17988W        W36842  13.055   5.212  17.201 -0.3243  0.0694  0.2309
17989W        W36843   9.415   5.304   3.387  0.0206 -0.2065 -0.1601
17990W        W36844  14.314  14.094   2.484 -0.0032  0.1804  0.2024
17991W        W36845  14.354   5.950  15.813  0.2190 -0.0477  0.2396
17992W        W36846   5.279  10.194  12.420  0.3126  0.1789 -0.0452
17993W        W36847   5.689  15.345  15.109  0.2369 -0.0501 -0.2716
17994W        W36848   0.502  15.744   5.304  0.1301 -0.1686 -0.2494
17995W        W36849   3.626   6.224   1.185 -0.1107 -0.2476 -0.0741
17996W        W36850   7.850   5.267   3.926  0.1245  0.1753 -0.0804
17997W        W36851  12.818   0.162  17.309 -0.4426  0.1629  0.0760
17998W        W36852   6.913  14.881  16.373  0.1629 -0.1788  0.0462
17999W        W36853   6.182   8.980   1.973  0.0222  0.1818 -0.0205
18000W        W36854  11.498   1.713   3.584  0.0308 -0.0533  0.1247
18001W        W36855   4.907   3.894   4.915  0.0799  0.0681  0.1829
18002W        W36856   5.712   3.117  14.061  0.2926 -0.2627 -0.4229
18003W        W36857   1.620   9.343   2.499  0.0637 -0.2037  0.0012
18004W        W36858   1.583   8.579   1.958 -0.1239  0.2118  0.3256
18005W        W36859   3.854   1.147   3.936  0.1609 -0.3444  0.0596
18006W        W36860  12.552   1.254   1.498  0.1010  0.0179  0.1883
18007W        W36861  12.589  10.408  14.411 -0.3841 -0.2028  0.0839
18008W        W36862   1.893   9.590  16.074  0.0881 -0.2521  0.0632
18009W        W36863   1.900  11.968  13.720  0.0140 -0.0653 -0.1992
18010W        W36864  17.064   4.021   3.900 -0.0567  0.0747 -0.2474
18011W        W36865  10.968   0.264  14.951  0.0254 -0.2666  0.0826
18012W        W36866   4.229  10.457   4.720 -0.0861 -0.2271 -0.0687
18013W        W36867  16.625   8.993  13.911 -0.1502 -0.0694  0.2524
18014W        W36868   3.748  10.645   1.779 -0.1378 -0.4159 -0.0278
18015W        W36869   9.131   7.227   3.330 -0.1664 -0.2058 -0.0151
18016W        W36870  15.137   4.340  14.855 -0.2121  0.2215 -0.2686
18017W        W36871  15.405   5.325   3.955  0.1641  0.0704  0.1739
18018W        W36872   2.339  12.818  14.943 -0.1604  0.0120 -0.0093
18019W        W36873   5.611   4.421  16.168 -0.0303 -0.1828 -0.0392
18020W        W36874  14.889   7.469  12.987  0.0765  0.2629 -0.2186
18021W        W36875   3.864   6.220   3.020 -0.0134 -0.1216 -0.3837
18022W        W36876  12.363   4.904   4.916  0.0149 -0.6084  0.0911
18023W        W36877   5.074  13.877   2.711  0.1337 -0.0053  0.1172
18024W        W36878   9.844   4.607  16.864 -0.2543 -0.1409 -0.0224
18025W        W36879  16.576  12.593   3.926 -0.2102 -0.2592  0.0846
18026W        W36880  14.261   9.392   3.188 -0.2261 -0.0065 -0.3447
18027W        W36881  11.146   3.221  13.871  0.0743 -0.0515 -0.0846
18028W        W36882   3.220  17.077   4.889  0.1999 -0.1817 -0.1010
18029W        W36883   9.681   1.574  14.985 -0.0172 -0.0296  0.0995
18030W        W36884  10.004  12.590  12.428 -0.0575 -0.0801  0.1040
18031W        W36885  10.588   6.009   4.454  0.0424  0.3054  0.1942
18032W        W36886  12.858  13.495   2.047  0.1465  0.1751 -0.1145
18033W        W36887   0.799   0.907   5.238  0.1810 -0.0273  0.0607
18034W        W36888  10.969   4.010  13.249 -0.0056 -0.1345  0.0574
18035W        W36889   4.583  10.215  14.463 -0.3443 -0.1158  0.0109
18036W        W36890   5.198   9.157   0.002  0.1690 -0.2192 -0.0197
18037W        W36891   5.189  15.545   3.056  0.0415  0.1064 -0.4106
18038W        W36892   3.340  11.673  13.838 -0.0327 -0.0107 -0.0758
18039W        W36893   7.562  15.695  16.358 -0.1109 -0.1900  0.0831
18040W        W36894   6.423   2.466   4.335  0.1610 -0.0389  0.0661
18041W        W36895   7.291   8.603   2.432 -0.2616 -0.1541  0.3107
18042W        W36896   5.562  11.943  13.236  0.0899 -0.2543  0.0793
18043W        W36897   6.619  13.755  17.035 -0.0864  0.0775  0.0365
18044W        W36898   2.948  16.385  13.454  0.0513  0.2166  0.3080
18045W        W36899  15.518   8.130  14.844  0.1339  0.2550  0.0057
18046W        W36900   2.320   8.629   1.467 -0.0320 -0.1246 -0.1601
18047W        W36901   3.703  14.618  12.462 -0.0716 -0.2166 -0.0484
18048W        W36902  11.221   8.523   5.647  0.0108  0.1160  0.1719
18049W        W36903   1.458   8.059  11.707  0.0057 -0.1328 -0.2274
18050W        W36904  11.666  16.839  15.932 -0.3251 -0.1540 -0.0705
18051W        W36905   4.521   7.373   1.694  0.1093 -0.3493 -0.2815
18052W        W36906   3.225   1.678  15.925  0.0638 -0.0558  0.1670
18053W        W36907  12.566   7.033  16.705 -0.0119  0.1824 -0.2144
18054W        W36908   5.341   9.948   3.663 -0.0011  0.0721  0.0238
18055W        W36909  11.520   5.133  16.914  0.1713  0.0730  0.3043
18056W        W36910   2.735  11.101   3.505 -0.0282  0.2272  0.1325
18057W        W36911  11.680   3.624   3.467 -0.1620 -0.1173 -0.1366
18058W        W36912  16.848  13.543  16.369 -0.1921 -0.1448  0.0283
18059W        W36913  16.416   6.465   3.711 -0.2589  0.1780  0.0069
18060W        W36914  15.827  16.241  15.480  0.1211  0.2440 -0.1480
18061W        W36915   6.984  16.445  12.838 -0.1358  0.1143 -0.0404
18062W        W36916  10.992   1.210   2.260 -0.0485 -0.1170  0.0573
18063W        W36917   3.780   6.674  15.880  0.0900  0.0375  0.1690
18064W        W36918   9.452   6.459  16.098  0.2996  0.0152 -0.0786
18065W        W36919  16.988   4.279  15.555  0.0826  0.2221  0.3030
18066W        W36920  10.001   2.612   3.748 -0.2836  0.5655 -0.1662
18067W        W36921   1.342   3.271  15.184 -0.1257  0.1845 -0.0742
18068W        W36922  13.325   8.221  13.419 -0.1759  0.0579 -0.0864
18069W        W36923   2.216   8.753   1.995  0.0430 -0.0187 -0.0660
18070W        W36924  12.961   4.055   3.286 -0.1875  0.0426  0.0210
18071W        W36925  16.009  14.961   3.310  0.0084  0.1556 -0.1378
18072W        W36926   8.630   9.107   1.264 -0.1247  0.0566 -0.0886
18073W        W36927  16.758   5.870  16.964 -0.0479  0.1049  0.1432
18074W        W36928   9.881   7.036  15.453  0.2369  0.2795 -0.0751
18075W        W36929  12.740   5.491   0.032 -0.2279  0.0229  0.3232
18076W        W36930   9.243  14.957  16.830  0.0859 -0.2528 -0.0808
18077W        W36931   0.188  13.936  13.236 -0.0457 -0.0756  0.3438
18078W        W36932  16.509   0.951  15.432 -0.1679  0.0777  0.0355
18079W        W36933   1.169  11.727   1.867 -0.0021  0.1343 -0.2173
18080W        W36934   1.108   2.757  16.929  0.3367  0.0634  0.1971
18081W        W36935  15.454   7.633   4.279  0.1024  0.1769  0.0529
18082W        W36936  14.722   4.854   3.520 -0.0744 -0.0979  0.1498
18083W        W36937   5.839  13.705  14.604 -0.1799 -0.1487 -0.1780
18084W        W36938  10.095   2.509   4.569  0.0203  0.2815 -0.0883
18085W        W36939   2.057  12.188  12.267 -0.0467 -0.2987 -0.2137
18086W        W36940  11.138  17.144   2.684  0.1313  0.0593  0.1747
18087W        W36941   6.581  16.235  12.449  0.2496 -0.0238  0.0134
18088W        W36942   7.808   4.685  17.355 -0.0019  0.1824  0.0245
18089W        W36943   2.488  14.514  13.059 -0.0075  0.2051 -0.0358
18090W        W36944  10.983   1.124  16.621 -0.4353  0.3097  0.1006
18091W        W36945  15.384   4.744   5.141 -0.3060 -0.1026 -0.3074
18092W        W36946  13.211   4.011  14.084  0.1704 -0.0410  0.1168
18093W        W36947   9.119  13.506   4.493  0.2578 -0.0645  0.1040
18094W        W36948  16.388  11.160   4.151  0.2750 -0.0598  0.0454
18095W        W36949  14.844  13.196  15.343 -0.1699  0.1935  0.2244
18096W        W36950  16.690   3.709  17.006 -0.0723 -0.0730 -0.0306
18097W        W36951   1.324  14.004   3.240 -0.0926  0.2610  0.0283
18098W        W36952   0.430   6.364   1.296  0.0218 -0.0277  0.0179
18099W        W36953   4.141   4.979  13.804 -0.1942 -0.0218  0.0996
18100W        W36954   2.464  10.151  13.354 -0.0449 -0.3536  0.1490
18101W        W36955   6.296  10.050   3.133 -0.1324 -0.0510 -0.2358
18102W        W36956   8.059   2.931   4.251  0.1727  0.0385 -0.1322
18103W        W36957   9.285   6.930   3.732 -0.2573  0.1156  0.0144
18104W        W36958   9.329  14.495   0.572  0.2494 -0.0802 -0.1473
18105W        W36959  10.849   7.008  13.539  0.2951 -0.2263  0.0792
18106W        W36960   0.390   4.150   3.984  0.0052 -0.3257  0.1804
18107W        W36961   1.921   8.081  13.582  0.0340 -0.0779 -0.0486
18108W        W36962  11.932  16.595   3.069 -0.0598 -0.4227 -0.1507
18109W        W36963   8.207   5.118   1.558  0.0005 -0.0412  0.1673
18110W        W36964  12.753   6.420   2.292 -0.0258 -0.1543  0.0671
18111W        W36965   1.439   9.668  11.788  0.0905 -0.0074 -0.3252
18112W        W36966   3.833   9.715  17.008 -0.2275  0.2325 -0.0174
18113W        W36967   8.431  12.407  16.605  0.2141 -0.0043 -0.1603
18114W        W36968   5.841   6.429   6.368 -0.0751  0.2486  0.2097
18115W        W36969   5.190   8.458  14.934 -0.2920  0.1225  0.1396
18116W        W36970  11.850  14.948  16.098  0.1150 -0.1941 -0.1354
18117W        W36971   4.066  14.022   2.369  0.1175 -0.3396 -0.1076
18118W        W36972   5.181  12.021  12.942 -0.0398 -0.3031 -0.0085
18119W        W36973  11.642   7.090  16.271 -0.2964  0.0140 -0.2072
18120W        W36974   2.985  10.871  16.499  0.2770 -0.1170  0.1719
18121W        W36975   0.608  16.396   1.898 -0.1269  0.0767  0.0035
18122W        W36976  11.130  10.370  13.029 -0.1193  0.2661 -0.2678
18123W        W36977  12.842   2.383   0.937  0.4185  0.1377  0.0191
18124W        W36978  10.109   8.708  17.096  0.5558  0.3946  0.1065
18125W        W36979  11.250  14.919   0.021  0.1237 -0.3362  0.0589
18126W        W36980   6.225   4.420  13.282 -0.1158  0.2643 -0.1727
18127W        W36981   4.270   1.437  12.943  0.1163  0.0145  0.0733
18128W        W36982  15.375  11.184  12.590  0.0598 -0.3668 -0.1770
18129W        W36983  16.712   7.663   0.597 -0.0219  0.1136  0.1179
18130W        W36984  12.320   5.147  15.721 -0.1583  0.2233  0.0119
18131W        W36985   2.411   3.310  17.429  0.0341  0.0471  0.1570
18132W        W36986   9.785  14.276  15.881  0.0770 -0.3057 -0.2062
18133W        W36987   3.257   1.294  17.119  0.0725 -0.2833 -0.2643
18134W        W36988   3.680   2.179  14.425 -0.0875 -0.2340 -0.0543
18135W        W36989   4.029  10.870  16.017  0.0815  0.0747 -0.1431
18136W        W36990   0.671  11.489  15.695  0.0182  0.1620  0.2380
18137W        W36991   1.577  13.600  11.322  0.1727  0.0026 -0.2403
18138W        W36992   9.407  15.683   1.358  0.1147  0.1515  0.2153
18139W        W36993  13.666   4.595   1.727  0.2854  0.1678 -0.1485
18140W        W36994   6.006  14.238  16.931  0.0266 -0.0608  0.1246
18141W        W36995  13.398  12.314   4.853  0.2171 -0.1213 -0.1233
18142W        W36996  13.578   1.242  16.926  0.2486  0.1493 -0.0393
18143W        W36997  12.765   6.125  14.980 -0.1890 -0.2682 -0.2094
18144W        W36998   1.569   9.899   0.490  0.0499  0.2054  0.1375
18145W        W36999  12.340   7.241  13.033  0.1378  0.0125  0.0398
18146W        W37000  14.777  14.870  14.939  0.3231 -0.0488  0.0975
18147W        W37001  10.411  10.647   0.940 -0.0974 -0.0182 -0.2228
18148W        W37002   2.501   3.430  12.935 -0.0961  0.1923 -0.1625
18149W        W37003  10.470   3.238   3.252  0.0393 -0.0158  0.3595
18150W        W37004  12.000   7.817   2.403 -0.4262 -0.0336 -0.0680
18151W        W37005   6.205   0.983   4.226  0.1103 -0.1198 -0.2701
18152W        W37006  10.302   9.119   1.486  0.1884  0.2725  0.3379
18153W        W37007  10.858  13.684  16.907 -0.0493  0.0393  0.1339
18154W        W37008   8.756  16.235   2.649 -0.2116  0.0430 -0.0667
18155W        W37009  11.539  11.809  15.999 -0.0948  0.0887  0.2566
18156W        W37010   2.928   1.491  16.302  0.0999 -0.0009  0.0614
18157W        W37011  10.673  13.407   3.153  0.1387 -0.3040 -0.0582
18158W        W37012  15.779   2.687   3.848  0.0384  0.1348 -0.2168
18159W        W37013   3.179  15.629   0.079 -0.2729 -0.1370  0.1966
18160W        W37014   7.873  11.000   4.763 -0.0973  0.3355 -0.3522
18161W        W37015   1.068   5.391  14.218 -0.1787  0.1920  0.0291
18162W        W37016  11.720  10.375  16.916  0.1855  0.1815 -0.3027
18163W        W37017   6.875  15.914   1.906 -0.2442 -0.1166  0.1174
18164W        W37018   7.971   1.452   1.546  0.1150 -0.0614  0.2885
18165W        W37019  14.116  17.101  12.157  0.2713 -0.2251 -0.2573
18166W        W37020  13.998   5.867   4.001 -0.1151 -0.3758 -0.2164
18167W        W37021   6.224   4.902   1.834  0.0624 -0.0348 -0.0884
18168W        W37022  15.148  16.571   1.826 -0.0892  0.1554 -0.0177
18169W        W37023   0.466   9.034  13.718 -0.0561 -0.0298  0.0439
18170W        W37024   2.884   3.466  13.238  0.1386  0.0918 -0.3088
18171W        W37025   1.026  17.236  17.241 -0.3277 -0.2266  0.0349
18172W        W37026   3.287   6.970  16.437 -0.1159  0.1573 -0.0126
18173W        W37027   8.117  17.035  12.431 -0.1942 -0.0870 -0.0305
18174W        W37028   5.415   4.814   5.524  0.0775 -0.2010 -0.1657
18175W        W37029   2.268   7.230  17.350  0.0368  0.1017 -0.2977
18176W        W37030   7.996   3.865   2.048 -0.1562 -0.2665  0.0821
18177W        W37031   3.015  15.254  16.290  0.0013  0.0006  0.1784
18178W        W37032   9.299  12.664   2.047 -0.1652 -0.0139  0.0107
18179W        W37033  10.530  16.291  15.577 -0.0934  0.0644  0.1506
18180W        W37034   8.153   3.632   4.439 -0.2883 -0.0695 -0.0859
18181W        W37035   0.052   8.070  14.964  0.3389  0.2924 -0.1039
18182W        W37036   9.818  14.533   0.676 -0.2106 -0.0369 -0.0140
18183W        W37037   9.253  10.298   3.207  0.0902  0.0674  0.3435
18184W        W37038   8.203   5.901   1.250  0.1370  0.0732 -0.1494
18185W        W37039   7.806   7.359   2.190  0.3361 -0.0070  0.2802
18186W        W37040   2.182  11.867  11.858  0.0114 -0.1715 -0.2318
18187W        W37041  17.236   4.562  16.936 -0.0197  0.2422 -0.0009
18188W        W37042  13.938  17.252  13.956 -0.0018  0.0200  0.2048
18189W        W37043  14.555   6.194  16.240  0.0712  0.0208 -0.0114
18190W        W37044   8.734  11.996   0.362 -0.0336  0.1637 -0.1440
18191W        W37045   0.601  11.393  13.927  0.1631  0.0319 -0.0692
18192W        W37046  14.224   3.894   2.460 -0.0438 -0.0043  0.1007
18193W        W37047  11.041   9.649   0.903  0.0941 -0.3398 -0.0793
18194W        W37048   8.149   7.922   0.311 -0.1080  0.0625  0.2858
18195W        W37049   1.992   0.435  14.036 -0.0720 -0.0437 -0.2074
18196W        W37050   9.121   9.322  12.872 -0.0198 -0.1457 -0.2287
18197W        W37051  11.168   2.989   1.677  0.3046  0.0785  0.2786
18198W        W37052  16.548   9.938  12.910  0.2894  0.2510 -0.0583
18199W        W37053   4.898  10.692   4.936 -0.1501 -0.1060  0.0304
18200W        W37054   1.150  15.636   1.321 -0.0660  0.1184  0.0572
18201W        W37055   9.024   4.826  14.027 -0.3030  0.0860  0.1663
18202W        W37056  12.354  11.731   4.336  0.1927  0.0038  0.2414
18203W        W37057  17.048   6.534  16.472  0.0035 -0.2402 -0.0211
18204W        W37058  13.891   6.328   2.500  0.0360  0.2609  0.2591
18205W        W37059  12.036   8.345   5.333 -0.0215 -0.0510 -0.2965
18206W        W37060   0.196  16.688  15.161  0.1466  0.1907  0.2918
18207W        W37061  12.662   1.968  13.829 -0.0718 -0.1612  0.2206
18208W        W37062   4.609   2.609   4.624  0.1488 -0.0285 -0.2760
18209W        W37063   7.429   4.952   0.368 -0.0317 -0.0194  0.2338
18210W        W37064   8.342   1.054  13.151 -0.0442  0.2358  0.3799
18211W        W37065  13.622   0.521   4.059  0.2720 -0.0209 -0.1498
18212W        W37066  11.678   6.103   2.076 -0.1910 -0.5140  0.3080
18213W        W37067   3.690  16.458   5.249 -0.0913 -0.2358 -0.2773
18214W        W37068   0.757  11.820  13.722 -0.1110 -0.3359 -0.0818
18215W        W37069   9.330   2.581   3.697  0.0802  0.2449  0.0243
18216W        W37070   7.763   0.531  15.265 -0.4035 -0.4419 -0.4261
18217W        W37071   2.704   1.111   1.159  0.0542 -0.2140 -0.0702
18218W        W37072  11.752  14.096  15.478  0.1541 -0.0720  0.0196
18219W        W37073  12.937   0.021  12.419  0.1150 -0.0624  0.0676
18220W        W37074  15.010  16.856   5.105 -0.0172 -0.2121  0.0652
18221W        W37075  16.168  10.642   1.654 -0.2812 -0.3155 -0.1710
18222W        W37076  16.796  12.177   4.812 -0.4104 -0.0351 -0.1666
18223W        W37077  15.119   3.765   4.282 -0.0167 -0.2501  0.0131
18224W        W37078  17.257  12.761  15.067 -0.0053 -0.1862 -0.1468
18225W        W37079   6.514   3.061  14.080  0.0043  0.0739  0.0665
18226W        W37080   1.955   7.058  15.268 -0.0065 -0.1399  0.2368
18227W        W37081   6.126   6.739  13.694 -0.1292 -0.0364  0.1012
18228W        W37082   2.675  11.846  14.223  0.3006 -0.0124 -0.0672
18229W        W37083   2.835   6.885   4.572  0.4395 -0.1778 -0.1132
18230W        W37084  10.554   2.168   2.278 -0.0661 -0.1742  0.1354
18231W        W37085  15.833  10.578   6.337 -0.1767  0.1936  0.1606
18232W        W37086  12.855   7.836   2.184  0.1800 -0.0583 -0.0780
18233W        W37087   9.039  12.257   2.073  0.1396 -0.3290  0.0110
18234W        W37088   9.689   0.358  16.146 -0.1240  0.2545  0.0530
18235W        W37089   3.485  13.692   0.937 -0.1082  0.0907  0.1117
18236W        W37090  14.878  11.135  15.506 -0.0019 -0.2626 -0.1288
18237W        W37091  10.602   6.369  14.735  0.1785 -0.2745 -0.1541
18238W        W37092  16.014   5.812   0.663  0.3389 -0.1483 -0.0310
18239W        W37093  15.456   9.131  13.549 -0.1015 -0.3253  0.0034
18240W        W37094   6.549  14.637   1.208  0.1965 -0.1969 -0.1541
18241W        W37095   0.895  12.972  16.713  0.1454 -0.1259  0.2743
18242W        W37096  15.784   2.344  12.860 -0.1013 -0.1088 -0.0293
18243W        W37097   4.591   9.152   3.442  0.1558 -0.2010 -0.3686
18244W        W37098   3.490  10.984  16.544  0.1028  0.0947 -0.0853
18245W        W37099  13.082   7.774   2.639 -0.0393  0.0301  0.4117
18246W        W37100  17.192   7.692   0.724 -0.0746 -0.1469  0.2027
18247W        W37101   8.657   4.270  13.560  0.1080 -0.0622  0.3093
18248W        W37102   7.862   6.364  14.037 -0.2080  0.2589  0.1311
18249W        W37103   9.267  14.520  17.112 -0.2331  0.0092 -0.2279
18250W        W37104   4.917   8.102  14.686  0.0007  0.1285 -0.3214
18251W        W37105   9.377   3.455  14.379 -0.4346 -0.0595 -0.0154
18252W        W37106  14.857   0.381   1.148  0.1169 -0.1999  0.1080
18253W        W37107  12.881   9.628  14.857  0.0370 -0.0577  0.2601
18254W        W37108   0.771   0.172   2.459  0.0830 -0.3572 -0.0373
18255W        W37109  12.133   1.234   4.150  0.1063 -0.0725 -0.2234
18256W        W37110  11.111  10.886  14.956 -0.3506  0.3773 -0.0024
18257W        W37111   3.830  14.762  13.277 -0.2793 -0.0879 -0.4962
18258W        W37112  12.750  15.774   4.187  0.0818  0.2189  0.0469
18259W        W37113   6.043  13.032  15.272 -0.0044  0.1953  0.0803
18260W        W37114  14.669  11.633  17.405 -0.4441 -0.1430  0.2753
18261W        W37115   3.465   0.409  12.930  0.1036  0.3673 -0.1971
18262W        W37116   6.167   9.831  17.071  0.1990  0.2490 -0.0496
18263W        W37117  16.570   8.034  15.050  0.1848  0.1787  0.1552
18264W        W37118  14.720   2.309  12.133  0.3149  0.1333 -0.3612
18265W        W37119   5.612  14.159  14.286  0.0217  0.1802  0.2040
18266W        W37120  14.042   6.760   2.808 -0.0123  0.2058 -0.0788
18267W        W37121   5.006   3.147  15.948 -0.0715  0.2483 -0.1784
18268W        W37122  15.057   5.971  12.285 -0.1402 -0.0649 -0.1107
18269W        W37123   7.582   7.146  15.676 -0.0780 -0.2926 -0.4397
18270W        W37124  11.590  11.906  14.300 -0.0934 -0.1883 -0.2709
18271W        W37125  12.917   4.569   3.235  0.0908  0.2445 -0.4302
18272W        W37126   9.486  15.276   5.028 -0.0695 -0.2452 -0.2220
18273W        W37127  16.175   1.069  12.305 -0.1245  0.0533 -0.1379
18274W        W37128   2.737  14.408   1.986 -0.0114  0.0281 -0.1423
18275W        W37129  10.950   6.759   3.403  0.0690  0.0321 -0.0866
18276W        W37130   2.438   6.241   3.745 -0.0590 -0.1133  0.0076
18277W        W37131   2.828   6.875   3.281 -0.1669 -0.0507  0.0806
18278W        W37132   7.823   1.029   1.317  0.1345 -0.1343 -0.1429
18279W        W37133  12.030   3.589   3.995 -0.2697 -0.2325  0.2171
18280W        W37134  10.941   2.357  14.447 -0.3683  0.2306  0.0058
18281W        W37135   3.240  14.361   3.322 -0.2106 -0.1466  0.1874
18282W        W37136   7.933   4.443  16.842 -0.4113 -0.3790  0.0377
18283W        W37137   3.545   2.407  12.971 -0.0968 -0.0429  0.1187
18284W        W37138   7.028  14.181   4.797  0.0980 -0.1820  0.0326
18285W        W37139  11.763  11.989  12.861  0.2913  0.0078  0.0066
18286W        W37140   2.876   0.611   1.387  0.0629 -0.2273  0.2485
18287W        W37141  16.551   7.967  14.092 -0.1917  0.2224 -0.0256
18288W        W37142   8.365   4.016  16.990  0.0129  0.1200  0.2431
18289W        W37143  15.404   5.627  14.376  0.1788 -0.2585  0.1218
18290W        W37144   3.722  17.199  15.637 -0.1401 -0.1175  0.1691
18291W        W37145  15.490  10.240  16.163  0.1645  0.0498  0.2137
18292W        W37146   5.413   6.370  16.097 -0.2105  0.1035 -0.0403
18293W        W37147   8.248   7.653  13.043 -0.0892  0.0598 -0.0477
18294W        W37148   0.019   5.930  14.670 -0.0590 -0.0356  0.1412
18295W        W37149   3.149  16.201   2.613 -0.0968  0.0948 -0.1201
18296W        W37150   6.572  11.940  12.579 -0.2230  0.0587  0.2297
18297W        W37151   7.532   1.339  14.974 -0.2771  0.1642  0.2483
18298W        W37152  16.502  10.299  13.362 -0.0886 -0.0901 -0.1726
18299W        W37153   4.173  11.702  14.792  0.2852  0.0962  0.1734
18300W        W37154   1.451  15.134   3.068  0.1011  0.1805  0.1273
18301W        W37155   5.809   9.374  13.004 -0.0796 -0.1117 -0.1023
18302W        W37156  13.951   3.674  14.255 -0.0709  0.0791  0.0431
18303W        W37157  11.027  12.828  16.402 -0.0561  0.0914  0.0647
18304W        W37158  10.222   3.577   3.450  0.3704 -0.0881  0.0104
18305W        W37159   4.949  17.317   0.888  0.1616  0.1170 -0.1936
18306W        W37160  16.967  13.211   4.609  0.0709  0.1083 -0.0365
18307W        W37161   8.933   6.332   0.814 -0.2465 -0.2664  0.1422
18308W        W37162   7.941  10.775   0.026  0.0253  0.1133 -0.0658
18309W        W37163  12.517  11.571   2.290 -0.1161 -0.1022  0.1088
18310W        W37164   8.174  14.179   5.114  0.0474  0.1628 -0.2272
18311W        W37165   1.052   0.759  15.936 -0.0775 -0.1854 -0.0063
18312W        W37166   5.975   3.634  13.446 -0.1229  0.2193 -0.1081
18313W        W37167  15.561   1.521   4.474  0.0544 -0.0299 -0.1573
18314W        W37168   0.774   2.821   1.141 -0.2023 -0.2265  0.0839
18315W        W37169  11.320  14.468   4.300 -0.1459  0.0399 -0.1418
18316W        W37170   4.972  10.598   0.636 -0.0471  0.1330  0.0246
18317W        W37171   9.377   0.638  13.737  0.0173  0.0804  0.0159
18318W        W37172  12.040  10.487   2.137  0.0212  0.2457  0.1459
18319W        W37173   9.348  10.176   4.482  0.0072  0.0169 -0.0952
18320W        W37174  14.083   5.046  12.444 -0.5438  0.2961  0.5151
18321W        W37175  17.070   2.634  15.733  0.1582 -0.0825 -0.1392
18322W        W37176   9.603   5.657   1.821  0.0883 -0.1437 -0.2839
18323W        W37177  17.304  10.322  13.392 -0.0054  0.0554 -0.0597
18324W        W37178  16.887   3.130  17.291 -0.0716  0.0102  0.1640
18325W        W37179   2.807   9.512   2.968 -0.0129 -0.3313  0.2888
18326W        W37180   3.203   6.034  16.098  0.1812  0.2693 -0.2817
18327W        W37181  15.795   7.643  16.954 -0.0359 -0.0644 -0.0024
18328W        W37182  12.021   1.377  13.021  0.0282 -0.0817  0.0160
18329W        W37183   5.933  11.480   5.446 -0.1703  0.2352 -0.1106
18330W        W37184   5.889   9.622   5.719 -0.2955 -0.3017  0.3076
18331W        W37185   8.454   0.512   1.392 -0.1099  0.7309  0.2425
18332W        W37186   9.385   2.178   5.612 -0.1348  0.1374  0.2362
18333W        W37187   9.287   1.792  15.180  0.1561  0.2360  0.2428
18334W        W37188  17.317   1.662   1.914  0.0180  0.1116 -0.2355
18335W        W37189   4.606  11.439   4.209 -0.0637 -0.0266  0.0344
18336W        W37190   1.798  14.517  16.125  0.2072  0.1349 -0.0013
18337W        W37191   4.946   6.790   4.672 -0.1554 -0.2009  0.1140
18338W        W37192   3.814   7.012  15.449 -0.0296 -0.1630  0.1137
18339W        W37193   7.905   1.950   1.772 -0.0256  0.1656 -0.2760
18340W        W37194  14.637  13.150   4.725 -0.0840  0.0098  0.3027
18341W        W37195   6.100  15.527   1.542  0.3494  0.0770  0.1059
18342W        W37196  15.842   5.630   1.842 -0.1333  0.1536  0.2753
18343W        W37197   1.027  17.253   0.811 -0.0921 -0.0993 -0.1203
18344W        W37198  11.363  12.934  15.135 -0.1963  0.0945  0.0488
18345W        W37199  14.439  16.823  15.825  0.1661 -0.2858  0.2291
18346W        W37200  13.410   7.941  12.389 -0.1123 -0.0097  0.0494
18347W        W37201   4.584  13.087  16.970  0.0789 -0.0636  0.1324
18348W        W37202   0.402   7.932   4.302  0.1876 -0.3580  0.2157
18349W        W37203   4.233  12.350  15.891 -0.4818 -0.2161  0.3322
18350W        W37204  11.360   4.934   3.842 -0.3079  0.2402 -0.0661
18351W        W37205  15.798  15.740  13.892 -0.2202  0.0980 -0.2216
18352W        W37206   3.599   5.316  16.442 -0.0470 -0.0752 -0.0112
18353W        W37207  13.793   0.258  12.381  0.0098 -0.2415 -0.0244
18354W        W37208   8.451  14.880  14.045 -0.1933  0.1195  0.2546
18355W        W37209  15.213  11.729  12.410 -0.0936  0.1627 -0.0305
18356W        W37210   6.984  13.830   2.576  0.0163 -0.0839  0.2438
18357W        W37211  11.642   3.328  12.560 -0.1731 -0.1359 -0.2555
18358W        W37212   8.633  11.469   3.086 -0.0596 -0.0856 -0.0314
18359W        W37213  14.144  14.872   0.762 -0.1460  0.0041 -0.1931
18360W        W37214   0.654  16.039   2.815 -0.2758  0.1172  0.1257
18361W        W37215  16.599   7.817  15.544 -0.2060 -0.0298  0.0392
18362W        W37216  11.838   3.525  13.274  0.2960  0.0940  0.2836
18363W        W37217   3.871  11.953  15.750  0.1670  0.1015 -0.4329
18364W        W37218   4.083  12.359   1.941  0.1110  0.0436  0.1604
18365W        W37219   1.458  14.424   0.626 -0.0393  0.2313 -0.0734
18366W        W37220   1.274  14.636  14.641  0.2216  0.0502 -0.1711
18367W        W37221  11.989   5.078  17.016  0.3715 -0.0449  0.1920
18368W        W37222   4.898   1.685   2.615  0.0425  0.1260  0.1455
18369W        W37223  16.053   1.580  14.960  0.1029  0.2994 -0.2953
18370W        W37224  11.229  12.632  13.681  0.0295 -0.0318  0.0061
18371W        W37225   6.264   4.463   5.070  0.0677  0.0049 -0.0687
18372W        W37226   5.278   6.563   2.480  0.0263  0.2939 -0.4130
18373W        W37227   8.857  11.759  14.691  0.0978  0.2403  0.2138
18374W        W37228  10.560   2.435   3.573 -0.0956  0.0073  0.0945
18375W        W37229   6.241  10.260  12.779 -0.2558 -0.5106  0.0083
18376W        W37230  14.784  14.340   1.686 -0.0095 -0.2319  0.1614
18377W        W37231   5.386   6.092   3.291 -0.1253  0.1477  0.1164
18378W        W37232   0.091   6.735   1.102  0.0005  0.1779  0.0287
18379W        W37233   1.452  14.833   5.095  0.0530  0.0541 -0.2516
18380W        W37234   6.531  12.990  14.952 -0.2424 -0.2035 -0.3050
18381W        W37235   1.994   2.266   4.030 -0.0659  0.0419  0.3041
18382W        W37236  12.945  14.422   0.022 -0.2013 -0.0171 -0.0057
18383W        W37237   3.003  14.060   0.864 -0.1650  0.3247 -0.1042
18384W        W37238  10.248  10.912   5.471  0.1383 -0.0489 -0.3009
18385W        W37239   4.908   7.456   0.706  0.0806 -0.2383 -0.0495
18386W        W37240  14.675  11.157  17.271  0.2463  0.1707  0.0187
18387W        W37241  15.468   8.329   0.714 -0.2052 -0.0481  0.1000
18388W        W37242   3.419   8.565   2.512  0.1509 -0.1570 -0.2795
18389W        W37243  17.283   4.808  13.435 -0.0385 -0.1376 -0.1153
18390W        W37244   7.893  14.189  16.860  0.1342  0.1919 -0.3367
18391W        W37245  13.786   4.554   5.086 -0.1939 -0.2493  0.3894
18392W        W37246  15.856  10.794  15.412 -0.3122 -0.0660 -0.0087
18393W        W37247   4.804  10.921  14.026  0.1851  0.0723  0.2593
18394W        W37248   7.123   1.127  15.666 -0.0923  0.0314 -0.1388
18395W        W37249   3.202  11.298  15.604  0.1783 -0.0455 -0.0958
18396W        W37250  17.333   2.481  14.136  0.3613  0.0028  0.1015
18397W        W37251   9.287   3.330  17.168 -0.1462 -0.0005  0.0315
18398W        W37252  10.411   5.327   0.199  0.1813  0.0872 -0.0359
18399W        W37253  10.859  17.311  12.251  0.1193 -0.2093 -0.2059
18400W        W37254  13.729   9.259   5.173  0.2856 -0.0441 -0.0022
18401W        W37255  15.793  10.512   0.365  0.0309 -0.1956  0.5032
18402W        W37256  16.798   3.643   2.242 -0.4568  0.0843 -0.0504
18403W        W37257  14.497  12.191   0.583  0.0783  0.1733 -0.0306
18404W        W37258  13.737   2.464  14.999 -0.0825 -0.1189  0.3392
18405W        W37259   6.931   7.107  16.595  0.2109  0.3355 -0.0795
18406W        W37260  10.959   0.919  16.146  0.0008  0.0586 -0.1430
18407W        W37261   7.601  10.700   2.698 -0.0233 -0.1592 -0.0647
18408W        W37262  10.657  11.839  13.883 -0.0587  0.0099 -0.2122
18409W        W37263   5.582  14.531  16.806 -0.0714 -0.0567 -0.0625
18410W        W37264   8.158  16.473   0.163  0.0775  0.0770  0.0716
18411W        W37265  12.954  11.398  12.858  0.0191  0.1016  0.3650
18412W        W37266  12.721   6.904   0.318 -0.0876  0.0723  0.0887
18413W        W37267   8.715   0.752  12.898  0.2182  0.1250  0.0999
18414W        W37268  15.884  11.191   4.989 -0.1661 -0.0091 -0.1394
18415W        W37269   4.444  15.614   1.188  0.0097 -0.1730  0.2279
18416W        W37270  16.806  16.869   1.595  0.0149 -0.2321  0.2343
18417W        W37271  10.308   4.600   0.821  0.1504  0.0864 -0.1681
18418W        W37272   1.415  13.092  15.098  0.1002  0.2202 -0.0186
18419W        W37273  12.452   2.551  14.728 -0.2582 -0.4019  0.1584
18420W        W37274   6.349  10.275   0.314  0.0038  0.1530  0.2469
18421W        W37275   4.697  14.358  13.993  0.0451  0.0405  0.1976
18422W        W37276   5.443   3.431  12.584  0.1116  0.1917  0.2260
18423W        W37277   8.139  15.848  13.187 -0.0681 -0.1044 -0.0715
18424W        W37278  13.875  17.157   4.602 -0.0534 -0.1548  0.1155
18425W        W37279   9.123   4.780   4.608 -0.1414  0.1360 -0.3145
18426W        W37280   6.016  10.652   0.520  0.1857  0.0652  0.0569
18427W        W37281  13.147   1.685   3.500 -0.1550 -0.2690 -0.2581
18428W        W37282   3.515  16.239   4.629  0.3318  0.2342  0.0176
18429W        W37283   7.011   4.923  16.052 -0.0145  0.0472  0.0466
18430W        W37284   4.309  15.650   1.697  0.0465  0.0642  0.3299
18431W        W37285  16.929   0.026  13.368 -0.1674 -0.0021  0.3790
18432W        W37286   3.941   4.956   1.165  0.2485 -0.0353  0.1179
18433W        W37287  12.138   2.853  13.839 -0.0467 -0.2002 -0.1931
18434W        W37288   4.707   1.187  15.394 -0.1408 -0.5248 -0.0018
18435W        W37289   7.795   9.401   2.930  0.2893 -0.3232  0.3857
18436W        W37290   7.645  15.885   0.271 -0.0968  0.1528  0.0808
18437W        W37291  13.837  13.977   3.170 -0.1625 -0.2419  0.2338
18438W        W37292   8.080   7.807  13.876 -0.0484  0.0664  0.1714
18439W        W37293   5.465   5.040   5.003 -0.1134  0.2985  0.1727
18440W        W37294  16.389   9.986  15.945 -0.1053 -0.1593  0.0645
18441W        W37295  13.196   3.989  12.893 -0.0802 -0.1281 -0.0405
18442W        W37296  11.257  13.078  14.403 -0.2466  0.3112  0.0502
18443W        W37297   4.639  10.342   2.229 -0.2306  0.0963  0.0430
18444W        W37298   6.374  11.541  14.884 -0.1051 -0.0602  0.3803
18445W        W37299  11.878  10.959   0.418  0.1843  0.1440 -0.2697
18446W        W37300  14.666   9.596   0.521  0.1123  0.0552 -0.3656
18447W        W37301  16.229  16.732  16.588  0.1101 -0.1134  0.1121
18448W        W37302  12.072   7.395  15.867 -0.1034  0.1685 -0.2237
18449W        W37303   3.287   4.428  13.956  0.0022  0.0426  0.2533
18450W        W37304  10.134  13.603  13.063  0.1030  0.2339  0.2341
18451W        W37305  14.049  14.926   3.711  0.1540  0.2962 -0.1454
18452W        W37306  12.020   5.131   1.199 -0.2695  0.0233  0.2721
18453W        W37307  15.122  12.563  14.428  0.3222 -0.1936  0.1633
18454W        W37308  16.955   8.660  15.726 -0.6087  0.2365 -0.2739
18455W        W37309   5.310  10.764  16.360 -0.0022  0.1856 -0.1702
18456W        W37310   7.538   0.935  16.522  0.0791  0.0762  0.2267
18457W        W37311   3.373  10.605  14.497  0.0190 -0.2210  0.2092
18458W        W37312  11.228  12.164   4.152  0.0067  0.1034  0.2205
18459W        W37313  17.122   8.579  14.620  0.1178 -0.0488 -0.0954
18460W        W37314  10.979  10.822  15.439  0.0105 -0.1231  0.0080
18461W        W37315  16.461   4.375   1.399  0.2195 -0.0454 -0.0256
18462W        W37316  15.789   8.988  16.365 -0.0518  0.3089 -0.1716
18463W        W37317   8.730  14.364  15.763  0.0248 -0.2212 -0.0200
18464W        W37318   4.507  13.182   4.292  0.0570 -0.1627 -0.0466
18465W        W37319   7.920   7.772   2.395 -0.0436  0.1145  0.1555
18466W        W37320  12.535   7.244   4.770  0.3538  0.1817 -0.0222
18467W        W37321  13.333  15.484   1.033  0.0710 -0.3438  0.1194
18468W        W37322   9.203  16.860   1.868 -0.0697 -0.0858 -0.0437
18469W        W37323   9.526  11.282  15.950  0.1178 -0.4323  0.1991
18470W        W37324  15.506  11.848   0.698 -0.0187 -0.1194  0.0481
18471W        W37325   3.399  11.526   1.177  0.0550  0.0836 -0.2869
18472W        W37326  10.152   0.175  14.460 -0.2986  0.0541  0.0705
18473W        W37327  15.496  15.018  13.908  0.0503 -0.2135 -0.1902
18474W        W37328   7.589  14.145   1.376 -0.3430  0.0493 -0.0240
18475W        W37329  11.921  12.533   2.935  0.0679 -0.0774 -0.0626
18476W        W37330  12.860  12.530   2.863 -0.4716  0.0089 -0.2922
18477W        W37331   0.638  10.899  14.225 -0.0974  0.0732 -0.0298
18478W        W37332  14.815  13.212   3.728  0.0270 -0.1942 -0.0746
18479W        W37333   0.697   5.777  14.180 -0.0325 -0.1759  0.1865
18480W        W37334  13.877  11.896  13.329 -0.1576  0.3099 -0.2304
18481W        W37335   9.546  14.101  14.638 -0.2534 -0.2801 -0.1317
18482W        W37336  13.117   1.990   1.379  0.2242  0.2976  0.1551
18483W        W37337   1.181  11.083   3.104  0.2080 -0.1039 -0.1551
18484W        W37338  14.195  17.296  13.043 -0.0619 -0.1800 -0.1167
18485W        W37339   3.788   4.327  16.256 -0.2252  0.0852  0.0986
18486W        W37340  17.342   8.933   4.607 -0.1682  0.0297 -0.0144
18487W        W37341   2.545   2.692   2.428 -0.1432 -0.0323 -0.2544
18488W        W37342   9.414   7.720  12.656 -0.0344  0.0152 -0.1167
18489W        W37343  14.669   9.061  12.280 -0.0930  0.1240 -0.1881
18490W        W37344   8.870   0.427  13.674  0.0651 -0.1185 -0.2285
18491W        W37345  13.652   1.943   1.497  0.1222  0.1413 -0.5341
18492W        W37346   4.597   3.223   3.440 -0.2955 -0.0050 -0.0336
18493W        W37347   0.927   5.443  14.688 -0.3133 -0.0716  0.1654
18494W        W37348  15.209   1.683  15.815  0.0031 -0.5473  0.3378
18495W        W37349   9.501  10.813   2.991 -0.2477 -0.0148  0.1342
18496W        W37350  16.415   3.549  13.316  0.1405 -0.3811  0.0702
18497W        W37351   7.329  14.620  15.541  0.0902  0.0815 -0.0205
18498W        W37352   2.575   2.181  15.983  0.2761  0.3392 -0.1672
18499W        W37353  12.792   8.266   5.299 -0.1231 -0.2241  0.1891
18500W        W37354   3.624  16.180   2.496 -0.1284 -0.2217  0.0413
18501W        W37355   1.180  10.010   1.208 -0.0933  0.1032  0.0560
18502W        W37356  10.438   5.790  15.683 -0.1063  0.1908 -0.0911
18503W        W37357  14.534  10.271  14.406  0.0554  0.1052  0.1458
18504W        W37358   0.528  11.593  14.792 -0.3704 -0.4097 -0.0901
18505W        W37359  10.804   2.240  13.918  0.2333  0.0418 -0.1885
18506W        W37360   7.516  17.300   5.647  0.2296 -0.0647 -0.1016
18507W        W37361   4.915  12.023   4.762  0.2288 -0.1102 -0.1443
18508W        W37362  11.639  14.532  16.289  0.0972  0.0129  0.4040
18509W        W37363   3.684   8.144  16.707 -0.0206  0.0077 -0.0766
18510W        W37364  12.268  17.215   6.320 -0.0078  0.2315 -0.1066
18511W        W37365   9.323   6.006   2.808  0.0351  0.0378  0.0137
18512W        W37366  15.496   3.242  12.901 -0.0645  0.0247  0.2623
18513W        W37367  13.711   0.217  15.740 -0.3597  0.0803  0.0798
18514W        W37368  12.189   7.116  14.091 -0.0482  0.1917 -0.1815
18515W        W37369  14.946  14.040   3.279 -0.0697 -0.0237  0.3100
18516W        W37370  14.298  15.554   1.211 -0.0669  0.3110 -0.1697
18517W        W37371  13.460   4.987   3.584 -0.1525  0.2609 -0.1399
18518W        W37372   1.284   0.421  16.463 -0.0075  0.0371  0.1978
18519W        W37373   1.238   3.555   3.363  0.0998 -0.1730  0.0440
18520W        W37374  10.562   7.588   3.459  0.3834 -0.0654 -0.0761
18521W        W37375  11.340  15.870  14.832  0.0198  0.3073  0.0765
18522W        W37376   2.726  15.579  13.825  0.2304  0.3495 -0.0062
18523W        W37377   8.912   7.393  13.982  0.0413 -0.0349  0.1624
18524W        W37378   0.023  13.712   2.895  0.0668 -0.2297 -0.1302
18525W        W37379   0.820  13.777  16.105  0.2697  0.0101  0.0611
18526W        W37380   8.791   3.206   3.161  0.1704  0.0894 -0.2429
18527W        W37381   3.332   7.128  12.921 -0.1566 -0.0263  0.4560
18528W        W37382   3.200  12.494  12.845 -0.0649 -0.0150  0.3327
18529W        W37383  14.801   1.223   4.103 -0.0484  0.0105 -0.0270
18530W        W37384   5.484   2.465   3.932  0.0181 -0.0816  0.1785
18531W        W37385   1.478  12.888  17.408 -0.2313  0.2152 -0.1089
18532W        W37386   8.746  15.019   4.967  0.0852 -0.1845 -0.1752
18533W        W37387   7.676  12.156  11.735  0.2520  0.0947  0.5134
18534W        W37388  15.295  11.481   0.476 -0.1701  0.1248  0.1309
18535W        W37389  12.093   1.947  14.605 -0.0483 -0.0602 -0.2209
18536W        W37390  11.174   3.847   3.948 -0.1330 -0.0759 -0.2642
18537W        W37391   9.061  10.790   2.790 -0.2197 -0.1680  0.1590
18538W        W37392   1.862  16.190  12.606  0.1610  0.1124 -0.3162
18539W        W37393  12.777   2.090   1.753  0.2386 -0.0585 -0.2219
18540W        W37394  13.349   1.538   2.948  0.0481  0.2970  0.0036
18541W        W37395   2.840  10.419   0.594 -0.2428 -0.2096 -0.2602
18542W        W37396  12.963  14.285  12.173 -0.0252  0.0742  0.0357
18543W        W37397   3.745  16.174  17.434  0.2180  0.1586 -0.0167
18544W        W37398   8.555  13.161   2.288  0.0494  0.0357  0.0587
18545W        W37399   9.712   2.558  17.426 -0.0391  0.0080  0.2427
18546W        W37400   1.808  11.983   3.753 -0.4521  0.0592  0.0610
18547W        W37401   3.901  11.895   2.984  0.0820 -0.0340  0.3054
18548W        W37402  16.291  14.058  16.683  0.0690 -0.1216  0.1566
18549W        W37403  16.054  15.774   2.313  0.2764 -0.2466 -0.3060
18550W        W37404  12.360   5.671  15.929  0.0163 -0.3352 -0.2129
18551W        W37405  16.029  14.056  12.878 -0.1270  0.0006  0.2175
18552W        W37406   5.436   3.178  15.652 -0.3130 -0.0021 -0.0960
18553W        W37407  13.570   6.483   2.867 -0.0329 -0.0261 -0.4927
18554W        W37408   1.913   1.898  14.003  0.0966 -0.2956  0.1611
18555W        W37409   6.430   7.841   1.197 -0.1645 -0.1303 -0.1740
18556W        W37410   8.853   7.831  15.504 -0.1435 -0.1809 -0.1974
18557W        W37411   6.784  15.552  14.221  0.1425 -0.0274 -0.1135
18558W        W37412  14.225   0.744   4.399 -0.0574  0.2607 -0.1108
18559W        W37413   1.680   4.569  14.823 -0.1019 -0.2496  0.0248
18560W        W37414   0.562  10.528  13.729  0.1917 -0.1941 -0.0516
18561W        W37415   9.928  13.601  14.720  0.1169 -0.2172  0.2393
18562W        W37416   0.182   9.223  14.149  0.2052  0.0607 -0.1983
18563W        W37417  11.502  16.379   4.775  0.0440  0.2328 -0.3119
18564W        W37418   7.846  17.332  14.291 -0.0299  0.0226  0.1513
18565W        W37419  16.555   8.407  13.768 -0.3783 -0.0943  0.0337
18566W        W37420   8.826   9.158  12.565  0.1276  0.2192 -0.0912
18567W        W37421  15.432  15.244  16.868  0.1452 -0.1361  0.1383
18568W        W37422   7.616  15.625  17.296  0.0943 -0.4319  0.5039
18569W        W37423   5.729   7.710   3.561  0.1142 -0.0574  0.1100
18570W        W37424  12.850   6.617  14.896  0.0980 -0.0857 -0.3128
18571W        W37425   9.364  11.758  16.699 -0.0848 -0.2453  0.1599
18572W        W37426  11.396  12.271  15.853 -0.0497  0.4065  0.1597
18573W        W37427  12.830   5.268  13.123 -0.2875  0.0766  0.1026
18574W        W37428  12.186   1.805   4.296 -0.1455 -0.2334 -0.0771
18575W        W37429  11.401  16.124  16.802 -0.0331  0.3794  0.0946
18576W        W37430   2.469   1.608   0.143  0.2551 -0.0706  0.0631
18577W        W37431  12.664   7.962  17.417 -0.0629 -0.0949 -0.0791
18578W        W37432   4.815   7.738   3.241  0.0988 -0.2101 -0.0287
18579W        W37433  16.103  17.113  12.362 -0.0815  0.2879  0.0159
18580W        W37434   1.371   2.688  14.070  0.0544  0.2895 -0.1557
18581W        W37435   7.217  14.949   1.663 -0.0860 -0.0487  0.0145
18582W        W37436   6.632  13.228   0.074 -0.0580 -0.0862  0.2558
18583W        W37437  11.404   0.084  13.633 -0.0241  0.2868 -0.1067
18584W        W37438  12.624   8.312  14.773  0.2610 -0.1954  0.0990
18585W        W37439   1.487   5.601   1.823 -0.1004 -0.4696 -0.0768
18586W        W37440  15.697  15.527  14.835 -0.0169  0.0418  0.2237
18587W        W37441   0.614   5.019  16.850 -0.0421  0.1601 -0.1435
18588W        W37442   5.862  10.541  16.921  0.0593 -0.1616 -0.0901
18589W        W37443  17.243  10.317   2.874 -0.0777  0.2838 -0.2665
18590W        W37444  10.309  17.054   0.945 -0.2554 -0.2764  0.0631
18591W        W37445   4.453   7.620   3.832 -0.1036 -0.0041  0.2186
18592W        W37446  14.697  12.153   1.161  0.1793 -0.1986  0.0101
18593W        W37447  17.226  13.403   4.191  0.0908 -0.0024 -0.1057
18594W        W37448  14.437   2.451   3.626  0.0723  0.0203 -0.0914
18595W        W37449  12.716   9.429   0.316  0.2722 -0.2229 -0.1135
18596W        W37450  15.555   6.767  16.844  0.2042 -0.3592  0.2640
18597W        W37451   1.520   5.621  15.825  0.0078  0.0540 -0.0491
18598W        W37452  12.418   0.838  12.483  0.0740 -0.0560 -0.0309
18599W        W37453   2.622   1.010   4.787 -0.0359 -0.2090 -0.0228
18600W        W37454   7.372   9.030   4.842 -0.1035 -0.0751 -0.0646
18601W        W37455  16.134   0.379  16.563  0.2197 -0.2083 -0.1567
18602W        W37456   2.737  15.631   2.982  0.1735  0.0183  0.0032
18603W        W37457   1.487   9.455   4.278 -0.1243  0.2117  0.3233
18604W        W37458   7.090   1.050   5.812  0.0032 -0.0959  0.0868
18605W        W37459  15.973  16.629  12.558 -0.0071  0.0591 -0.2982
18606W        W37460   6.148  10.614   0.019  0.1589 -0.1623 -0.2757
18607W        W37461   5.435   2.935  12.221  0.3971 -0.2017 -0.4907
18608W        W37462   8.197   9.421  16.503 -0.2640  0.3566 -0.0701
18609W        W37463   4.808   2.937   5.088 -0.1064 -0.1018 -0.0211
18610W        W37464   8.362   6.212  14.157 -0.0467  0.0460 -0.1326
18611W        W37465   7.657   5.568  13.768  0.0880  0.0982 -0.0013
18612W        W37466   3.763  14.137   2.736 -0.1287 -0.1665  0.2423
18613W        W37467   8.291  16.544   2.709  0.2252 -0.1498  0.1837
18614W        W37468   7.161  16.722  13.763  0.2105 -0.1048  0.1732
18615W        W37469  10.261  13.573  13.533  0.0021 -0.2756 -0.0961
18616W        W37470  16.393  10.704  15.948  0.2081  0.1220 -0.1989
18617W        W37471  15.471   7.458  15.661  0.1084  0.4067  0.0830
18618W        W37472   0.589   0.221  12.566 -0.3529  0.2701 -0.1879
18619W        W37473  10.121  16.391  13.164  0.1784  0.1627  0.2509
18620W        W37474   0.337  13.178   4.330 -0.2185  0.1124  0.2616
18621W        W37475  11.413   8.230   4.452 -0.0787 -0.1412 -0.1170
18622W        W37476   8.677  11.363  16.485 -0.1644  0.2068  0.0643
18623W        W37477   2.835   0.320  12.423 -0.0075  0.4612  0.0409
18624W        W37478  16.747  11.179  17.018  0.3797  0.0695  0.1127
18625W        W37479   1.765   4.591   1.472 -0.0440  0.1133 -0.0487
18626W        W37480   1.354   5.193   3.074  0.2606  0.0713 -0.1724
18627W        W37481   8.627   1.267  15.854  0.0958 -0.0270  0.0963
18628W        W37482  10.614   0.572   0.901 -0.1404  0.3687  0.1221
18629W        W37483   7.487  16.575   0.127  0.0159  0.0666 -0.1440
18630W        W37484   1.658   4.835  14.363 -0.1292  0.0636  0.4718
18631W        W37485   2.462  16.199  17.226 -0.1458  0.1171 -0.0832
18632W        W37486  10.443   8.130   6.181 -0.0728 -0.1229  0.0873
18633W        W37487   2.066  12.080  16.952  0.3271 -0.1375 -0.0652
18634W        W37488  10.271   9.393   6.171  0.2182 -0.1806 -0.0118
18635W        W37489   8.992  13.221  12.421  0.0331 -0.1432  0.0415
18636W        W37490   1.375  13.153  16.702  0.2609 -0.0221 -0.0356
18637W        W37491   5.676  13.911   4.539 -0.0379  0.1756  0.1013
18638W        W37492   5.508  11.550   4.419 -0.1654  0.0517  0.1606
18639W        W37493  13.207  14.773   3.169 -0.1494  0.3344  0.0763
18640W        W37494  16.283  15.366  16.647  0.0367  0.1342 -0.1594
18641W        W37495  13.901   2.065   3.225 -0.0028  0.1805  0.2862
18642W        W37496   5.631  15.467  13.577  0.0848  0.0233  0.3171
18643W        W37497  11.991   6.459   1.579 -0.3013 -0.0599 -0.0431
18644W        W37498  10.540  13.807   1.477 -0.1491  0.1788  0.1521
18645W        W37499  16.213  14.488  13.963 -0.0210 -0.1853  0.1524
18646W        W37500  16.776  14.496   2.742  0.1002  0.0286 -0.1173
18647W        W37501   5.521   8.325   2.772  0.3591 -0.1324 -0.0254
18648W        W37502  12.169  10.596   4.649  0.0229  0.0460  0.0244
18649W        W37503  13.360  10.980   0.153  0.0964 -0.1171  0.1674
18650W        W37504  17.156  14.325  16.789 -0.0694 -0.0824 -0.2546
18651W        W37505  15.643   0.149  15.818  0.0118 -0.1872 -0.1287
18652W        W37506   5.432   8.748   0.410 -0.1929 -0.2021  0.0322
18653W        W37507  14.205   7.090   3.157 -0.0918 -0.0199  0.2757
18654W        W37508  13.114   4.579  15.540  0.1075  0.1170  0.0642
18655W        W37509   2.523   5.453  13.227  0.1934 -0.1342  0.1080
18656W        W37510  12.039   2.063   3.876  0.1670  0.0940 -0.1808
18657W        W37511   6.742  16.796  15.753 -0.1047  0.0894  0.0114
18658W        W37512   3.433   7.888   4.615 -0.0484  0.3728  0.2496
18659W        W37513  12.441  13.824   1.278 -0.1447  0.1247 -0.1283
18660W        W37514  10.547  12.529   0.604 -0.2122  0.3043  0.3041
18661W        W37515   8.240   3.673   1.662  0.0895 -0.0629 -0.3329
18662W        W37516  12.532   3.242  12.466 -0.0248 -0.0985 -0.0062
18663W        W37517   9.131   4.180  13.755  0.2426 -0.1317  0.1207
18664W        W37518   7.265   2.555  14.456  0.2682 -0.1676  0.0370
18665W        W37519   4.831   3.154   2.592 -0.1404 -0.0056  0.0798
18666W        W37520   6.778   6.177   3.393  0.1565  0.1205  0.1964
18667W        W37521  16.228  13.109  15.857  0.3489  0.0980 -0.2112
18668W        W37522   1.147   9.120   4.054  0.0903  0.0803  0.0613
18669W        W37523   8.122  14.467  17.301 -0.0538  0.1295 -0.1485
18670W        W37524  16.240   5.264   5.378  0.0698  0.1739  0.1669
18671W        W37525   7.099   7.329   4.473  0.1378 -0.2285 -0.2920
18672W        W37526  15.596   7.305   2.351  0.0217 -0.1624  0.1981
18673W        W37527   4.095   2.496   4.443  0.0549  0.0566  0.3621
18674W        W37528   1.233  11.441  16.135 -0.0203 -0.0726  0.0597
18675W        W37529   8.870   0.241   0.032 -0.2794  0.0729  0.2157
18676W        W37530   0.235   1.087  12.487  0.2422  0.0301 -0.1198
18677W        W37531  13.630   1.497   0.455 -0.0515 -0.2711  0.0338
18678W        W37532   3.864   9.642   0.979  0.1492  0.0546  0.1021
18679W        W37533  11.189  15.456   0.638  0.0140 -0.0171 -0.0148
18680W        W37534  16.725   7.686   3.473 -0.0142 -0.0164 -0.0741
18681W        W37535   1.396  16.467  16.792  0.1258 -0.1209  0.0024
18682W        W37536  15.490  17.342   2.688 -0.0764  0.1574 -0.0196
18683W        W37537   0.157  16.889   0.265  0.0398 -0.1791 -0.0091
18684W        W37538   3.091   7.438   4.367  0.0436 -0.2727  0.0063
18685W        W37539   7.594   2.333  15.996  0.1213  0.0253  0.0376
18686W        W37540   3.841   3.479   0.752 -0.1292  0.2564  0.0245
18687W        W37541   4.409  14.174  13.098  0.1905 -0.2428  0.1515
18688W        W37542   9.207  14.621   4.364  0.0220 -0.0286 -0.0017
18689W        W37543   1.780   1.074   4.445 -0.1298 -0.0405 -0.4563
18690W        W37544   2.810   7.341  16.422  0.2507  0.0039  0.0098
18691W        W37545   8.143  10.832  13.013  0.1027  0.0721 -0.0661
18692W        W37546  17.019   0.719  15.468 -0.0561  0.3375  0.1556
18693W        W37547   8.458  12.583  14.389 -0.0133  0.0407 -0.1406
18694W        W37548   4.454  15.059   0.971  0.0943  0.0210  0.1800
18695W        W37549   9.748   3.701  17.299 -0.0137  0.3597 -0.0586
18696W        W37550   3.306  10.479  16.453  0.3088 -0.0980 -0.2982
18697W        W37551   9.304   5.291   4.743 -0.4371 -0.2152  0.0673
18698W        W37552   9.297   8.593  15.555 -0.1548 -0.0666  0.1325
18699W        W37553   3.940   1.644   0.394 -0.1439 -0.1543  0.0799
18700W        W37554  16.640   1.824  12.418  0.2970  0.2836 -0.2253
18701W        W37555   9.389  11.521   0.761 -0.0507  0.0827  0.3292
18702W        W37556  15.603   5.832   4.055  0.1126  0.0729  0.2178
18703W        W37557   6.578   6.396   5.222  0.4127  0.0590 -0.5336
18704W        W37558   2.084   2.633   1.544  0.2167  0.1646  0.0523
18705W        W37559   4.393  14.047  13.763  0.0388  0.0590 -0.2539
18706W        W37560   7.736  14.172  17.354 -0.0839 -0.0430 -0.1677
18707W        W37561   7.311  12.384  13.796  0.0891 -0.0875  0.1455
18708W        W37562   6.124   3.194   0.473  0.1793 -0.0922 -0.0379
18709W        W37563  14.186   8.643  16.639 -0.3058 -0.1939 -0.0963
18710W        W37564  16.341  13.280   4.697  0.0706  0.4131  0.1918
18711W        W37565  14.505   7.171   0.920 -0.0874 -0.0790  0.1762
18712W        W37566  11.366   9.493  13.289 -0.1636 -0.1711  0.0938
18713W        W37567   3.126  16.566   4.966 -0.0193  0.1824 -0.4035
18714W        W37568   4.636   2.983  11.933 -0.4006 -0.1841 -0.1302
18715W        W37569  17.127   1.297   3.552 -0.2890 -0.1907  0.1525
18716W        W37570  12.686  16.325  14.132  0.0749  0.1025  0.1098
18717W        W37571   2.929   7.836   3.433  0.1860  0.0526  0.1253
18718W        W37572  11.512   8.427   1.403 -0.0973  0.0071  0.3202
18719W        W37573  15.622   9.767  12.955  0.1317  0.2465 -0.0034
18720W        W37574  14.740  13.639  15.228  0.0076 -0.1759 -0.1019
18721W        W37575   6.534   4.668  12.915  0.3422  0.0643  0.0274
18722W        W37576  13.188  14.198  12.852 -0.2966 -0.1076  0.1128
18723W        W37577  15.883  13.469   2.967 -0.0734  0.0361  0.1639
18724W        W37578   0.513   7.434   3.463  0.0549 -0.0413 -0.0257
18725W        W37579  10.067  15.547   2.241  0.0986  0.1278 -0.2122
18726W        W37580   9.380   0.574   0.426 -0.0136 -0.1285  0.3470
18727W        W37581  16.565   4.361   5.233 -0.1221 -0.0856  0.2414
18728W        W37582   0.893   2.924  14.422  0.1941 -0.1084 -0.2542
18729W        W37583   0.850   4.136  15.060 -0.7030 -0.2214  0.2129
18730W        W37584   2.480  13.499   0.530 -0.0052 -0.2750 -0.0286
18731W        W37585  11.134   8.426  15.582 -0.3029  0.2836  0.1260
18732W        W37586   8.912   9.617  16.424 -0.1812 -0.1125  0.0254
18733W        W37587   5.237   7.666   4.203 -0.2737 -0.2659  0.1160
18734W        W37588   2.438   1.132  13.508  0.0121  0.1435 -0.4474
18735W        W37589   3.848   8.738  17.440  0.0883  0.0621  0.0077
18736W        W37590   6.121  15.686   2.945 -0.0628 -0.1220  0.0045
18737W        W37591  10.970   3.832   1.921 -0.2024  0.0412  0.2949
18738W        W37592   8.174   3.069  16.209 -0.1743  0.2184 -0.0671
18739W        W37593   6.741   7.025   3.699 -0.4363  0.1175  0.1065
18740W        W37594  17.045   1.044   2.785  0.0174 -0.2872  0.2153
18741W        W37595  16.518  17.286  15.466 -0.1124  0.0844  0.0385
18742W        W37596   4.881   5.931  16.752  0.1769  0.2365  0.2028
18743W        W37597   1.507   6.778   1.829  0.1561 -0.2819 -0.0029
18744W        W37598  12.884   6.723   4.770  0.0878  0.1181 -0.0862
18745W        W37599   2.168  12.001   0.439  0.0664 -0.0231  0.1727
18746W        W37600  16.622  10.804   0.859 -0.1435 -0.1002 -0.1545
18747W        W37601  14.994   2.174   2.819  0.0611  0.0176  0.0609
18748W        W37602   7.196  10.139  14.846  0.0833  0.3347 -0.2643
18749W        W37603   9.079   6.272   4.926  0.0948 -0.1965 -0.2263
18750W        W37604  17.267   4.512  15.232 -0.2497 -0.0693 -0.0173
18751W        W37605  13.873  15.164  16.778 -0.1611  0.0281  0.2709
18752W        W37606   0.599   9.621   2.723 -0.0656 -0.0249 -0.1355
18753W        W37607  10.088   3.693  13.116 -0.0592 -0.3714 -0.1153
18754W        W37608   2.840  15.448   1.339 -0.1358  0.2415  0.3092
18755W        W37609   7.639   0.370   4.000 -0.1963 -0.3528  0.0838
18756W        W37610  10.944   9.808  14.144 -0.0539 -0.0827  0.0417
18757W        W37611   7.055   5.999   2.987 -0.0551 -0.1509  0.1867
18758W        W37612  13.901  13.802  16.809  0.2590 -0.2434 -0.1249
18759W        W37613   0.224  16.538   4.332  0.1834  0.0806 -0.0390
18760W        W37614   9.818  16.758   1.843 -0.1009  0.1036  0.2168
18761W        W37615  16.355   2.121   2.861 -0.1436 -0.0125  0.0493
18762W        W37616   3.453   9.171  12.433  0.0186 -0.1352  0.2705
18763W        W37617   8.061  15.103   0.013  0.0361  0.0632 -0.1797
18764W        W37618   8.633  15.742   3.703 -0.0267  0.1993  0.0792
18765W        W37619   5.371   0.858   4.199 -0.3649  0.1781  0.0970
18766W        W37620   7.161   5.616   5.136  0.0480 -0.1031 -0.1423
18767W        W37621  17.047   1.443   5.355  0.0354 -0.2484 -0.1633
18768W        W37622  15.667  15.890  13.366  0.1007 -0.1573 -0.1055
18769W        W37623   0.716  12.124  14.180 -0.3595  0.1026  0.0844
18770W        W37624   3.865  13.795   0.626  0.0685 -0.2922  0.1148
18771W        W37625   9.832  10.987   2.122  0.0236  0.0241  0.0738
18772W        W37626   9.170  17.031  15.236  0.0905 -0.0671 -0.1066
18773W        W37627   1.867  10.107  16.119  0.0735 -0.0902  0.0959
18774W        W37628   6.973  14.704  15.923 -0.3514  0.2100  0.0930
18775W        W37629   4.543   4.369   4.155  0.2994 -0.2085 -0.0415
18776W        W37630   1.287   5.631  13.337 -0.0708  0.1099 -0.2256
18777W        W37631   1.982   8.908   0.236 -0.1451 -0.1510 -0.3382
18778W        W37632  11.935   0.497  14.607  0.0028 -0.0145 -0.1189
18779W        W37633  11.314   1.611   4.531  0.0813 -0.2390  0.0107
18780W        W37634   3.943   8.561  15.869  0.2664 -0.1267  0.3179
18781W        W37635  12.142   9.604   4.313  0.1289  0.1577  0.2859
18782W        W37636  12.510   5.246  13.873  0.2643 -0.1281  0.0224
18783W        W37637   4.148  14.638   0.808 -0.1477 -0.0443 -0.0037
18784W        W37638   5.881  11.670   3.777 -0.0966  0.0674  0.0744
18785W        W37639   7.582  13.763   4.112  0.3194  0.1666  0.0848
18786W        W37640   9.649  15.518  13.454 -0.1563  0.1003 -0.0575
18787W        W37641   4.054  14.626   1.704 -0.0704  0.0630 -0.1282
18788W        W37642   5.701   1.237   4.921 -0.2099  0.1108  0.0870
18789W        W37643   6.168   1.030  15.457  0.0090  0.3381  0.1598
18790W        W37644   5.885  11.446   2.383 -0.1735 -0.3355 -0.0868
18791W        W37645  10.906   3.258  16.865  0.2320 -0.2329 -0.1561
18792W        W37646   9.809  14.862  14.489  0.0890 -0.1277 -0.0307
18793W        W37647   2.517  12.102  12.681  0.0891 -0.1993 -0.0037
18794W        W37648   2.632  10.191  14.156 -0.1719  0.3730  0.1000
18795W        W37649  14.227  16.040   0.392  0.0940 -0.1277  0.3746
18796W        W37650  11.856  14.362   4.959 -0.0277 -0.0060  0.1078
18797W        W37651  13.348   8.258   0.495  0.0218 -0.0928 -0.0453
18798W        W37652  11.966   5.823   1.793  0.2621 -0.2027 -0.2016
18799W        W37653   9.889  14.963  15.627  0.3661 -0.2158  0.2358
18800W        W37654  16.635  14.891  12.457  0.1762 -0.0786  0.2926
18801W        W37655   6.916  12.370   5.361 -0.0316  0.2720 -0.3048
18802W        W37656   5.825   7.112   1.259  0.0196  0.0574  0.1188
18803W        W37657  14.068   3.278   1.731  0.2055  0.2687 -0.2502
18804W        W37658   6.422  13.945  13.442  0.3845  0.0968 -0.0390
18805W        W37659   0.304   0.659   1.261  0.3611 -0.1302  0.2335
18806W        W37660  13.185   7.073   0.446 -0.0237 -0.1040 -0.2170
18807W        W37661   6.699  14.630   3.063  0.1879 -0.0590 -0.2211
18808W        W37662  14.802  11.366  13.703 -0.1906  0.0051 -0.0438
18809W        W37663   1.356   0.028   1.823 -0.2010  0.2400  0.0267
18810W        W37664  10.566  16.014  12.168 -0.1451  0.0520  0.0164
18811W        W37665  10.577  14.075   1.922  0.0933 -0.3117 -0.0733
18812W        W37666   8.448   0.121  16.860 -0.1809  0.2387 -0.1415
18813W        W37667  10.894   0.071   1.282  0.1088  0.0322 -0.0223
18814W        W37668   3.006  17.084  14.481 -0.0183  0.4288  0.1427
18815W        W37669   6.931   5.419   2.343  0.1334  0.1036 -0.0415
18816W        W37670   8.677   1.636   2.322 -0.1495 -0.4040 -0.0573
18817W        W37671  13.534   9.108  14.457 -0.0178 -0.2138 -0.0382
18818W        W37672  12.283  10.625  12.436 -0.0567  0.2127  0.2988
18819W        W37673  14.536  11.748   3.243  0.0569  0.1559 -0.0385
18820W        W37674   6.345   7.643  15.293 -0.2866  0.0935  0.0413
18821W        W37675  10.310   8.047   2.164  0.2401  0.0253 -0.1482
18822W        W37676   8.477  14.857   0.049 -0.0255 -0.0029 -0.0092
18823W        W37677   2.540  10.663   2.683 -0.2358  0.0058 -0.1545
18824W        W37678   2.461   8.457   3.902 -0.0990  0.0113 -0.1626
18825W        W37679   9.100  11.921   1.725  0.3847  0.1940  0.1236
18826W        W37680   0.423  12.006  14.591 -0.3682 -0.0719  0.0040
18827W        W37681  14.440  10.830  14.303  0.0684  0.0711  0.0631
18828W        W37682   3.358   7.831   2.070  0.1242  0.0496 -0.1247
18829W        W37683  13.229   2.349  15.145  0.1327 -0.0199 -0.2553
18830W        W37684   4.813  11.782   0.311 -0.3429  0.0513 -0.1697
18831W        W37685   9.916   5.474  14.627 -0.3606 -0.0203 -0.1317
18832W        W37686   7.065   9.641   1.610  0.0783 -0.3063 -0.1244
18833W        W37687   4.023  14.452  16.197  0.1920 -0.0661 -0.3257
18834W        W37688   8.922  17.027  13.195  0.1763 -0.1638 -0.0654
18835W        W37689  14.542  12.198  16.246 -0.0110  0.1708  0.0786
18836W        W37690  16.869   0.272   4.810  0.0124 -0.0742  0.2395
18837W        W37691  16.029   8.777   4.412 -0.1009  0.2458 -0.1478
18838W        W37692  13.826   1.403   1.743 -0.0322 -0.1649  0.2923
18839W        W37693  16.381   9.503  16.046 -0.1801 -0.1141 -0.0752
18840W        W37694  13.230  16.616  14.205  0.1671 -0.0627  0.0343
18841W        W37695  13.401   8.871  12.496  0.0186 -0.1794 -0.0131
18842W        W37696   9.618  17.299   3.072 -0.3623 -0.0662  0.4461
18843W        W37697   9.416  10.915  14.391 -0.2093  0.2465  0.1998
18844W        W37698   4.591   8.648   3.161  0.0061  0.0917 -0.0996
18845W        W37699   7.332  12.654   0.513  0.1105 -0.1345  0.1332
18846W        W37700   5.707   3.349   0.943  0.1404 -0.0213  0.1272
18847W        W37701  10.563   6.623   1.063 -0.0501  0.4206  0.0830
18848W        W37702  11.816  16.132   2.964 -0.0798 -0.0250 -0.1339
18849W        W37703   0.776   1.258   0.070 -0.1330 -0.0979 -0.1443
18850W        W37704   8.024  15.372  17.033  0.1611  0.0758  0.0341
18851W        W37705  10.872  10.320  13.906  0.1646  0.0752  0.0840
18852W        W37706   5.445  12.436  15.839 -0.2995 -0.0288 -0.1822
18853W        W37707   2.528  11.688   2.196 -0.0439 -0.0183  0.1956
18854W        W37708   0.502   9.375   1.861 -0.3031  0.0818 -0.0469
18855W        W37709   8.809   1.325   1.944 -0.0491 -0.0632  0.2767
18856W        W37710   4.863  13.258  12.802 -0.0818  0.0621 -0.0229
18857W        W37711  11.592  10.215  14.727  0.0546  0.1270 -0.1441
18858W        W37712  10.997   2.958   4.592  0.0560  0.0947  0.3106
18859W        W37713   8.216   7.650   2.026 -0.0051  0.1225  0.0828
18860W        W37714   8.196  15.324  13.146 -0.1794  0.0092  0.3528
18861W        W37715  15.150  12.977  15.026 -0.1060  0.0521 -0.0446
18862W        W37716  12.318   1.651   3.850  0.1287  0.4373  0.1693
18863W        W37717   0.999  11.019  13.013  0.2237  0.1613  0.0309
18864W        W37718   7.273   4.219  16.909 -0.0645 -0.0195  0.2182
18865W        W37719   7.561  13.301  16.805  0.0220 -0.0210  0.4164
18866W        W37720  16.071   2.623  12.493  0.2100  0.0091  0.2136
18867W        W37721  15.732   1.599  16.497 -0.0060 -0.4168 -0.5229
18868W        W37722  13.209   4.098   2.270  0.0698 -0.3046 -0.1653
18869W        W37723   9.606   1.818   1.279  0.2078  0.1640 -0.1591
18870W        W37724  16.846   6.851  13.187 -0.2283 -0.1192 -0.3286
18871W        W37725  12.036   8.642  14.009  0.3853  0.0992  0.0124
18872W        W37726   4.078  12.038  16.254  0.3762 -0.2559  0.2047
18873W        W37727  13.022   2.369   4.910  0.0085 -0.2116  0.1917
18874W        W37728  12.214   5.301  16.261  0.1347 -0.0700 -0.2144
18875W        W37729   6.402   5.580  16.125 -0.2737 -0.0676  0.2420
18876W        W37730  12.289   9.674   0.199 -0.0990  0.2895 -0.1944
18877W        W37731  15.969   6.705  16.637 -0.1022 -0.0572  0.2014
18878W        W37732   3.487  12.431   3.835  0.3779 -0.0850 -0.0602
18879W        W37733   8.442   7.489   0.377  0.1590  0.0864 -0.1388
18880W        W37734  15.756  12.197   1.672 -0.1307  0.1103 -0.0398
18881W        W37735  11.996  12.815  15.461 -0.1762 -0.1634  0.1332
18882W        W37736   2.409   6.378   2.137 -0.2042  0.2679  0.1573
18883W        W37737   8.297  12.094   0.031  0.0992  0.0964  0.2048
18884W        W37738   4.243  12.641   0.862  0.0122  0.1295  0.1256
18885W        W37739  10.723   0.019  15.768 -0.1566 -0.2741  0.0047
18886W        W37740  11.294   0.315   2.488 -0.2197 -0.0089  0.2031
18887W        W37741   8.335  16.334  14.245  0.0644  0.0174 -0.4330
18888W        W37742  14.514   3.332   4.546 -0.0727  0.1408  0.1657
18889W        W37743   8.167   0.724   1.072  0.1303 -0.2419  0.2319
18890W        W37744  10.164   4.963  16.212 -0.0482  0.1426  0.1148
18891W        W37745   0.683  14.429   1.917 -0.1125 -0.1857  0.3268
18892W        W37746   9.630   2.233  13.731  0.0588  0.0769 -0.2259
18893W        W37747  15.858  12.295  13.171  0.0985  0.1217  0.1937
18894W        W37748  10.875  10.467   1.674  0.0376  0.1072 -0.0631
18895W        W37749   9.473   6.325  13.168  0.0442  0.1708 -0.0634
18896W        W37750   1.704   3.625   3.529 -0.4012  0.0792 -0.1586
18897W        W37751   9.085   9.073  13.341 -0.0577 -0.1188  0.1309
18898W        W37752   7.304   6.628  13.965  0.1796  0.0734 -0.0765
18899W        W37753  14.440   1.856   0.458  0.3966  0.0904 -0.2618
18900W        W37754  12.027  14.817  17.112 -0.1028  0.2277 -0.0617
18901W        W37755  12.027  15.854   1.175  0.0703 -0.1189  0.1068
18902W        W37756  14.595   7.264   3.430 -0.0008 -0.2086 -0.1947
18903W        W37757   0.464   2.395  12.251  0.0113 -0.2034  0.0285
18904W        W37758   6.529   3.499   2.070  0.1955 -0.1018  0.0977
18905W        W37759   8.539  13.717  16.761  0.2954 -0.0157  0.1341
18906W        W37760   5.989   1.196   0.938 -0.3201  0.3223 -0.0360
18907W        W37761  11.559  16.160   4.126 -0.0494  0.0166 -0.2114
18908W        W37762   9.001   9.432   1.505  0.5158 -0.1828 -0.0752
18909W        W37763   4.380  16.905   1.064  0.1734 -0.0673  0.2664
18910W        W37764   4.791   2.566  15.030  0.2817  0.1127  0.0026
18911W        W37765   7.923  16.769  15.569  0.2007 -0.2456  0.1243
18912W        W37766   3.380  13.865  14.301 -0.0489 -0.2924  0.1216
18913W        W37767  10.145  12.027   2.971  0.1463  0.2768  0.1866
18914W        W37768   8.003   7.839  15.142 -0.1186  0.2399  0.4236
18915W        W37769   7.584   4.385  16.496 -0.1793 -0.0655 -0.0601
18916W        W37770  14.296  16.273  15.897 -0.0419 -0.2209  0.0089
18917W        W37771   1.533  15.831   2.728 -0.1433 -0.0268 -0.0362
18918W        W37772  12.809   1.647  16.127 -0.1200  0.0652  0.2755
18919W        W37773  14.811   0.940   3.083 -0.0365 -0.2129 -0.0838
18920W        W37774  11.963  12.612   4.304  0.2718 -0.0367  0.0351
18921W        W37775  11.875   4.708  13.981  0.1178  0.1705 -0.2185
18922W        W37776   3.229  12.973  14.584  0.0166  0.1753 -0.0506
18923W        W37777  16.510  12.788   4.860 -0.0509  0.0357 -0.3905
18924W        W37778   6.116  13.172   4.620 -0.1081 -0.2599  0.0279
18925W        W37779   7.826   8.564   3.973  0.1614 -0.1177 -0.0939
18926W        W37780   4.682   7.505   2.739  0.2674 -0.1376  0.0273
18927W        W37781   0.920   1.637   3.272 -0.0144 -0.0141  0.0872
18928W        W37782   3.729   5.187  15.161 -0.0969 -0.2694 -0.2310
18929W        W37783   0.193   2.581   3.918  0.0311  0.1467 -0.4208
18930W        W37784  17.058  13.258   0.183  0.0566  0.1153  0.3535
18931W        W37785  12.576   4.139   4.219  0.0295  0.0044 -0.0689
18932W        W37786   1.956   8.516   4.054 -0.1051  0.1162  0.0857
18933W        W37787  11.055   7.458   4.236 -0.1103  0.0885  0.2350
18934W        W37788   5.154   1.700   3.671  0.0539 -0.2103  0.0517
18935W        W37789  13.082  10.428  15.157  0.0600 -0.0511  0.2387
18936W        W37790   9.178   1.647   2.066  0.0832 -0.3765  0.1775
18937W        W37791   9.091   6.768   0.925  0.2372 -0.1845  0.1882
18938W        W37792   4.758   2.421  14.462 -0.3122  0.0472 -0.0406
18939W        W37793   5.340   5.066  12.510 -0.0325 -0.1095 -0.1461
18940W        W37794  14.009  11.999   0.659  0.2415  0.2469  0.2540
18941W        W37795  16.577  10.615   0.359  0.1221 -0.2528 -0.0568
18942W        W37796   8.021  12.016  15.903 -0.0843 -0.1502 -0.1755
18943W        W37797  10.828   3.159   2.329 -0.0655  0.3858 -0.1835
18944W        W37798   8.620  14.108   4.210 -0.0064  0.1178  0.0353
18945W        W37799   0.335   6.418   4.017  0.0424  0.1112 -0.1226
18946W        W37800   3.448   8.998  13.400  0.1356 -0.1214 -0.0853
18947W        W37801   2.831  15.241   4.805  0.0658 -0.1050  0.2920
18948W        W37802  13.537  16.488   0.009 -0.1265  0.0177 -0.1892
18949W        W37803   1.614   6.895  13.833 -0.0203 -0.1481 -0.1200
18950W        W37804  12.621  15.628  12.488 -0.2528 -0.0486 -0.0257
18951W        W37805  15.063  14.667   0.946 -0.0365  0.3004 -0.0328
18952W        W37806  10.717   2.703  13.144 -0.0185  0.3117  0.3349
18953W        W37807  13.418  13.023   2.541  0.1329 -0.1099 -0.1866
18954W        W37808   4.429   4.632   1.779 -0.0023  0.1222  0.0994
18955W        W37809  14.986  10.661  15.816  0.1081 -0.0262  0.0171
18956W        W37810  10.922   3.690  16.425  0.4108  0.0228 -0.0963
18957W        W37811  11.244   1.616   2.424 -0.0200  0.0209  0.0552
18958W        W37812   4.850  16.025  13.127 -0.4855  0.2257  0.1380
18959W        W37813  16.835   4.851   1.310  0.0099  0.1292  0.1020
18960W        W37814   4.063   1.999   4.186  0.2146  0.1353  0.1770
18961W        W37815   7.046  11.457  16.029 -0.1698  0.0447  0.1455
18962W        W37816   4.795  17.151  16.149 -0.0464  0.1812  0.1911
18963W        W37817  10.762   7.761   4.480 -0.2300  0.3809 -0.0446
18964W        W37818   1.754   7.023   3.600 -0.0121 -0.0532  0.0879
18965W        W37819   9.783   6.913  12.465 -0.0813 -0.1039  0.0024
18966W        W37820   7.635  11.310  13.586  0.1155 -0.1249 -0.0275
18967W        W37821   0.071   2.744   2.322 -0.2163 -0.3233 -0.4512
18968W        W37822   5.976  14.749   2.353 -0.3218 -0.1220  0.0659
18969W        W37823  16.250   7.732  13.693  0.1854  0.0610  0.1112
18970W        W37824   3.126   1.477   1.308 -0.0551  0.3434 -0.2234
18971W        W37825   4.856   1.349  13.660  0.3010 -0.0760 -0.0611
18972W        W37826  14.192  17.104  14.408 -0.1669 -0.1573 -0.1638
18973W        W37827  10.881  16.689  15.031 -0.2117 -0.3808 -0.3434
18974W        W37828   0.216   2.825   1.064 -0.0764  0.1412  0.0935
18975W        W37829   6.688   9.049  16.484 -0.0620 -0.0214  0.1589
18976W        W37830  17.191   8.607  13.079 -0.1169  0.0277 -0.1444
18977W        W37831   5.209   6.704  13.391  0.1279 -0.2836  0.2809
18978W        W37832   2.018   3.385  16.870  0.1737 -0.3960  0.0398
18979W        W37833  15.926   2.014  13.638 -0.1422  0.0271  0.2926
18980W        W37834  16.073   8.014   2.513 -0.0374 -0.0306 -0.0985
18981W        W37835   6.937   0.464  13.924  0.1898  0.1609 -0.1696
18982W        W37836   0.766  15.456  15.000  0.2508 -0.0445 -0.0638
18983W        W37837   9.024  12.676  15.083 -0.1583  0.0222  0.0627
18984W        W37838  12.791  12.152  14.052 -0.2860  0.2971 -0.0365
18985W        W37839   6.585   6.198  16.030 -0.1958  0.0847 -0.1656
18986W        W37840  10.453  16.057  16.973 -0.0299  0.2459  0.0716
18987W        W37841   2.497   1.271   0.575  0.3881  0.1004 -0.0236
18988W        W37842  14.635   5.299   1.944  0.0159 -0.2145 -0.1293
18989W        W37843   4.883  12.603   1.501 -0.2204 -0.1264 -0.0434
18990W        W37844  11.501   7.577  15.628 -0.0919  0.1272 -0.2126
18991W        W37845   4.782   1.653   0.601 -0.1755 -0.4545  0.0895
18992W        W37846   2.784  15.450   5.274 -0.3135  0.0730 -0.3381
18993W        W37847  13.586   5.881   0.153  0.2807  0.1158 -0.1035
18994W        W37848  14.571  16.100  13.567  0.0807 -0.0239 -0.1118
18995W        W37849   8.320  10.971   3.992  0.1069 -0.3875  0.1960
18996W        W37850   9.124  16.986  16.095 -0.2109 -0.3063  0.0024
18997W        W37851   8.970   7.781  14.982  0.1422  0.1151  0.0724
18998W        W37852  15.779   5.347   5.676  0.1393  0.4296  0.0424
18999W        W37853  10.972  13.940   3.946 -0.1086  0.1933  0.4046
19000W        W37854  12.524   0.257   1.889 -0.1891  0.2133 -0.0077
19001W        W37855  11.809  11.508  14.587  0.0430  0.2979 -0.0151
19002W        W37856   9.124   5.694  15.554  0.0254 -0.1396 -0.0889
19003W        W37857   3.704   5.664  14.976 -0.0950 -0.1615  0.0369
19004W        W37858  12.831  13.060   0.102 -0.0351  0.1668 -0.0516
19005W        W37859   0.975   3.164   3.547 -0.3017  0.1454 -0.0306
19006W        W37860  10.056   7.872   0.995 -0.1745  0.2245  0.0254
19007W        W37861  15.081   2.403   2.322 -0.2772  0.3469 -0.1675
19008W        W37862   5.742   4.675   1.635  0.1746 -0.0812 -0.1412
19009W        W37863   7.593   2.179  13.589  0.0223 -0.0374 -0.1061
19010W        W37864   8.418  13.098  13.222  0.2703  0.1618  0.1834
19011W        W37865   8.089   1.964  12.798  0.1023 -0.3064  0.0173
19012W        W37866   8.495   9.695  16.188  0.0648  0.0373 -0.2743
19013W        W37867   8.567   4.245   0.548 -0.2176 -0.1650 -0.1319
19014W        W37868   9.337   4.531   0.763  0.1048 -0.0250 -0.0307
19015W        W37869  15.077   7.302   0.837 -0.0678 -0.0688  0.1840
19016W        W37870   5.550   3.792   5.428 -0.1213 -0.2294  0.1021
19017W        W37871   6.833   7.749   4.557  0.1335 -0.2074  0.1192
19018W        W37872   5.227  10.448   1.038 -0.2301 -0.0363  0.0600
19019W        W37873  11.801   4.884   0.704  0.0985  0.2149  0.0565
19020W        W37874   5.355  16.091   3.792 -0.1069 -0.1525  0.3844
19021W        W37875   9.726   9.183  11.375 -0.6482  0.0528  0.0527
19022W        W37876   8.885   5.107   0.054  0.2426 -0.2648 -0.4038
19023W        W37877  12.741  15.516  15.468  0.2039 -0.0748  0.0039
19024W        W37878  10.153   2.964   4.125  0.1046  0.2029  0.2441
19025W        W37879   2.040   5.713  16.810  0.0006  0.1437 -0.1119
19026W        W37880  11.834   9.924  12.847 -0.3395  0.1736 -0.0342
19027W        W37881  15.714   0.790   3.143 -0.0622 -0.2798  0.1370
19028W        W37882  17.122   4.618   2.527  0.2453 -0.0412  0.2389
19029W        W37883   9.733   1.586  15.920  0.1232  0.0475 -0.3375
19030W        W37884  16.608  11.473  15.378 -0.0697 -0.0602 -0.2158
19031W        W37885   4.302  12.964  14.304 -0.0583  0.1569  0.0749
19032W        W37886   6.131   0.529  15.584 -0.0229 -0.3037 -0.1689
19033W        W37887  10.675  10.645  17.201  0.1291 -0.0008 -0.0127
19034W        W37888   3.482  12.649  12.465 -0.3965  0.1096 -0.0593
19035W        W37889   8.674   7.589   1.046 -0.0972 -0.2206  0.1146
19036W        W37890   9.991   6.551  13.305  0.0457 -0.1681  0.1241
19037W        W37891  17.193   7.795   3.552  0.2141  0.0795  0.0229
19038W        W37892   5.136  14.104  15.054  0.0461 -0.0671  0.1010
19039W        W37893  14.297   7.171   1.429 -0.1728  0.0657  0.1290
19040W        W37894  15.178  11.557  13.912 -0.2363  0.2072 -0.2282
19041W        W37895   3.468  15.072  13.181 -0.0203  0.0606  0.0473
19042W        W37896  11.287   1.630  11.916 -0.0307 -0.0771 -0.2109
19043W        W37897   1.123  16.762  14.492  0.3588  0.2238 -0.3358
19044W        W37898  12.866  15.463  14.069  0.1633  0.4418  0.0210
19045W        W37899  11.913   2.722   3.816  0.1138  0.0201  0.1408
19046W        W37900  11.277   9.713  16.280 -0.0431 -0.0092 -0.0959
19047W        W37901  16.372  14.797   4.499  0.0054 -0.0960  0.1346
19048W        W37902   0.772  12.944   2.255 -0.0256 -0.2637  0.1991
19049W        W37903   0.116  12.342  14.776 -0.1112 -0.3073  0.0082
19050W        W37904  11.345   7.857  16.235  0.1136 -0.0761  0.1860
19051W        W37905  12.967  12.546   1.744  0.1272  0.0328  0.0793
19052W        W37906   6.976   0.257  15.779 -0.0200  0.0170 -0.0211
19053W        W37907   7.685  15.332  14.168 -0.0117  0.2029  0.0558
19054W        W37908   6.101   6.333   2.219 -0.0517 -0.0467 -0.0925
19055W        W37909   5.264   1.313   4.091  0.1238 -0.1038 -0.0396
19056W        W37910   0.926  11.046  15.226 -0.0038  0.0034 -0.0387
19057W        W37911   6.910  15.990   0.591  0.0481  0.1198 -0.1750
19058W        W37912  12.204   4.468   2.606 -0.0767 -0.1294 -0.0371
19059W        W37913  11.029  10.237   3.016  0.1729 -0.2306 -0.2631
19060W        W37914  15.538  10.443  15.272  0.1553 -0.0792  0.0141
19061W        W37915   3.604  14.780   0.882  0.3388 -0.0434  0.1079
19062W        W37916  13.274  14.018   5.448 -0.0023  0.0557 -0.0718
19063W        W37917  12.139   4.612   1.039  0.0872 -0.1112 -0.0435
19064W        W37918  11.320   0.556   3.464 -0.1166  0.1048 -0.1047
19065W        W37919  11.196   3.423   1.977 -0.2276  0.0611  0.1542
19066W        W37920  13.409   0.805   1.074 -0.0741 -0.2922 -0.1833
19067W        W37921  13.968   5.742   2.686  0.0017 -0.1686  0.0259
19068W        W37922  13.597  15.172  17.422 -0.2191  0.0465 -0.1379
19069W        W37923  13.411  13.085   3.909 -0.2226 -0.2574 -0.0205
19070W        W37924  13.940  10.718   3.441  0.2350 -0.2166  0.2912
19071W        W37925  12.129   8.708   2.078 -0.0735  0.0624 -0.2761
19072W        W37926   9.824   1.122   4.439  0.3079  0.1004 -0.0378
19073W        W37927   7.292   3.722  14.830 -0.2093 -0.3450 -0.4958
19074W        W37928   9.565   8.311  13.232 -0.2604  0.0473 -0.0485
19075W        W37929   0.884   0.056  13.373 -0.5189 -0.0234  0.2245
19076W        W37930   6.592   5.637  15.672 -0.0275 -0.0158 -0.2683
19077W        W37931   3.456  15.478  17.058 -0.2640  0.0766 -0.1506
19078W        W37932  11.818   5.835  15.996 -0.3740 -0.2992  0.1953
19079W        W37933   1.925   7.675   0.000  0.1233  0.2008  0.2753
19080W        W37934   6.030   2.015   2.818  0.0500  0.0394 -0.5031
19081W        W37935   9.106  14.066  16.929  0.1640  0.2684  0.2449
19082W        W37936   7.473  16.461  12.957  0.1777 -0.1708 -0.0525
19083W        W37937   8.892   5.008  16.021  0.2897 -0.2533  0.0489
19084W        W37938   3.903   9.447  12.403  0.0365 -0.0682 -0.1582
19085W        W37939   7.812   9.239   4.702  0.2398  0.1856  0.0039
19086W        W37940  11.495   8.271  16.902  0.1498 -0.1985  0.0199
19087W        W37941   3.008  16.659  15.119 -0.0142  0.1225  0.1622
19088W        W37942   4.015   9.217  15.239 -0.0590 -0.1196  0.1036
19089W        W37943   4.184   2.704  14.967 -0.2201 -0.0520  0.2234
19090W        W37944   6.053  15.491   5.299 -0.0136 -0.0226 -0.0761
19091W        W37945  13.567  14.678   0.691 -0.3340 -0.1482 -0.1427
19092W        W37946  13.381   2.038   3.101 -0.3264 -0.1956 -0.1235
19093W        W37947   4.939   9.846  16.783 -0.0361  0.1032  0.1236
19094W        W37948  10.190  13.065   4.344  0.0806 -0.1063  0.2036
19095W        W37949   7.891   6.350   2.383  0.1597  0.2305 -0.2567
19096W        W37950  11.747   3.558  16.899 -0.0034 -0.1470 -0.3969
19097W        W37951  16.277  10.472   3.296  0.1692  0.0435  0.0773
19098W        W37952   0.326   9.447  13.456 -0.1595 -0.3077  0.4553
19099W        W37953  10.407  11.870  14.635 -0.0713  0.0654  0.0253
19100W        W37954   2.367   8.164   2.412  0.0941 -0.1804  0.2273
19101W        W37955   0.672  16.442  13.577  0.0916 -0.0350 -0.2019
19102W        W37956  14.009   2.499  17.121  0.0098 -0.0241 -0.0606
19103W        W37957   0.292   8.201   1.825 -0.0585 -0.0319  0.1023
19104W        W37958   2.835   2.846  16.091  0.3598  0.0181  0.0496
19105W        W37959  12.330   8.885   5.378 -0.0783 -0.0710 -0.1476
19106W        W37960   1.251  14.745  16.034 -0.1782 -0.1016  0.1588
19107W        W37961   9.793  12.858   4.161  0.0044  0.4111 -0.0406
19108W        W37962   3.525   5.514   0.558 -0.1554 -0.3936  0.3296
19109W        W37963   4.038   6.415   5.054 -0.0836 -0.0751  0.4234
19110W        W37964   7.854   1.922  12.332  0.1525  0.2699  0.0980
19111W        W37965  13.298   7.084  17.270 -0.2263 -0.0211 -0.3154
19112W        W37966   2.178   8.922   0.770  0.0893  0.0679  0.0668
19113W        W37967   7.347  17.107   0.212 -0.0135  0.0947  0.2110
19114W        W37968   4.220   3.437  13.040  0.1004 -0.0086 -0.0690
19115W        W37969  12.985   4.963   0.182 -0.0440  0.1543  0.1323
19116W        W37970  14.721   4.162  13.233  0.0373  0.1033  0.0720
19117W        W37971   7.899  11.089   0.944  0.2071  0.2915  0.2640
19118W        W37972   8.444   2.591  16.493  0.0426  0.2045  0.1734
19119W        W37973  13.149   7.325  14.383  0.2220  0.0463 -0.2200
19120W        W37974  11.709   2.781   3.298  0.2157 -0.1393  0.0448
19121W        W37975  12.100  16.969  12.656  0.0357 -0.1777 -0.3277
19122W        W37976  14.266   1.969   0.943 -0.2700  0.1522 -0.0725
19123W        W37977   9.327  12.112   0.101 -0.0298 -0.2345 -0.3629
19124W        W37978   7.712  14.734   0.069  0.1922  0.1643  0.0040
19125W        W37979   0.600  14.353   1.338 -0.0357 -0.1946  0.1990
19126W        W37980  13.009   8.128   0.940  0.3020  0.3487 -0.1544
19127W        W37981  10.136   1.017  15.623 -0.0327 -0.0950  0.0613
19128W        W37982   9.803   0.863  12.551 -0.0880  0.1118  0.4744
19129W        W37983   6.764   3.790   2.954  0.2817  0.2296 -0.0591
19130W        W37984  13.301  15.171   4.588  0.1244  0.5190 -0.1166
19131W        W37985   6.639  15.040  12.232 -0.2619  0.2961  0.2410
19132W        W37986  16.791  10.988  12.298 -0.0484 -0.3887  0.1754
19133W        W37987  13.636   3.859  13.863 -0.2526 -0.1781 -0.0203
19134W        W37988   8.799   0.684  17.314 -0.1650 -0.0706 -0.4737
19135W        W37989  14.868   5.577  12.530 -0.2453 -0.1411  0.1159
19136W        W37990  11.102  14.441  14.261 -0.1790  0.0242  0.1869
19137W        W37991   3.068  13.153   2.140  0.1733  0.3049  0.1472
19138W        W37992   6.682   6.324  16.515  0.0162 -0.1641 -0.0458
19139W        W37993  11.067   4.724   2.975 -0.1100  0.3918 -0.0687
19140W        W37994  10.871  12.469   5.023  0.0128 -0.0086 -0.0453
19141W        W37995   3.813   5.116  14.655 -0.1146 -0.0465 -0.0198
19142W        W37996   1.235   2.281  16.737 -0.0881  0.1461  0.0252
19143W        W37997   6.436   5.058   0.968 -0.0143  0.2674 -0.1529
19144W        W37998   1.130   3.314   4.004 -0.3677  0.2106  0.0434
19145W        W37999  16.538   4.370  12.256  0.1855  0.2628  0.0326
19146W        W38000   9.563   4.238  14.786 -0.1787 -0.1137 -0.0784
19147W        W38001  12.325   1.320   0.273 -0.1641 -0.0237 -0.1999
19148W        W38002   3.515   3.709   1.472 -0.0539 -0.1465  0.1887
19149W        W38003   0.897   1.945  16.469  0.0555  0.2888 -0.2468
19150W        W38004   1.897   7.454   3.367  0.2923  0.0715  0.3286
19151W        W38005   7.113   3.723   3.279 -0.0978  0.2038  0.0751
19152W        W38006  16.941   2.686  17.049 -0.0213  0.0391  0.0965
19153W        W38007   2.676   5.203   0.854  0.1631 -0.0959  0.0985
19154W        W38008   7.498   8.645   1.782 -0.0095  0.0168 -0.1194
19155W        W38009  10.446  17.005   2.172  0.3883 -0.0324 -0.2126
19156W        W38010  15.371  15.678  16.601 -0.1011 -0.2207 -0.1306
19157W        W38011  15.644   6.720   1.041 -0.0096 -0.0141  0.1153
19158W        W38012  13.787  16.834   3.162 -0.3121 -0.0149  0.1658
19159W        W38013   2.376  10.011  11.903  0.2649  0.5154 -0.0378
19160W        W38014  10.197   4.888   2.633  0.0748 -0.0931 -0.0466
19161W        W38015  14.846  13.733  14.219 -0.0459 -0.2882 -0.1306
19162W        W38016   9.804   2.695   2.938  0.1106  0.0114 -0.1593
19163W        W38017  14.673   0.912  15.880  0.1346  0.3514 -0.2432
19164W        W38018   9.153  11.817  12.069 -0.0437 -0.0891 -0.1076
19165W        W38019  15.408   6.952  15.816  0.0684  0.0222  0.1047
19166W        W38020   3.684   7.846  12.358  0.3087 -0.0275  0.0546
19167W        W38021  15.884   7.512   3.474  0.1037  0.0217  0.1546
19168W        W38022   1.308   4.230  15.496 -0.0040  0.3842  0.0355
19169W        W38023   3.208  16.727  16.486  0.2446  0.0013 -0.0424
19170W        W38024  13.301   6.485   5.689 -0.0665  0.1370  0.0272
19171W        W38025   8.759   1.535  17.008 -0.1364  0.2236 -0.0224
19172W        W38026   7.259  10.433  13.949  0.1506 -0.0144  0.1462
19173W        W38027   2.417   6.874   2.383 -0.1208 -0.0107  0.1546
19174W        W38028  14.970   4.409   1.965  0.0127  0.0186  0.1564
19175W        W38029   3.157   8.001  16.699  0.0390 -0.0298  0.0031
19176W        W38030   2.436   8.516  14.265 -0.2975 -0.0856  0.0266
19177W        W38031  13.209   7.253  13.630 -0.1978  0.3668  0.1455
19178W        W38032   3.320   9.838   2.269 -0.2766  0.0823  0.0445
19179W        W38033  10.768  15.645  12.539  0.1986  0.1358  0.1908
19180W        W38034   4.803  12.489  13.723  0.0919 -0.2515  0.0207
19181W        W38035   7.206  10.231   1.616  0.0967  0.2909  0.0444
19182W        W38036   0.892   1.176  15.064 -0.0034  0.3637 -0.0165
19183W        W38037   5.773  12.434   4.271 -0.2759 -0.0266  0.1094
19184W        W38038  16.502  17.146  13.137 -0.2151 -0.2980 -0.0476
19185W        W38039   8.803   5.555   0.269 -0.0658  0.1776  0.1031
19186W        W38040   1.980   9.385  13.043  0.1662  0.1316  0.1849
19187W        W38041  15.659   1.878  14.912 -0.2943  0.0666 -0.1515
19188W        W38042  10.752   8.992   2.853  0.1492  0.0589  0.1774
19189W        W38043  16.129   1.810   1.002 -0.1556 -0.4242 -0.0044
19190W        W38044   7.580   6.484   0.053 -0.0649  0.1500 -0.0277
19191W        W38045   1.754  10.627   4.635  0.0206 -0.1054  0.1852
19192W        W38046   2.432   6.026  16.727  0.4154 -0.2406  0.0218
19193W        W38047   1.511  12.307  14.687 -0.0936 -0.1704 -0.2073
19194W        W38048   3.555  10.423  15.402 -0.0213  0.2726 -0.1827
19195W        W38049   9.184  14.782   5.018 -0.0043  0.0906 -0.3222
19196W        W38050  13.960   3.947   4.376 -0.1625 -0.2054 -0.0085
19197W        W38051  16.113   1.908   3.845 -0.1611  0.0919  0.0492
19198W        W38052  11.689   2.887  15.321  0.0494  0.0255 -0.1308
19199W        W38053   9.923  15.809   2.704  0.0152 -0.2210  0.0428
19200W        W38054   1.058  12.127  14.980 -0.1095  0.1240  0.2370
19201W        W38055   7.125   6.327  15.218  0.1686 -0.0401 -0.1372
19202W        W38056   0.381   8.741   0.447 -0.0486 -0.2164 -0.4035
19203W        W38057   6.572   6.633  15.491  0.6283  0.1405 -0.2484
19204W        W38058   3.366  16.981  14.840 -0.3974  0.3150  0.3196
19205W        W38059   9.167   1.140   4.656  0.0240 -0.2325  0.0848
19206W        W38060   5.997   8.484   1.995  0.4209  0.2368 -0.1074
19207W        W38061  10.395  12.615  15.610 -0.2887  0.0287  0.1745
19208W        W38062   2.217   9.779   3.478  0.0139 -0.0418 -0.1105
19209W        W38063  16.176   2.963  13.389  0.0078  0.1320 -0.0143
19210W        W38064  16.874   2.909   2.383  0.0640  0.0277 -0.0210
19211W        W38065   9.173   3.032   4.284 -0.4082  0.0114 -0.0281
19212W        W38066  10.444   9.488   4.084  0.1717 -0.0160 -0.0143
19213W        W38067   9.470   4.249   4.474  0.2224  0.2246 -0.2353
19214W        W38068  10.428  15.251  12.916  0.0251  0.4796  0.0202
19215W        W38069   0.984  14.406   3.294 -0.1748  0.1099 -0.1534
19216W        W38070   8.771  11.008   1.800  0.0715  0.1162 -0.1064
19217W        W38071  13.038   1.652  13.994 -0.1865 -0.1179  0.3535
19218W        W38072   1.794  12.900  17.025  0.0679  0.3364 -0.2953
19219W        W38073   9.464   0.946  16.722  0.1445 -0.2336 -0.2519
19220W        W38074  10.083   9.388   5.064  0.2716 -0.0089 -0.0970
19221W        W38075   2.461   9.026  14.253  0.0552  0.1836 -0.3116
19222W        W38076  11.934   0.527   2.636 -0.2555 -0.2391 -0.0348
19223W        W38077  15.072   5.461   2.243  0.1831  0.1997 -0.0248
19224W        W38078  12.907   0.791  14.439 -0.0256  0.0238  0.2033
19225W        W38079   4.177  11.749  12.792  0.1255 -0.0481 -0.3205
19226W        W38080  15.007   1.010  16.774 -0.1269  0.2942 -0.1755
19227W        W38081   4.627   7.048  15.995  0.0571 -0.1230  0.0588
19228W        W38082  15.107   7.640  16.853  0.0439 -0.1601  0.1578
19229W        W38083   7.178   0.607   3.193 -0.2729 -0.3072  0.1920
19230W        W38084   9.427  17.047   4.740 -0.0955 -0.2506  0.1413
19231W        W38085   4.474   8.904  17.442 -0.1460  0.1913 -0.0524
19232W        W38086  12.125   9.262   2.294  0.1018  0.1003  0.2547
19233W        W38087  16.674   3.753   5.418 -0.1454 -0.2361 -0.2025
19234W        W38088   9.938   9.711  14.375  0.1122  0.4434  0.0883
19235W        W38089   3.236   1.028   0.197  0.0272 -0.0332  0.1249
19236W        W38090   4.975   3.328  15.434 -0.2117 -0.0411 -0.2069
19237W        W38091   3.963   0.766  17.276  0.2176 -0.1798 -0.1916
19238W        W38092  13.084   3.382  14.879  0.0717 -0.0162 -0.3038
19239W        W38093   6.123   8.386  14.790  0.3995 -0.1040  0.2927
19240W        W38094  12.066  14.381  12.872  0.0152  0.1285 -0.1175
19241W        W38095   4.672   0.088   4.133 -0.0403 -0.1386  0.0096
19242W        W38096  11.496   9.771  15.589  0.0299 -0.0280  0.0587
19243W        W38097  12.330   0.564  11.765 -0.0279  0.1125 -0.0451
19244W        W38098   2.315   8.170  13.210  0.1899  0.1367  0.1379
19245W        W38099   4.421  12.798  13.836 -0.0137 -0.0827  0.0677
19246W        W38100  16.262   9.345  13.694  0.0303 -0.0592  0.1252
19247W        W38101   4.204  14.843   5.280  0.2613  0.0861 -0.1962
19248W        W38102   0.242  17.020  17.197 -0.3101 -0.1105 -0.3615
19249W        W38103   4.962   4.690  14.085 -0.0269 -0.0400  0.2665
19250W        W38104   0.862   5.405   0.364 -0.0841 -0.0298  0.0982
19251W        W38105   0.999   2.171   4.619  0.0625 -0.1557 -0.4682
19252W        W38106   8.574  14.503  14.840  0.1168  0.2215 -0.2005
19253W        W38107  14.764   3.920   1.889 -0.0368 -0.1017  0.0388
19254W        W38108  12.081   1.404  14.790 -0.0460 -0.1712  0.4478
19255W        W38109   5.167  16.153  14.132 -0.3639  0.1746 -0.2938
19256W        W38110   0.546   9.158  12.770 -0.2420  0.0178 -0.0254
19257W        W38111  15.392   8.157   2.875  0.1855 -0.1240 -0.0944
19258W        W38112   6.332  10.269  14.970  0.0220 -0.0976  0.1331
19259W        W38113   2.179   4.325  14.867 -0.0725 -0.3520 -0.1532
19260W        W38114   2.357  16.563   6.055 -0.2368  0.0238 -0.1438
19261W        W38115   8.745  17.150  14.790  0.0529  0.3584 -0.1310
19262W        W38116   9.526   4.290   0.279 -0.2291  0.3562 -0.0321
19263W        W38117   3.871   6.671  12.082  0.1382  0.1377  0.1647
19264W        W38118  11.187   2.936  13.349 -0.1534 -0.0432  0.0594
19265W        W38119  15.489  15.532   0.815  0.1841 -0.1458 -0.2321
19266W        W38120   3.712  17.220   6.359 -0.2749  0.0776 -0.0483
19267W        W38121  13.479  15.495   4.332  0.0517  0.1577  0.1009
19268W        W38122   3.401  11.654  17.031  0.0657  0.0954  0.1393
19269W        W38123  11.626   3.514   0.220 -0.2979  0.1031  0.1376
19270W        W38124   2.643   4.449   2.121 -0.2581 -0.3692  0.1405
19271W        W38125   2.704  10.354  17.358 -0.2151 -0.1170 -0.1857
19272W        W38126  14.582  12.521   5.379 -0.0287  0.0170  0.1587
19273W        W38127   8.783   4.320   5.302 -0.2357  0.2338  0.0389
19274W        W38128  17.015   3.391   1.123  0.3063  0.0468 -0.4127
19275W        W38129   8.374   6.756   2.585  0.1984  0.0459 -0.2932
19276W        W38130   2.665   3.849  15.070 -0.2077 -0.0460 -0.0778
19277W        W38131  13.884  12.085  14.481  0.1978  0.0027  0.1128
19278W        W38132  12.094  11.467   3.737  0.0598 -0.0291 -0.1962
19279W        W38133   4.261   3.537   5.599 -0.2815 -0.0961 -0.1555
19280W        W38134   2.309   7.711   1.110  0.3593  0.1648  0.1801
19281W        W38135   9.314   5.392  15.151 -0.0879 -0.0982 -0.3447
19282W        W38136   3.731  10.880  15.618  0.0576  0.1548  0.0217
19283W        W38137   5.010  12.017   3.823 -0.1529  0.1561 -0.0595
19284W        W38138  14.299   3.804  14.988  0.0703  0.2041 -0.1894
19285W        W38139  14.029   4.333   2.526 -0.1505  0.0907  0.1262
19286W        W38140   3.838  12.416  17.096 -0.1299  0.1511  0.0421
19287W        W38141   7.645  16.867   5.223  0.3470 -0.2420  0.2126
19288W        W38142  11.814   5.488  11.938  0.1130 -0.0447 -0.1488
19289W        W38143   2.378  10.861   5.365 -0.0303  0.0071  0.2287
19290W        W38144   1.086   4.310  16.569 -0.2236  0.1329  0.0218
19291W        W38145   6.690   9.012   1.151 -0.2221  0.0322 -0.0972
19292W        W38146   8.089  14.811  12.410  0.2247 -0.3527  0.0053
19293W        W38147   3.748   6.811   1.921 -0.3059  0.0834 -0.0612
19294W        W38148   8.390   8.011   4.679 -0.0029  0.2287 -0.0372
19295W        W38149   9.254   0.170  15.976 -0.1297  0.0020  0.2836
19296W        W38150  15.614  11.702   1.444 -0.0333 -0.1425 -0.1099
19297W        W38151  14.512   8.962  15.144 -0.1297 -0.0107  0.2578
19298W        W38152   3.860   1.465  16.510  0.0149 -0.3763 -0.2273
19299W        W38153   5.536  14.893   4.366  0.2921  0.1865 -0.2024
19300W        W38154  10.487   8.910  14.096  0.2366 -0.0666  0.1341
19301W        W38155   7.816  14.846  15.705 -0.0051  0.3402  0.1235
19302W        W38156   6.278  10.512   3.378  0.1065  0.0550  0.0299
19303W        W38157  13.845   9.774   4.424 -0.0434  0.2354 -0.0217
19304W        W38158  15.101  17.021   3.099 -0.2233 -0.2123 -0.0241
19305W        W38159  12.294  14.418  14.865 -0.3442 -0.0857  0.0015
19306W        W38160   9.294  17.155  14.770 -0.2197  0.1010  0.1186
19307W        W38161  13.123   0.579  15.147  0.0005  0.1512  0.0873
19308W        W38162   6.889  13.105   5.053  0.0890  0.2278 -0.0259
19309W        W38163   1.873   6.635  16.466  0.1658  0.1289  0.0988
19310W        W38164   2.283  15.101   4.191 -0.4644  0.0238  0.0655
19311W        W38165  14.284  11.290  13.460 -0.1478  0.0609  0.2429
19312W        W38166   3.176   9.999  12.395  0.1563 -0.1050  0.4183
19313W        W38167   1.522   5.530  14.966  0.0865 -0.1471  0.1987
19314W        W38168   9.155  15.208   1.633  0.1483  0.0373  0.3458
19315W        W38169   0.877  14.099   2.278  0.0543 -0.2773  0.0165
19316W        W38170   8.239  14.766   0.912  0.0657  0.1856  0.3437
19317W        W38171   6.813  12.198  17.223  0.0138 -0.0086  0.0818
19318W        W38172  15.651   8.195  12.755  0.1189 -0.0296  0.1939
19319W        W38173   5.293   5.802   2.387 -0.0399  0.2260 -0.0278
19320W        W38174   0.575  16.806   5.436  0.0436  0.2083  0.1168
19321W        W38175   6.780   1.146   6.249 -0.3175  0.3520 -0.0203
19322W        W38176   3.541   8.438  13.106  0.2658 -0.3664  0.0009
19323W        W38177   0.592   7.694  13.872 -0.0957  0.1800 -0.0137
19324W        W38178   0.924  16.409  12.632  0.0662 -0.1452  0.3224
19325W        W38179  17.024   2.411   0.472 -0.0279 -0.3269 -0.1971
19326W        W38180  10.494   0.174  15.322  0.0393 -0.1821 -0.0133
19327W        W38181   9.259   9.056  14.699 -0.0750  0.1720 -0.0020
19328W        W38182   6.701   0.519  15.467  0.0612 -0.0579 -0.1330
19329W        W38183  13.677  13.326  14.360  0.1700  0.0773 -0.0150
19330W        W38184  17.057   1.147  12.375  0.0238  0.0598  0.0971
19331W        W38185  15.191   4.623   1.069  0.0159  0.0249  0.0998
19332W        W38186   4.285   4.160   2.082 -0.0725 -0.0283  0.0421
19333W        W38187  11.959   4.633  14.472  0.1288 -0.1158 -0.0478
19334W        W38188   6.289   9.131   4.956  0.0349  0.0567  0.3064
19335W        W38189   3.874   7.482   3.217  0.0973  0.0020 -0.0884
19336W        W38190   9.239  10.266   0.254 -0.1178 -0.1902 -0.1612
19337W        W38191   3.275   6.531  15.986 -0.0328  0.2549 -0.2370
19338W        W38192   6.256   1.393  15.175 -0.1437 -0.3024 -0.3215
19339W        W38193  13.711  12.505   3.351 -0.1018  0.2911  0.1977
19340W        W38194  13.737   1.535  15.232 -0.1612 -0.3168 -0.0339
19341W        W38195   1.106   3.324  15.721 -0.1015  0.1197 -0.1312
19342W        W38196  13.026  11.122   2.883  0.2193  0.0046  0.0235
19343W        W38197   7.460  14.966  15.214  0.0741 -0.2617  0.1821
19344W        W38198   9.485  15.567  14.623 -0.1125 -0.3450  0.1288
19345W        W38199  14.974  13.955   1.976  0.0063 -0.1723 -0.3039
19346W        W38200   2.541   8.610  17.070  0.0665  0.4187 -0.0323
19347W        W38201  14.511  13.107   3.079 -0.4031 -0.0205  0.1897
19348W        W38202  14.627  13.923   4.998  0.2031  0.1351  0.0228
19349W        W38203  14.785  16.953   3.617  0.2428 -0.0175  0.0870
19350W        W38204  11.870   0.982  15.884  0.1160  0.1711 -0.0188
19351W        W38205   3.334   7.522   0.195  0.1109  0.1357 -0.1086
19352W        W38206   0.099   6.739  16.269 -0.0587  0.0714 -0.0873
19353W        W38207  15.060  16.535   2.884 -0.1741 -0.1020 -0.0907
19354W        W38208  10.994   0.062  14.036  0.0153 -0.1913 -0.0742
19355W        W38209  14.653   6.290  16.886  0.2269  0.0712  0.2726
19356W        W38210   1.555  14.681  12.528 -0.1176 -0.2130 -0.2077
19357W        W38211   3.321   4.373  14.798 -0.0308  0.3069 -0.1703
19358W        W38212   3.604   0.383  16.479  0.2178  0.0573 -0.2236
19359W        W38213   9.799  12.962   3.305 -0.0153 -0.0899 -0.0457
19360W        W38214   0.097  13.340  15.786 -0.1477 -0.0850 -0.0341
19361W        W38215  14.018  13.663   4.148  0.0480 -0.0764  0.1540
19362W        W38216   7.017   7.138  14.778  0.0546  0.0136 -0.0873
19363W        W38217  15.695  14.404   1.989 -0.1471 -0.0301  0.1336
19364W        W38218   7.854  11.235   3.855 -0.1518  0.1729  0.1321
19365W        W38219   9.440  14.786   1.566  0.0620 -0.2631  0.0789
19366W        W38220   1.305  14.938   0.573  0.1165 -0.0332 -0.1730
19367W        W38221   7.613  17.308  12.483  0.0263 -0.2894 -0.0181
19368W        W38222  10.438  10.691  15.371 -0.2278  0.3293  0.2638
19369W        W38223   2.515  10.489  12.921  0.1737 -0.2741 -0.1089
19370W        W38224  10.617   9.302   5.294  0.2399  0.1638 -0.2441
19371W        W38225   0.932  12.314  12.368  0.3223 -0.0102  0.1366
19372W        W38226   9.162   9.498  13.586  0.0489  0.1625 -0.1609
19373W        W38227   7.843   6.483   1.860  0.0712 -0.3360  0.1026
19374W        W38228   8.706   0.923   5.011 -0.2311 -0.2120  0.3090
19375W        W38229   1.331  15.359   0.372 -0.1388  0.2045  0.1629
19376W        W38230  12.785   2.894  14.994 -0.2624 -0.0085  0.2798
19377W        W38231  13.755  10.856   5.169  0.1294 -0.0070  0.1382
19378W        W38232  15.094  16.821   1.248  0.0082 -0.2299 -0.0951
19379W        W38233  11.153   4.266  14.150 -0.0901 -0.0290  0.0520
19380W        W38234  16.125   3.634   3.432 -0.2219 -0.0894 -0.0904
19381W        W38235   2.670   2.143   3.734 -0.3365 -0.3778 -0.2760
19382W        W38236   1.985  12.941  15.252 -0.2105 -0.2312 -0.1169
19383W        W38237   5.134  16.240   5.765 -0.1360 -0.1462 -0.0996
19384W        W38238   0.029  15.242  14.679 -0.3923 -0.3887 -0.0069
19385W        W38239  11.210   0.794   4.762  0.1488 -0.0399 -0.0669
19386W        W38240   8.959   5.190  13.674 -0.1656  0.2082  0.0670
19387W        W38241   7.583  16.947  16.732 -0.0060 -0.1157  0.1637
19388W        W38242  11.960  16.449   2.060  0.0179 -0.1042 -0.1334
19389W        W38243  12.647  10.438  17.372 -0.1347  0.1009 -0.1704
19390W        W38244  13.000   6.777   4.213  0.1098 -0.0704 -0.3821
19391W        W38245   5.780   7.122  12.361  0.1762  0.1658 -0.3347
19392W        W38246   1.775   9.775  12.854  0.0770 -0.0257  0.4387
19393W        W38247   5.509  15.700  17.068  0.2035 -0.3407 -0.1879
19394W        W38248   6.862   2.053  15.997  0.0824  0.2186  0.2361
19395W        W38249  14.323  11.283  13.975 -0.1462  0.3753  0.0967
19396W        W38250  15.963  13.466   2.050 -0.0007  0.0025  0.1024
19397W        W38251   5.817   1.657  15.252 -0.2262 -0.1825  0.2095
19398W        W38252  10.145   4.540  15.012 -0.2329 -0.0022  0.0824
19399W        W38253  10.075  16.740  15.014  0.3142 -0.1112 -0.1394
19400W        W38254   1.175   3.632  13.777  0.2740  0.0553 -0.1462
19401W        W38255   6.586  10.796   5.773 -0.1613 -0.1835  0.1820
19402W        W38256  16.628   2.189   0.171  0.0263  0.0778 -0.1137
19403W        W38257  16.556   9.603   4.415  0.3516  0.3243  0.0972
19404W        W38258   4.508  15.863   2.137 -0.1641 -0.1344  0.1329
19405W        W38259   9.989   9.353  13.453  0.0672  0.1778 -0.0195
19406W        W38260   0.512  14.186   0.355 -0.2124 -0.0603  0.1188
19407W        W38261   0.309   2.308   2.501 -0.0013 -0.1767  0.0910
19408W        W38262   2.740   8.238  16.551  0.0921  0.0066 -0.1366
19409W        W38263   2.409  16.866   4.355 -0.1074  0.1944 -0.0351
19410W        W38264   5.681   2.743   5.067  0.1157 -0.0318 -0.3603
19411W        W38265   1.863   1.762  15.626  0.0004  0.0226  0.0464
19412W        W38266   9.256  13.948  16.479  0.2229  0.0071  0.1692
19413W        W38267   8.985   9.484  17.413 -0.1314 -0.0786 -0.0725
19414W        W38268   6.371  13.835  16.168 -0.0432 -0.0146 -0.1122
19415W        W38269  10.417  14.460   4.976  0.1224  0.1749 -0.0403
19416W        W38270   6.201  15.476  13.520  0.1129 -0.0590 -0.0453
19417W        W38271   4.076  14.830   3.222  0.1472 -0.1001 -0.2215
19418W        W38272   5.956  16.896  15.105  0.1970  0.1117 -0.4081
19419W        W38273  15.394   8.704  17.249 -0.0775  0.2607 -0.0160
19420W        W38274   0.387   4.957   4.896 -0.0957 -0.1744  0.1464
19421W        W38275   0.893   3.887   3.787 -0.2803  0.1593 -0.0287
19422W        W38276   5.927   5.639  13.112 -0.0932 -0.0974 -0.1798
19423W        W38277   3.900   7.293   4.041  0.3517 -0.1583 -0.2129
19424W        W38278   0.460   1.390   0.683  0.1124  0.0982  0.0106
19425W        W38279  16.509  14.891   2.583  0.0543 -0.1706  0.0887
19426W        W38280  13.294  10.248   0.084  0.1621  0.2474 -0.0451
19427W        W38281   4.956   0.616  16.123 -0.1107 -0.1107 -0.1811
19428W        W38282   1.177  16.430  16.369  0.2374  0.0477  0.0230
19429W        W38283  15.492   0.831  16.669 -0.7035  0.1531  0.1741
19430W        W38284  12.519   0.970   3.188  0.0277 -0.1986  0.0108
19431W        W38285   8.251  17.157   2.059  0.0373  0.2163  0.0490
19432W        W38286  15.675   0.612   3.869 -0.0764 -0.1864  0.0325
19433W        W38287   3.676   1.372  14.262  0.2952  0.4051 -0.3315
19434W        W38288  14.993   6.929  14.815 -0.1051  0.0024  0.1429
19435W        W38289   1.457   4.535   1.023  0.1166  0.3344  0.0013
19436W        W38290  13.449  13.272   4.871 -0.0164 -0.2307  0.0248
19437W        W38291   4.010  10.403  13.890 -0.0439 -0.2094  0.2774
19438W        W38292   3.706   6.967  14.332 -0.0460  0.3237  0.1202
19439W        W38293   9.714   7.853   4.485  0.0499 -0.3162 -0.2486
19440W        W38294  15.911  15.177   1.541 -0.2958  0.1798  0.0448
19441W        W38295   0.748   3.798   4.915 -0.0224 -0.1686 -0.0402
19442W        W38296   5.324  13.180   1.930  0.0115  0.1819 -0.2295
19443W        W38297  16.454   4.624  15.225 -0.3324 -0.0185 -0.1899
19444W        W38298   6.814   5.970   5.460  0.1219  0.1158 -0.0708
19445W        W38299   4.124   0.859   3.018 -0.0123  0.3533 -0.1799
19446W        W38300  15.028  16.321  12.260  0.0621 -0.1445 -0.0627
19447W        W38301   6.305  11.983   0.562 -0.2015  0.1583 -0.0317
19448W        W38302   4.813  15.212   4.905 -0.1057 -0.1411 -0.3031
19449W        W38303   3.045  16.839  13.347 -0.1738  0.0804  0.0616
19450W        W38304  13.048  11.036   3.729  0.0404  0.1961 -0.1561
19451W        W38305  11.217   0.946  12.763  0.0634  0.1990  0.1678
19452W        W38306   7.875  14.857  13.305  0.4483 -0.0519 -0.0089
19453W        W38307   9.803   5.224   1.739  0.0666 -0.0167  0.0614
19454W        W38308  16.047   2.513   1.294 -0.2025 -0.0160 -0.0795
19455W        W38309  16.482   6.811   4.945 -0.1154  0.2416 -0.4084
19456W        W38310   8.082   3.132  15.262  0.2450  0.1614  0.2181
19457W        W38311  13.685  14.872  15.237  0.1712 -0.2076 -0.1893
19458W        W38312  16.411   3.722  15.143 -0.3320 -0.1568 -0.1749
19459W        W38313   1.179  10.352   2.344 -0.3529  0.2576  0.1654
19460W        W38314   2.643  10.015   5.090  0.1259  0.1792 -0.2290
19461W        W38315   2.258   7.688   2.452 -0.3333  0.1895 -0.1652
19462W        W38316   6.867  11.526   3.873  0.1129  0.1229  0.0757
19463W        W38317   8.592   0.354   0.834 -0.2877 -0.0991  0.0543
19464W        W38318  13.096   5.753   5.028  0.2135  0.1112 -0.2084
19465W        W38319  15.710  14.702   3.657  0.5573 -0.1520 -0.0041
19466W        W38320   7.926  14.917   0.545 -0.1150  0.2272 -0.0091
19467W        W38321   1.553  12.368   1.269  0.4299  0.3180 -0.0539
19468W        W38322  12.345  16.291   5.179 -0.1879 -0.0602 -0.0823
19469W        W38323   5.559   5.924   0.824  0.0447  0.0133  0.1764
19470W        W38324   1.171  11.901   1.330  0.2030  0.0189  0.0399
19471W        W38325   6.095   6.607  14.240  0.1411  0.2667  0.0521
19472W        W38326   0.823   1.053  11.719 -0.1558 -0.2305 -0.4545
19473W        W38327  14.899  17.089  11.870 -0.3371  0.3828  0.1104
19474W        W38328   9.083  14.688   0.085  0.0200 -0.0956  0.1477
19475W        W38329   6.572   2.268   2.899  0.2007 -0.3009 -0.0390
19476W        W38330  10.864   5.049   0.320  0.2299  0.1616  0.0912
19477W        W38331   8.049   8.306   4.866 -0.4553 -0.4222 -0.3034
19478W        W38332   3.410  16.001   3.363  0.2027  0.1192 -0.1550
19479W        W38333   0.267   1.242   4.048 -0.1659 -0.1780  0.0638
19480W        W38334  15.263  12.066   1.686  0.0056  0.1720  0.0563
19481W        W38335   6.509  16.264  12.938 -0.4679  0.0983  0.0043
19482W        W38336  12.964   1.211   4.342  0.0500  0.2295 -0.0386
19483W        W38337   8.434  14.277   3.695  0.1626  0.0755 -0.0770
19484W        W38338  10.072   3.499  14.080  0.3182 -0.2267 -0.1894
19485W        W38339  13.128  14.578  13.682  0.0697  0.1064  0.0831
19486W        W38340   5.644   4.239  12.879  0.2365 -0.0719  0.0515
19487W        W38341   8.153  12.460  15.265 -0.0847 -0.1172 -0.1616
19488W        W38342  15.591  10.924  14.971 -0.1366 -0.1036  0.0230
19489W        W38343   1.571  11.888   5.177  0.4588  0.1132 -0.1472
19490W        W38344   6.568   8.033  17.356 -0.1566 -0.0636  0.0106
19491W        W38345   7.633   1.008  15.462  0.1177 -0.0800  0.1029
19492W        W38346   1.784  15.474   0.595 -0.0844 -0.1476  0.0343
19493W        W38347   3.213   5.148  17.089  0.3878  0.0839 -0.0645
19494W        W38348  10.935  14.491   2.975  0.1363  0.1460  0.0795
19495W        W38349   1.482  10.590  12.275 -0.1642  0.0955  0.2315
19496W        W38350   1.228  16.831   4.087  0.3175  0.2108 -0.1922
19497W        W38351  12.893   1.438   3.848 -0.1694  0.3461  0.0188
19498W        W38352   7.252  13.180  14.525 -0.0767  0.0814 -0.2598
19499W        W38353  12.694   2.273  13.431 -0.1252 -0.1459  0.0554
19500W        W38354  13.176  13.230   3.434  0.2560 -0.2919 -0.1814
19501W        W38355   8.649   6.654   1.721  0.0190  0.2287 -0.0493
19502W        W38356  11.881   0.091  13.797 -0.1141  0.0917 -0.3942
19503W        W38357  11.088   4.830  13.221 -0.0979  0.0410 -0.2872
19504W        W38358   0.420   1.727  15.305 -0.1211 -0.1123  0.3895
19505W        W38359  17.054  12.794  17.406  0.0140 -0.1468 -0.1153
19506W        W38360   3.455   0.411  14.250 -0.1037  0.0522  0.2209
19507W        W38361   5.539  16.190   4.241 -0.1053  0.3529 -0.3235
19508W        W38362   9.382   6.331  17.093 -0.1722  0.1225 -0.0895
19509W        W38363   8.612  10.432   5.329 -0.2571 -0.2668  0.2059
19510W        W38364  11.086  12.161   2.656 -0.0965  0.0454  0.1747
19511W        W38365   9.368  10.761  16.901  0.0500 -0.1819 -0.1284
19512W        W38366  17.108  13.681  13.261 -0.1323 -0.4903  0.1054
19513W        W38367   4.137  14.866   3.719 -0.0815 -0.0816 -0.1547
19514W        W38368  13.733   7.335  17.201 -0.2329  0.1567  0.2725
19515W        W38369   0.153   3.625   1.274 -0.1730 -0.1710 -0.0339
19516W        W38370   9.253   8.062  15.747  0.0463 -0.1887 -0.1341
19517W        W38371   4.155   9.817  12.739 -0.0825 -0.2401 -0.1569
19518W        W38372  11.203  12.167   1.741  0.0506  0.0518 -0.0663
19519W        W38373   9.437   7.516   2.531  0.0305  0.1771 -0.0503
19520W        W38374  14.443   8.022   0.509  0.1461 -0.1572  0.0593
19521W        W38375   5.651  15.092  14.268 -0.0952 -0.1956  0.0883
19522W        W38376   2.908   9.299  15.811 -0.2646 -0.3877 -0.0144
19523W        W38377  17.279   8.776  17.359 -0.1595  0.1215  0.1483
19524W        W38378   4.639  16.553   1.414  0.1104 -0.0033 -0.2793
19525W        W38379  15.418   9.222   0.925 -0.0945  0.0335 -0.0650
19526W        W38380   7.701  15.429  13.229  0.1587  0.1174  0.0319
19527W        W38381  12.543  12.987  17.130 -0.0224  0.1734 -0.1816
19528W        W38382  10.999   5.749   4.317  0.1492  0.0994 -0.2034
19529W        W38383   7.047  11.408  15.186 -0.0981 -0.0448 -0.1300
19530W        W38384  17.120   5.554   3.117  0.0499 -0.1651  0.2431
19531W        W38385   2.810   7.188   1.673  0.1219 -0.3777  0.1261
19532W        W38386  14.079   6.858  12.918 -0.0562 -0.1993 -0.0957
19533W        W38387   9.008   6.539  13.424 -0.1275  0.2732  0.3787
19534W        W38388  11.691   0.132   2.767 -0.0552  0.0732 -0.3193
19535W        W38389   0.210   7.459   4.604 -0.0162 -0.0041  0.1452
19536W        W38390  14.217  16.613  14.411  0.2894  0.1197 -0.0234
19537W        W38391  16.347   5.198   4.871 -0.1565  0.2975  0.1006
19538W        W38392   9.341   2.216   4.055  0.3750  0.3680 -0.0839
19539W        W38393   4.733   6.764  15.044  0.2175 -0.3508 -0.1521
19540W        W38394  15.857   8.301   2.935 -0.0364 -0.2148  0.0053
19541W        W38395  16.505   6.843  15.907  0.0339  0.2543  0.1130
19542W        W38396   2.969  12.292  15.194  0.1790  0.0605 -0.2277
19543W        W38397  12.959  13.325  17.152 -0.1192 -0.2682 -0.0674
19544W        W38398  14.957   8.215   5.099 -0.1628  0.3242  0.0330
19545W        W38399   1.252   2.424  15.738  0.0687  0.0555  0.0906
19546W        W38400  16.453   3.390   0.484 -0.2155 -0.1349  0.0613
19547W        W38401   3.483   7.289   2.913 -0.1083 -0.1913 -0.0827
19548W        W38402   5.384   8.975  15.084  0.1281 -0.2319  0.1719
19549W        W38403   6.227   2.151   0.671  0.1318  0.1491  0.0417
19550W        W38404   3.741   8.202   2.395  0.0578  0.0024 -0.1657
19551W        W38405  15.897  16.158  14.220 -0.2616  0.0016 -0.2425
19552W        W38406  11.163  13.301  17.049  0.0213 -0.1821 -0.2816
19553W        W38407  13.446  16.916   3.990 -0.1784  0.0882 -0.0152
19554W        W38408   5.399   7.361   3.754 -0.0884 -0.3703 -0.1597
19555W        W38409  15.924   0.391   0.421  0.1907 -0.0541 -0.3390
19556W        W38410   2.600   6.451  15.279  0.1618 -0.0065  0.4216
19557W        W38411   8.921   5.632  13.909 -0.0217 -0.1597 -0.0589
19558W        W38412  10.459   8.303   3.223  0.1045 -0.2732  0.0894
19559W        W38413   2.935  16.997   2.666  0.0941  0.2460  0.1131
19560W        W38414   7.664  13.632  15.804  0.1733 -0.1418 -0.0609
19561W        W38415  14.774  16.865   0.672  0.1078  0.0145 -0.0922
19562W        W38416  11.973   0.202   0.092  0.0724 -0.1234 -0.2582
19563W        W38417   7.707  15.010   2.582  0.0584  0.0408 -0.1296
19564W        W38418   9.075   0.167  15.460 -0.0249 -0.0460 -0.1252
19565W        W38419   1.082   3.245  16.816 -0.4233  0.1687  0.1189
19566W        W38420   9.907   1.698   3.322 -0.1249  0.0030  0.1275
19567W        W38421  13.038  15.560  16.462 -0.1580 -0.1647  0.0184
19568W        W38422  15.305  15.056  12.367  0.3713 -0.0533 -0.0495
19569W        W38423  13.642  11.840  14.156 -0.0074  0.0409  0.4566
19570W        W38424   4.732   2.573  16.980  0.0642  0.2673  0.0926
19571W        W38425   0.861   2.645   1.981  0.2014 -0.1214  0.1175
19572W        W38426   5.506  10.621   0.415 -0.2215 -0.1594  0.1663
19573W        W38427   9.891   5.781   0.992 -0.2600  0.0300 -0.1668
19574W        W38428   8.232   5.302  13.176 -0.0526 -0.1644  0.2803
19575W        W38429   1.765  17.081  16.099 -0.0237  0.1151 -0.1380
19576W        W38430  13.586  17.243  16.231 -0.1324  0.2651 -0.0242
19577W        W38431   0.403  10.213   4.716 -0.0163 -0.0257 -0.1540
19578W        W38432   8.347   2.449  12.941  0.2563 -0.1104 -0.2723
19579W        W38433  14.008   3.672  13.611 -0.1211  0.1060 -0.0828
19580W        W38434   2.402   0.552   2.041  0.0469 -0.0944  0.2941
19581W        W38435   3.483  14.836   4.833  0.2330 -0.0042  0.1628
19582W        W38436  13.562  11.152   1.793 -0.0481 -0.0103 -0.1248
19583W        W38437   2.945  14.844   3.488  0.0622 -0.0977  0.4258
19584W        W38438  11.235  10.349   4.776 -0.2451  0.2147 -0.2359
19585W        W38439  12.495  12.117  12.831  0.0273  0.1059  0.4373
19586W        W38440  13.474  15.090   1.360 -0.0429 -0.2704 -0.0965
19587W        W38441  14.913  14.550   4.309  0.0500 -0.3079  0.0755
19588W        W38442   3.295   3.302  15.693  0.3580 -0.0839  0.0291
19589W        W38443   1.718   1.929   3.752 -0.1451 -0.3036  0.0639
19590W        W38444   0.651   1.922   4.414 -0.2227 -0.1472  0.2320
19591W        W38445  15.754  12.518   4.918  0.1065 -0.2632 -0.1908
19592W        W38446  12.666   7.642   3.920 -0.0804 -0.1333  0.2246
19593W        W38447   3.187   2.827   0.731 -0.0266  0.1411  0.1183
19594W        W38448  14.154   8.554   2.428 -0.1796  0.1451  0.2406
19595W        W38449  13.658   9.464  14.798 -0.0169 -0.1887 -0.2184
19596W        W38450   1.202   9.510   1.832  0.0120 -0.1577  0.0886
19597W        W38451   6.506  16.543  13.772 -0.0882  0.0845  0.1961
19598W        W38452   8.673   8.614  13.404 -0.0668  0.0790  0.0883
19599W        W38453  11.532  14.388  13.016  0.0408 -0.1355 -0.4494
19600W        W38454   0.773   9.659   0.498  0.2131  0.0245 -0.0721
19601W        W38455  16.669   6.033  12.957 -0.1396 -0.2835  0.0208
19602W        W38456   1.956  14.032  13.965  0.1911 -0.1072 -0.2463
19603W        W38457  11.783   5.612   3.938 -0.0307 -0.1971  0.0622
19604W        W38458  10.528   0.367   1.409  0.0539 -0.0848 -0.1582
19605W        W38459  14.109   2.615  14.627  0.1330 -0.1727  0.1564
19606W        W38460  10.611  14.849   3.221  0.0716  0.1246  0.1011
19607W        W38461  13.091  15.649   4.600 -0.2294 -0.1929 -0.1646
19608W        W38462  12.498  14.839  16.206  0.0628 -0.0624 -0.0170
19609W        W38463  14.911  12.695  15.339 -0.0952  0.0707  0.0557
19610W        W38464  12.947  14.789  14.151 -0.0236 -0.2559 -0.0371
19611W        W38465   4.084   7.799   2.448  0.0300 -0.0078 -0.1736
19612W        W38466   7.323  13.342   5.856  0.1830  0.0472 -0.1984
19613W        W38467  10.655   6.694  12.620  0.2917  0.2893 -0.1272
19614W        W38468   2.662   3.633   3.793 -0.3134  0.0786 -0.0130
19615W        W38469   1.659  14.416  14.275 -0.0384 -0.3180  0.2043
19616W        W38470  12.715   7.294  12.768  0.1011  0.1920  0.2172
19617W        W38471  10.375   2.698   0.133 -0.1571  0.1306 -0.1676
19618W        W38472   9.697  11.522   2.299 -0.3445  0.1945  0.1142
19619W        W38473   7.526   3.561   2.711  0.0052 -0.0268  0.0146
19620W        W38474   5.931  11.260   3.453 -0.1312 -0.2329  0.1386
19621W        W38475   8.008   2.572   5.492 -0.0877  0.2933 -0.0228
19622W        W38476   0.897  14.655  13.080 -0.2981 -0.0912 -0.1690
19623W        W38477   6.539   8.297  16.887  0.3179 -0.0358  0.0784
19624W        W38478  14.387  13.956  14.261 -0.1237 -0.0076  0.1851
19625W        W38479   5.351   2.405  12.931 -0.1851 -0.0012  0.2347
19626W        W38480   8.176  16.418  15.204 -0.0649 -0.1156 -0.0368
19627W        W38481   9.056   9.654  15.315  0.2209  0.2923  0.0970
19628W        W38482  12.108   9.885  17.245  0.3626 -0.2473 -0.2789
19629W        W38483   2.358  17.319  12.419  0.2047 -0.3715 -0.1410
19630W        W38484   2.567   5.950  12.400  0.0256  0.2695  0.1377
19631W        W38485   7.066  13.610  16.799  0.0798  0.1204 -0.0560
19632W        W38486  11.479  16.972   0.573 -0.0027  0.1883 -0.1565
19633W        W38487  16.286   9.180   1.317 -0.0744  0.0382 -0.0933
19634W        W38488  12.735   8.705   4.471  0.0857 -0.2114 -0.0548
19635W        W38489   2.351  13.844   2.678  0.1810 -0.3262  0.0704
19636W        W38490   0.993   1.587   0.412  0.2608  0.1625  0.2201
19637W        W38491   9.250   1.201  15.135 -0.2169 -0.0942 -0.1893
19638W        W38492  14.615  12.799   3.475  0.3133 -0.0615  0.2951
19639W        W38493   4.758   0.918   1.074  0.0783  0.0998  0.1849
19640W        W38494  16.837   2.317   4.348  0.0296  0.0819  0.0650
19641W        W38495   0.612   7.002   0.320 -0.3347  0.1649  0.1895
19642W        W38496   6.548   5.031  12.440 -0.2279  0.1540  0.0368
19643W        W38497  13.609   3.612   0.720  0.1592  0.1528  0.0939
19644W        W38498   6.820   2.876  12.401  0.1983  0.0017  0.0780
19645W        W38499  12.511   0.441  12.895  0.0368 -0.1728 -0.1635
19646W        W38500  14.381  16.181   4.911  0.0023 -0.0786  0.0428
19647W        W38501   1.309  12.248   3.951 -0.1668  0.0580  0.1058
19648W        W38502  12.057  17.085   3.095 -0.0319  0.0979 -0.0470
19649W        W38503  14.990   9.481   1.491  0.1140  0.2641  0.0801
19650W        W38504  11.647  16.506   2.628 -0.2009 -0.3114 -0.1004
19651W        W38505   1.038   1.974   4.094  0.0620  0.0311  0.1569
19652W        W38506  13.930   7.683  13.181  0.0637  0.0838  0.1904
19653W        W38507   9.371   4.764  15.921 -0.3515 -0.1526  0.2906
19654W        W38508  14.021   9.600   1.151 -0.3454  0.1010  0.2321
19655W        W38509   0.151   6.259  17.037  0.1049  0.0325 -0.5598
19656W        W38510   2.632  16.782  13.640  0.0930  0.1715  0.2317
19657W        W38511   4.234   8.186  16.815 -0.0613 -0.2789 -0.1166
19658W        W38512  12.785  12.896   3.495  0.0366  0.1068 -0.0620
19659W        W38513  10.982  13.430   2.122  0.1743 -0.0373 -0.4356
19660W        W38514  10.249  14.296  15.112 -0.2680 -0.0493  0.1587
19661W        W38515   8.292  11.728  14.890 -0.0114 -0.0933  0.0778
19662W        W38516  16.153  16.203  11.476  0.4841 -0.1739 -0.3694
19663W        W38517   5.913   4.882   4.106 -0.2659  0.3163 -0.4012
19664W        W38518   9.125  12.120  14.934 -0.0930  0.4016  0.2034
19665W        W38519  12.110   1.769  16.806  0.3443 -0.2144  0.1123
19666W        W38520  16.330  12.631  12.375  0.0079  0.0509 -0.1723
19667W        W38521   3.136   7.543   3.809  0.1992  0.0266  0.0299
19668W        W38522   8.515   4.960   1.153  0.1317  0.1149 -0.4052
19669W        W38523   8.573   4.656   4.361  0.1482  0.3761  0.2120
19670W        W38524   6.929   9.251  17.142  0.0207 -0.0750  0.0250
19671W        W38525   4.178   9.722   4.234 -0.1086 -0.2727  0.0830
19672W        W38526  13.854   7.996   1.309 -0.3529 -0.0874  0.3007
19673W        W38527   8.738  15.659  14.685 -0.2299 -0.0377 -0.0916
19674W        W38528  16.882   9.303  13.647  0.1922  0.1281  0.0212
19675W        W38529  12.254   5.920   0.754 -0.0022  0.0631  0.1175
19676W        W38530   7.979  16.080   4.574  0.0437 -0.2146 -0.2977
19677W        W38531  15.351  10.842  16.750  0.0486  0.2841 -0.0889
19678W        W38532   6.896  14.926  15.428 -0.0234 -0.2121  0.1323
19679W        W38533   9.081  15.697   3.438  0.1390  0.0193 -0.0433
19680W        W38534  15.230  11.614  14.464  0.0501  0.0931  0.2867
19681W        W38535   7.859   0.049   5.263  0.0848  0.2648  0.1091
19682W        W38536  15.955  13.988  15.621 -0.1969 -0.1979 -0.1211
19683W        W38537   8.311   5.205  14.478 -0.0962 -0.0062  0.0119
19684W        W38538  14.244  12.422  16.952 -0.0789  0.2547  0.2162
19685W        W38539   4.969  16.596  16.177  0.1645  0.0528  0.3025
19686W        W38540   2.907   5.860   1.600 -0.0892 -0.0155 -0.3581
19687W        W38541   2.952   4.140   3.098  0.0612 -0.0894  0.0928
19688W        W38542   2.263  15.242  17.072  0.1885  0.1897 -0.0046
19689W        W38543   5.276  16.121   5.019  0.0111  0.3165 -0.1640
19690W        W38544   1.894   9.186   4.175 -0.0654  0.3609  0.0212
19691W        W38545   6.738  14.417   3.934 -0.2316 -0.0161 -0.0935
19692W        W38546   0.734  16.130   4.391 -0.2247 -0.1024  0.0334
19693W        W38547  14.099   0.373   4.959 -0.0675 -0.0411 -0.2146
19694W        W38548  13.258   2.991  16.226 -0.0345 -0.0894  0.0212
19695W        W38549   7.544   2.186   1.547 -0.2446 -0.1974  0.2603
19696W        W38550  15.177  14.416  16.647 -0.0169  0.1009 -0.0740
19697W        W38551   9.686  15.148  16.635  0.1417  0.0087  0.3244
19698W        W38552   0.690  15.905   1.027 -0.2141 -0.3696 -0.2491
19699W        W38553   8.775  14.888  16.617 -0.1289  0.3293  0.0801
19700W        W38554   9.319   4.391  14.196 -0.1949  0.1727  0.1642
19701W        W38555   3.681   0.877  14.190  0.0924 -0.1373 -0.1485
19702W        W38556   1.766  12.548   2.560 -0.2590  0.0570 -0.0884
19703W        W38557  10.026   8.473   0.121  0.1922  0.0201  0.0981
19704W        W38558   9.692  13.612   1.043 -0.0686 -0.0215 -0.1363
19705W        W38559  10.145  12.319   2.468  0.0327 -0.0662  0.0810
19706W        W38560  11.558   2.395  14.083  0.1428  0.2423 -0.1762
19707W        W38561  10.013  14.020  16.869 -0.0870  0.3049 -0.4011
19708W        W38562  12.173   9.355  13.389  0.0289 -0.0334  0.1107
19709W        W38563  16.018  13.550  16.038 -0.0938 -0.1904 -0.1215
19710W        W38564   8.671   9.163  15.495  0.5688 -0.1713  0.0735
19711W        W38565  13.168   1.736   0.267 -0.0402  0.5718 -0.0154
19712W        W38566   9.832   0.901  13.159  0.3168 -0.0679 -0.1399
19713W        W38567  10.560  15.744  11.284  0.0970 -0.1393  0.0667
19714W        W38568  13.140   8.179  17.232  0.1479 -0.2234 -0.5141
19715W        W38569  13.331   1.793  12.927  0.0680  0.1048 -0.0597
19716W        W38570   8.723  16.590   0.140 -0.2843 -0.1342  0.1336
19717W        W38571   5.212   2.613   5.341 -0.0196  0.2132  0.0282
19718W        W38572  12.769  12.394   3.903 -0.1516 -0.0271  0.2071
19719W        W38573  13.511  17.259   0.061 -0.1422  0.3510  0.0586
19720W        W38574  12.065   2.072  12.656 -0.1727  0.1015  0.3052
19721W        W38575   0.067   7.857   5.439  0.1350 -0.2028  0.1072
19722W        W38576  11.937  16.965  13.730  0.1004 -0.2341 -0.0110
19723W        W38577  17.313  16.580   1.221 -0.1087 -0.1764  0.0889
19724W        W38578   3.654   1.903   4.464 -0.0140 -0.1598 -0.0563
19725W        W38579   9.140   4.743  17.162 -0.3076 -0.0466 -0.1000
19726W        W38580   2.344   4.934   0.140 -0.1897  0.0493 -0.0860
19727W        W38581   6.469   2.951  13.325 -0.0857 -0.1023  0.1630
19728W        W38582   1.812   8.400   1.484 -0.1476  0.3740  0.2132
19729W        W38583   9.029  10.235  13.144 -0.1909 -0.0018  0.0204
19730W        W38584  12.043   2.117   0.841 -0.0085  0.1611 -0.0366
19731W        W38585  13.650  16.827  16.536 -0.1821  0.0834  0.1392
19732W        W38586   2.261   9.418   4.648  0.2846 -0.1963 -0.1849
19733W        W38587   7.746  10.126  15.486  0.3230 -0.0724 -0.2568
19734W        W38588   6.553   9.892  14.222  0.3608 -0.0620  0.0321
19735W        W38589  12.862  15.025   3.376  0.1693 -0.1500 -0.0847
19736W        W38590   8.081   5.383  14.094  0.2908  0.1462  0.6088
19737W        W38591   9.188  11.755   5.305  0.0978  0.0664 -0.0460
19738W        W38592  10.737   5.663  13.513 -0.0145  0.3318  0.1009
19739W        W38593   0.020  11.695  13.964 -0.1874  0.0960  0.2776
19740W        W38594   3.018  15.156   0.122 -0.2086 -0.4046  0.2077
19741W        W38595   1.674   6.038  14.875  0.2310 -0.2145  0.2298
19742W        W38596  16.209  10.601  17.323 -0.3625 -0.0635 -0.2143
19743W        W38597  10.484   8.573  12.229  0.2879 -0.2930 -0.0303
19744W        W38598   9.287  10.691  16.123 -0.1893  0.0935 -0.0686
19745W        W38599   9.361   0.339  17.410  0.1488  0.2233 -0.1784
19746W        W38600   7.651   3.016  12.863  0.2737 -0.0052 -0.2537
19747W        W38601  12.064  14.898   2.179  0.1397 -0.1232  0.0710
19748W        W38602   4.082  11.775   3.492  0.2751 -0.4045  0.1575
19749W        W38603  15.377   3.700  12.951  0.1372  0.0890  0.3403
19750W        W38604  12.122  14.479   0.107  0.1519  0.0362  0.0199
19751W        W38605  10.620   5.376  13.957 -0.1964  0.1884  0.0874
19752W        W38606  11.898  16.887  13.088  0.0706  0.0254 -0.0208
19753W        W38607   5.291   6.669   4.241  0.2300  0.1468 -0.2510
19754W        W38608   8.886   6.256  15.411 -0.0984  0.0683 -0.0162
19755W        W38609   7.241   5.376   0.151 -0.1449 -0.1057 -0.1483
19756W        W38610   1.295   0.962  13.442  0.4286  0.0870 -0.1384
19757W        W38611  16.347   0.847   0.817  0.3158  0.1099  0.2504
19758W        W38612  10.180  14.373  13.818 -0.4361 -0.1888 -0.0170
19759W        W38613   2.489   2.284  15.075 -0.0010  0.0096  0.4496
19760W        W38614  14.675  16.553   4.908 -0.2196  0.2748 -0.0153
19761W        W38615   1.887   8.442  15.548 -0.1302 -0.1277  0.1745
19762W        W38616   9.170   6.567  14.545 -0.2303 -0.0807 -0.1636
19763W        W38617  13.804  12.871   0.848  0.1010 -0.0995 -0.1943
19764W        W38618   4.972  16.253   4.084 -0.1749 -0.2762  0.3677
19765W        W38619   1.013  13.414   1.678  0.0275  0.0367 -0.0241
19766W        W38620  11.217  10.838   1.660  0.2787 -0.1808  0.1640
19767W        W38621   7.238   4.046  13.569 -0.0601 -0.0672 -0.1621
19768W        W38622  14.029   1.681   4.647 -0.0393 -0.1797  0.2234
19769W        W38623  10.861   9.725  11.926  0.2030 -0.1724  0.0410
19770W        W38624   0.851   2.946   0.298 -0.1673 -0.1078 -0.0592
19771W        W38625  10.842   7.640  13.631 -0.1318 -0.0014  0.2528
19772W        W38626  11.111   3.559  14.764 -0.1093  0.1195 -0.0747
19773W        W38627   8.305  16.907  15.268  0.0454 -0.1711  0.0091
19774W        W38628  15.333   1.789   1.429 -0.2611  0.3657  0.2528
19775W        W38629   5.597  11.231  15.461  0.1164 -0.1653 -0.2342
19776W        W38630  10.819   6.505  16.209 -0.3722  0.1928 -0.2372
19777W        W38631  15.531  12.994  12.419 -0.1237 -0.0820 -0.0233
19778W        W38632   5.553  16.155  17.317  0.2789  0.0795 -0.0864
19779W        W38633   6.692  10.452  13.601  0.0840 -0.3019 -0.0696
19780W        W38634  13.286  10.051  13.320 -0.1614  0.2192 -0.0281
19781W        W38635   9.433  10.711   5.035 -0.1734  0.3076  0.0428
19782W        W38636  12.958   0.156   4.585 -0.0941  0.1218 -0.0377
19783W        W38637  15.069  13.922  16.005  0.0486  0.1986 -0.2632
19784W        W38638   6.769   1.289  13.321 -0.3051 -0.0407  0.0883
19785W        W38639   8.741  16.063   3.267  0.0189 -0.0200  0.1856
19786W        W38640  13.539   5.963  13.250  0.0322 -0.0261  0.3021
19787W        W38641   9.970   7.908  15.793  0.1981 -0.0057  0.0087
19788W        W38642   6.439   8.342  15.258  0.4350 -0.0929 -0.3424
19789W        W38643   8.890   8.190   4.638  0.1939  0.1668 -0.1949
19790W        W38644   9.203  14.933   0.933  0.3015 -0.1747 -0.1323
19791W        W38645   3.609   9.345   2.052 -0.1138  0.0107 -0.0983
19792W        W38646   0.968  14.186  13.972  0.1850 -0.1132 -0.0964
19793W        W38647  10.501   5.625   2.288  0.1475 -0.1744 -0.0986
19794W        W38648   0.878   6.563  14.451 -0.1539  0.1375  0.6639
19795W        W38649   3.468  13.660   3.554  0.0881  0.1537 -0.0511
19796W        W38650   6.009  16.384  13.772  0.1640 -0.2532 -0.0583
19797W        W38651   3.403  11.672  15.961  0.0953  0.3029 -0.0959
19798W        W38652  10.326  16.016   4.085  0.3377  0.1847 -0.0055
19799W        W38653   0.016  16.248   4.759  0.0340  0.3128  0.0921
19800W        W38654  16.613   0.976   3.900  0.0748  0.4841 -0.4006
19801W        W38655  10.067  13.868  17.414  0.3967  0.0273 -0.3074
19802W        W38656  12.794   5.307   4.408 -0.1436  0.1525  0.1886
19803W        W38657  13.490   7.291   0.795 -0.1021  0.0454  0.1911
19804W        W38658   7.137   2.946  15.458  0.2304  0.0622  0.3292
19805W        W38659  15.268   8.386  13.946 -0.3492 -0.1250 -0.2035
19806W        W38660  12.890  15.797   1.877  0.2480 -0.0187 -0.0134
19807W        W38661  10.785  14.270   0.531  0.1637  0.1209  0.3679
19808W        W38662   0.004   1.984   0.581  0.1384 -0.2396  0.0814
19809W        W38663   8.042   4.628  15.569  0.0806  0.0554 -0.2193
19810W        W38664   7.546   3.739   5.104 -0.1576  0.0344  0.1718
19811W        W38665   2.503   9.131   2.733  0.0843  0.2888  0.3057
19812W        W38666   8.861   2.463  16.134 -0.0070  0.1545 -0.0903
19813W        W38667  12.874  15.148  16.208 -0.1964  0.0459  0.0898
19814W        W38668   7.526  10.471  17.447 -0.0871 -0.1095  0.0147
19815W        W38669  11.885   1.569  16.366  0.1181  0.0831  0.2568
19816W        W38670   5.569   3.965  16.868  0.0759 -0.1633  0.1566
19817W        W38671   5.066   4.845   2.368  0.0803  0.2412 -0.0582
19818W        W38672  12.959  15.036  12.747  0.0593 -0.1037 -0.1295
19819W        W38673  12.774  12.415  16.878 -0.3637 -0.1399 -0.1448
19820W        W38674  11.067  16.849   4.260  0.0133 -0.0528  0.1336
19821W        W38675   7.307   0.115   1.874  0.0922  0.1268  0.2721
19822W        W38676  15.824  10.333   5.452 -0.0309 -0.2552  0.1454
19823W        W38677   5.338   0.141  12.455  0.0659 -0.2789  0.1046
19824W        W38678   0.353  15.778   1.398  0.3089 -0.3689  0.2235
19825W        W38679   9.548   1.597  13.845 -0.1456  0.2164 -0.0677
19826W        W38680   5.535  10.622  15.631  0.2794 -0.0989  0.1181
19827W        W38681   6.490   8.961  13.062  0.3949  0.1797 -0.3793
19828W        W38682   3.637   7.176   1.275  0.1623 -0.2238 -0.0662
19829W        W38683  10.418   6.474  16.508  0.1583  0.0755  0.4428
19830W        W38684  11.348  15.197  14.073 -0.1748  0.1772 -0.1824
19831W        W38685   2.189  12.773   2.436 -0.1196 -0.0560 -0.2051
19832W        W38686   7.428   0.464   4.477  0.2985 -0.2566  0.1315
19833W        W38687   4.548   9.766   2.225 -0.2093  0.0868 -0.0201
19834W        W38688   4.145  16.890  15.568  0.1783  0.3921  0.1950
19835W        W38689   4.114   4.494  12.788  0.0693  0.0951 -0.1752
19836W        W38690   9.832   2.245  12.539 -0.0859 -0.1061 -0.0480
19837W        W38691  10.635  11.906  16.920  0.1516  0.1523  0.0928
19838W        W38692  12.922   0.615   1.827 -0.2763 -0.1256  0.1016
19839W        W38693  15.119  14.023   4.782  0.1795 -0.3129  0.2011
19840W        W38694   1.186  13.539   3.497  0.1331 -0.1444  0.5077
19841W        W38695  13.676  15.200  12.606  0.1096 -0.0531 -0.0738
19842W        W38696   3.717   6.012  16.904  0.1367 -0.1294  0.1443
19843W        W38697  16.796   8.006   5.242 -0.1119  0.1804 -0.3145
19844W        W38698   9.408  12.349  14.511  0.2024 -0.0016 -0.0887
19845W        W38699  13.424   0.742  14.192 -0.0033 -0.0224 -0.1451
19846W        W38700   5.447  15.354  14.669 -0.0649  0.0077 -0.0103
19847W        W38701   1.020   1.335  16.596  0.2850 -0.0527  0.1230
19848W        W38702   2.778   4.032   4.204 -0.3425  0.2159 -0.1419
19849W        W38703  15.353   6.925   0.532  0.2645  0.1760 -0.3058
19850W        W38704   5.167  10.922  13.690  0.1799  0.2362 -0.1849
19851W        W38705   6.222  13.132  13.934  0.1493  0.0102  0.2073
19852W        W38706   7.990  14.213  12.655 -0.0184  0.1179  0.0730
19853W        W38707   0.608   3.504  11.852 -0.0433  0.1386  0.0140
19854W        W38708   7.884  14.891   3.469 -0.0368  0.2356 -0.0826
19855W        W38709  13.744  15.157   0.888  0.0939  0.0124 -0.0087
19856W        W38710   9.698  13.811   5.052 -0.0285 -0.2769 -0.0035
19857W        W38711   6.267   4.656  12.322 -0.0716  0.5665  0.0392
19858W        W38712  12.884   4.806  12.716 -0.0034 -0.1726  0.0514
19859W        W38713   8.764   4.362  17.121 -0.1570 -0.0023  0.1426
19860W        W38714  13.536  14.226  15.910  0.0155 -0.3096 -0.2559
19861W        W38715   2.292   6.253   0.497  0.2992 -0.2296 -0.2882
19862W        W38716  16.211   2.307  16.644  0.2072 -0.1410 -0.6232
19863W        W38717   5.979  15.429  12.677  0.0721 -0.1669 -0.0008
19864W        W38718  16.332   4.945   2.229 -0.2316  0.0413 -0.3317
19865W        W38719  11.361   4.413  15.470 -0.1806 -0.4708 -0.0207
19866W        W38720   7.607   6.985  12.494  0.0076 -0.0325 -0.2484
19867W        W38721   3.738  13.929  15.319 -0.1654  0.0099 -0.2518
19868W        W38722   6.378   3.139  15.946 -0.3027  0.0885  0.0496
19869W        W38723  16.658  15.045  16.533 -0.3340  0.1018 -0.0873
19870W        W38724  14.400  13.437   3.878  0.3184  0.1321  0.1071
19871W        W38725   9.611  16.949   2.279  0.0040  0.1109  0.1789
19872W        W38726   8.763  15.386  16.909 -0.0359 -0.0989  0.0150
19873W        W38727   0.898   3.326  13.106  0.3878 -0.0140  0.1346
19874W        W38728  16.134   3.411  16.047 -0.0584 -0.0900  0.1334
19875W        W38729   1.153  13.878  15.687  0.2564  0.0914 -0.4284
19876W        W38730   6.036  11.354   1.888  0.2375 -0.0793 -0.0105
19877W        W38731  13.522   9.982  12.890 -0.2767 -0.2518 -0.0042
19878W        W38732  13.031   3.966  16.634  0.0903 -0.3559  0.0416
19879W        W38733   1.126   1.337   1.919 -0.3480  0.2021 -0.3573
19880W        W38734   9.047   9.474   0.507 -0.1020  0.0349  0.1318
19881W        W38735  11.194  16.361   4.396  0.0579  0.2233 -0.2015
19882W        W38736   2.865   5.942   3.782 -0.0058  0.2477  0.2747
19883W        W38737   5.023   8.536   2.959  0.1012  0.0338 -0.1427
19884W        W38738   9.470  10.311   5.443  0.1973  0.0772 -0.1489
19885W        W38739  12.282   8.324  13.735 -0.1363 -0.3554  0.2812
19886W        W38740  16.723   7.396  14.867 -0.0815 -0.0808  0.1685
19887W        W38741  15.914   1.242  16.810  0.0983  0.2381 -0.1855
19888W        W38742   3.088   0.642   0.548 -0.1651  0.0099 -0.0751
19889W        W38743   7.524  16.609   4.748  0.0996 -0.2406 -0.1220
19890W        W38744   9.017   7.588   2.927 -0.0970  0.2475  0.3642
19891W        W38745   7.509   1.778   0.816 -0.3060  0.2183  0.3514
19892W        W38746   9.915  16.846  13.991 -0.1941  0.1823  0.0158
19893W        W38747   1.387   2.919  15.946 -0.1680 -0.1165 -0.0528
19894W        W38748  17.238  15.497   1.353  0.0799  0.0533  0.0088
19895W        W38749   6.609   9.018  15.958  0.3736  0.1624 -0.0724
19896W        W38750   3.212  12.889  15.744 -0.2865  0.0652  0.1919
19897W        W38751   9.038   4.725  13.509 -0.2056  0.0295 -0.1996
19898W        W38752  13.108   5.924   0.361  0.1586 -0.0772  0.1075
19899W        W38753   5.693   1.279  12.940  0.0623 -0.1213 -0.2448
19900W        W38754  13.565   4.468   2.287 -0.0783  0.0947  0.0250
19901W        W38755  12.359   2.400  16.872  0.3542 -0.1208 -0.0424
19902W        W38756  12.202  15.879  12.648 -0.0270 -0.2683  0.2118
19903W        W38757   2.688   3.733  17.219  0.0361 -0.0010  0.0620
19904W        W38758  12.973   8.123   3.243  0.1665 -0.0735  0.1132
19905W        W38759   8.632  15.719   2.795 -0.1350 -0.0261  0.1367
19906W        W38760   3.293  11.277  17.315  0.0196  0.2489  0.0107
19907W        W38761   7.648  16.821   0.619 -0.0106  0.0467  0.0272
19908W        W38762  14.157  13.665  15.831  0.1260  0.0805  0.2779
19909W        W38763  15.010   3.330   4.513  0.0188  0.1192  0.0521
19910W        W38764   3.183   2.784  15.670  0.3408 -0.0733  0.2086
19911W        W38765  12.977  10.117   3.305 -0.0039 -0.0085 -0.0884
19912W        W38766   8.774   3.254   0.513 -0.0087 -0.0335  0.1449
19913W        W38767   2.205  10.384  17.451  0.1208 -0.3063 -0.1808
19914W        W38768   3.184   8.375   0.804  0.1303  0.2729  0.1620
19915W        W38769   0.148   8.520  15.895  0.0033  0.2005  0.0978
19916W        W38770  12.334  10.641   1.290  0.0971  0.1062 -0.0186
19917W        W38771  15.511  11.918  12.864 -0.2448 -0.1377 -0.1156
19918W        W38772   5.547   7.104  16.874  0.3849 -0.0245 -0.1364
19919W        W38773   0.178  12.637   4.354  0.0245 -0.1702  0.3044
19920W        W38774   6.502  10.559   1.804  0.2914 -0.1364  0.2442
19921W        W38775  13.925   2.312   3.682 -0.3097  0.3252 -0.0169
19922W        W38776   0.696  15.993  14.286  0.1961  0.2380  0.1806
19923W        W38777  12.805   6.324   4.450  0.0588  0.2239 -0.2081
19924W        W38778   9.603   8.080   0.112  0.1031  0.1962  0.2781
19925W        W38779  15.347  11.679  15.141  0.0261 -0.1591 -0.0509
19926W        W38780  15.977   8.518   2.462  0.0834  0.1865  0.0750
19927W        W38781   0.665   1.093  15.918 -0.2145  0.1543 -0.0434
19928W        W38782   6.295   1.768  15.540  0.0774  0.0735 -0.1089
19929W        W38783  13.307   4.885   3.054 -0.1214 -0.1745  0.1865
19930W        W38784  16.723  11.926  12.617  0.0620 -0.0166  0.0138
19931W        W38785  16.125  13.805  14.171  0.1911 -0.1261 -0.1205
19932W        W38786  15.448   7.710  13.435  0.0453 -0.4228 -0.2342
19933W        W38787   7.765   9.026   1.311 -0.0923  0.5683  0.2190
19934W        W38788  17.043  13.366   5.120 -0.0655 -0.0518 -0.2350
19935W        W38789   9.436  14.129   4.800 -0.0521  0.0946 -0.1318
19936W        W38790   5.470  13.507   4.047  0.0636  0.0969 -0.0056
19937W        W38791   1.026   1.254   1.365 -0.0739  0.1151 -0.0508
19938W        W38792  11.812   7.315  12.789 -0.3579  0.2438 -0.0258
19939W        W38793   6.953   7.893  16.962 -0.0652 -0.2434 -0.0881
19940W        W38794   5.378  12.170   5.002 -0.0016  0.0091 -0.1903
19941W        W38795   4.920   8.791   0.212  0.2971 -0.1140 -0.1678
19942W        W38796  11.553  14.752   5.841  0.1990  0.1335  0.0751
19943W        W38797  15.821  10.592  16.868 -0.2592 -0.2499 -0.0505
19944W        W38798  10.280  11.859  17.347 -0.0717 -0.1126 -0.0803
19945W        W38799   8.009   9.881  14.845 -0.1300 -0.0872  0.2118
19946W        W38800  16.892   0.993   0.637  0.0403 -0.0523  0.1313
19947W        W38801   7.191   0.170   4.060  0.1808  0.2024  0.0503
19948W        W38802   6.810  14.521   5.047 -0.1894 -0.0528  0.1076
19949W        W38803  11.995  15.331  16.913  0.1402  0.0860  0.0676
19950W        W38804   9.159   4.697   0.233  0.1076  0.4286 -0.1088
19951W        W38805  13.626  12.814   4.859 -0.0395 -0.1409  0.1547
19952W        W38806   7.903  13.336   1.693  0.0418  0.1985 -0.0717
19953W        W38807   7.629   6.626   3.362 -0.1186  0.2696  0.2119
19954W        W38808   0.634  16.587  15.360 -0.3863 -0.0577 -0.0026
19955W        W38809   5.265   4.274   5.475 -0.1571  0.0364 -0.2882
19956W        W38810  10.218   2.998  14.836 -0.0197 -0.0005 -0.0911
19957W        W38811   5.220   0.491   2.348 -0.1441  0.1125  0.0661
19958W        W38812   9.533   7.280  15.180  0.0006 -0.0013 -0.1915
19959W        W38813   8.270  14.068   5.638  0.1136 -0.0188 -0.4186
19960W        W38814   7.940   1.747   4.581 -0.2457  0.0517  0.1331
19961W        W38815  14.757  16.541  12.756 -0.2635 -0.0005  0.4581
19962W        W38816  11.237   7.746   4.604 -0.2491  0.0203  0.2117
19963W        W38817   3.276  16.140   0.102  0.1792 -0.1538  0.0613
19964W        W38818   9.952   4.267   4.485 -0.0095 -0.0242  0.1506
19965W        W38819   8.686  13.809   2.829  0.2888  0.3667 -0.2873
19966W        W38820   3.823   2.697  14.147 -0.3211  0.1621 -0.1440
19967W        W38821  13.099   5.800  17.349 -0.1144 -0.2346 -0.2193
19968W        W38822   4.077  16.568   1.273 -0.0827  0.0373 -0.1036
19969W        W38823   7.994  13.108   0.002 -0.3034 -0.2550  0.0109
19970W        W38824   6.840   5.891  13.487  0.1459 -0.0167  0.2995
19971W        W38825   9.570   1.408  15.489 -0.0016  0.3394 -0.1468
19972W        W38826  12.675   5.612  16.381 -0.0667 -0.2605  0.1308
19973W        W38827   2.031  13.603  14.501  0.0879 -0.2109 -0.1030
19974W        W38828  12.080   9.106  15.644  0.0650 -0.1794 -0.1716
19975W        W38829   1.922   1.439   4.080  0.0912  0.1187 -0.1403
19976W        W38830   1.117   6.495   2.253 -0.1262 -0.1953 -0.1694
19977W        W38831  11.322   2.082   4.569 -0.2024 -0.1915 -0.2132
19978W        W38832  11.500  17.296  17.074  0.1520 -0.1428 -0.0226
19979W        W38833  14.844   2.721   2.681  0.2225 -0.0775 -0.0634
19980W        W38834   5.555   2.224  14.031 -0.0835 -0.0948 -0.3018
19981W        W38835  12.794   8.615   1.200 -0.1494  0.4490 -0.2248
19982W        W38836  11.625  13.098   1.671 -0.1158  0.1228  0.2038
19983W        W38837   0.539   8.815   3.764  0.2139  0.1577  0.2063
19984W        W38838  10.939  12.292  13.405 -0.2332  0.1490  0.1396
19985W        W38839  17.077   6.584   2.936 -0.1689  0.0741 -0.0143
19986W        W38840  13.873   3.861   3.382 -0.1775  0.3100 -0.0429
19987W        W38841  12.174  12.923   2.816 -0.0935  0.1271  0.0927
19988W        W38842   5.401  12.328  16.733  0.1944 -0.0803 -0.3445
19989W        W38843  15.715  16.800   0.082  0.0567  0.3524  0.1756
19990W        W38844   2.164   8.465   0.534  0.0397  0.2836  0.0825
19991W        W38845   8.037   9.968   2.131 -0.0390 -0.4143  0.0284
19992W        W38846  16.879   6.221   0.183 -0.0087  0.1323 -0.0273
19993W        W38847   2.844   9.046  17.073  0.2286 -0.1863 -0.0966
19994W        W38848   9.618  13.664  12.865 -0.1955  0.2163 -0.2964
19995W        W38849  10.720  11.100  14.636 -0.0100  0.1065  0.2535
19996W        W38850   0.852   5.190   4.997 -0.2922 -0.1687 -0.0582
19997W        W38851   0.437   4.986   4.294 -0.0885 -0.0210  0.2038
19998W        W38852  14.338  10.018  13.869  0.0149  0.1537  0.1717
19999W        W38853   6.823  13.142   3.338 -0.1207  0.2085 -0.0131
20000W        W38854   6.816  12.358  15.105  0.0471  0.0687  0.3067
20001W        W38855  13.972   7.421   0.573  0.2170 -0.0162  0.0070
20002W        W38856   8.072   9.257  13.765  0.0555 -0.2129  0.1328
20003W        W38857   3.366  14.143  13.900 -0.0655 -0.0312 -0.0461
20004W        W38858   3.703   0.232   4.423  0.0129 -0.2647 -0.0990
20005W        W38859  12.265  16.595  13.883 -0.3152 -0.1099  0.1872
20006W        W38860  14.730  16.078   0.480 -0.0200 -0.1021  0.1014
20007W        W38861   9.592  13.383  14.246 -0.0160 -0.3454  0.1495
20008W        W38862   1.224  11.688   2.368  0.0515 -0.1510  0.2347
20009W        W38863   4.469   5.556  16.808  0.0749 -0.1182  0.0260
20010W        W38864   4.560   7.440  14.246 -0.1645 -0.1323 -0.0234
20011W        W38865  11.533  12.376   2.679 -0.0222  0.1579 -0.2023
20012W        W38866   1.294  13.201   2.571  0.1458 -0.0667 -0.0080
20013W        W38867  12.629  11.347   4.204  0.0465  0.0670 -0.0643
20014W        W38868   4.648  12.062  12.287 -0.1977 -0.1816 -0.0564
20015W        W38869  14.173   9.607   2.032 -0.0946  0.2690 -0.0338
20016W        W38870   1.178  15.594  13.174 -0.1497 -0.1947  0.1889
20017W        W38871  11.536   6.792   0.946 -0.0056  0.0014  0.0300
20018W        W38872   0.433   3.853  12.640  0.1970  0.0791 -0.0591
20019W        W38873  10.959  17.122  14.731  0.4255  0.0742 -0.0019
20020W        W38874   3.700  16.789   0.569  0.0565  0.0711 -0.2289
20021W        W38875  15.167   5.174  13.923  0.2330 -0.2447  0.0833
20022W        W38876   1.467  10.577  13.818 -0.1659  0.0407 -0.1660
20023W        W38877  17.109  16.815  15.713  0.0458  0.0137 -0.0602
20024W        W38878  15.305  16.178   3.734  0.0616  0.0166  0.2916
20025W        W38879   5.712   8.219   2.318  0.3360  0.1316  0.1181
20026W        W38880   1.904   4.119   3.543  0.1609  0.2541  0.1170
20027W        W38881   5.704   6.800  17.295  0.0726  0.0615 -0.3415
20028W        W38882   2.986  13.367  13.940  0.1023  0.2479  0.0933
20029W        W38883  13.681  17.046  15.609  0.0699 -0.1671 -0.1749
20030W        W38884   8.835  13.935  13.208 -0.0069 -0.1693 -0.1573
20031W        W38885   5.376  12.266   2.424 -0.1145 -0.0622  0.2035
20032W        W38886   5.391  15.072  16.004  0.1618  0.1634 -0.1717
20033W        W38887  13.373  17.323   2.664 -0.4822 -0.0122  0.0157
20034W        W38888  16.072  14.230  12.393  0.1978  0.2656 -0.0596
20035W        W38889   9.048  13.019   4.621 -0.0874 -0.0259  0.2659
20036W        W38890   0.623  14.835   1.123 -0.0997  0.1196 -0.0562
20037W        W38891   0.735  13.449   2.134  0.0760 -0.2950 -0.4664
20038W        W38892   4.249  10.212  14.846  0.1839  0.0819 -0.1739
20039W        W38893   5.668  16.469   3.841 -0.0492 -0.0887  0.1294
20040W        W38894   5.648  15.779   2.956  0.0029 -0.2770 -0.0180
20041W        W38895  16.069  14.479  15.412 -0.1626  0.3566  0.2052
20042W        W38896   7.813   3.343  13.378 -0.0946 -0.0292  0.2367
20043W        W38897  11.234   8.945  14.665  0.0615  0.1406 -0.0781
20044W        W38898   9.615   0.307   3.682  0.0399 -0.0217  0.1752
20045W        W38899  14.822   5.744   1.775 -0.1692  0.0394 -0.1726
20046W        W38900  12.589  16.190  13.079  0.0626 -0.4460  0.1249
20047W        W38901   7.885  12.316   3.523  0.0105 -0.0179 -0.2589
20048W        W38902   5.088  11.816  16.295  0.2168  0.1149 -0.2092
20049W        W38903  13.695   8.771   2.737 -0.0414  0.1330  0.0841
20050W        W38904   5.342  17.013  13.659  0.3309 -0.0810  0.0550
20051W        W38905  13.349  14.216   3.377 -0.1303  0.1164 -0.1565
20052W        W38906   0.798   9.754  14.680  0.1478 -0.0102 -0.1702
20053W        W38907   6.708  15.852  12.767  0.0291  0.0831 -0.3714
20054W        W38908   4.788  14.574   4.405 -0.2745  0.1392  0.1553
20055W        W38909   3.450   9.436   2.604 -0.1546 -0.0261 -0.1165
20056W        W38910   3.827  15.084  15.409  0.2146 -0.0224 -0.0275
20057W        W38911  12.821  14.275   1.307 -0.0048 -0.0916  0.4042
20058W        W38912   3.891  11.361   4.750  0.1626  0.1325 -0.2471
20059W        W38913  11.536  14.116  12.573  0.1091  0.0120 -0.0523
20060W        W38914   7.155   0.896  13.459 -0.2930  0.0564  0.1861
20061W        W38915  15.253   4.144   0.999  0.0961 -0.0042  0.1935
20062W        W38916   1.972  14.229  15.687  0.0164 -0.0985 -0.1118
20063W        W38917  10.259   5.631  14.218 -0.0951 -0.2976  0.2661
20064W        W38918   1.376   5.464   4.337 -0.0026 -0.2327 -0.0721
20065W        W38919   7.158   4.696   4.912  0.0458 -0.0129  0.0237
20066W        W38920  13.792   9.401   3.414  0.1665  0.1043  0.0766
20067W        W38921  14.679   3.636   2.333 -0.0667 -0.3341  0.1131
20068W        W38922   6.312   2.636  16.598  0.1113  0.0333  0.1342
20069W        W38923   7.933  10.863   2.170  0.0141 -0.0623  0.0726
20070W        W38924   7.748  16.470   4.314  0.3261  0.5283  0.0110
20071W        W38925   5.803   2.362   1.427  0.2114 -0.1226 -0.0176
20072W        W38926   8.451   3.787  12.928  0.2678 -0.2634 -0.4269
20073W        W38927  15.383   9.116   2.827  0.2581 -0.1524  0.0034
20074W        W38928   9.650  15.196   4.567  0.0749 -0.0488 -0.0309
20075W        W38929  15.737   6.555   3.064  0.0745  0.0916  0.0041
20076W        W38930   7.295  10.146  13.201  0.2372  0.2174  0.1091
20077W        W38931  14.900   6.258   5.234 -0.0451 -0.2102  0.0102
20078W        W38932  16.653  11.186   0.467 -0.3425 -0.0244 -0.1386
20079W        W38933  11.812   1.020  14.872 -0.0547  0.1939  0.1976
20080W        W38934   1.185   1.849  13.008 -0.2725  0.0730 -0.1455
20081W        W38935   9.672  13.307   0.569 -0.0227 -0.0459 -0.4126
20082W        W38936   0.956  11.816  14.539  0.2539  0.1601 -0.0689
20083W        W38937   2.681   8.649   4.540 -0.1301 -0.1357  0.0016
20084W        W38938   5.505   6.405   3.785  0.2829  0.2721 -0.0828
20085W        W38939  14.948  15.212  15.911 -0.2798 -0.1481  0.2728
20086W        W38940  13.310  15.339  12.926  0.1285 -0.3368 -0.2021
20087W        W38941  11.437   7.763  16.839 -0.1271  0.0774  0.0873
20088W        W38942   4.656   0.198   5.359 -0.0253 -0.0147  0.0056
20089W        W38943   7.002   3.551  16.226  0.2105  0.1504 -0.0619
20090W        W38944  15.803  15.682   5.382 -0.0092  0.0670  0.1037
20091W        W38945  15.706  13.519  16.460 -0.0785  0.2342  0.0664
20092W        W38946   4.575  14.667   0.576 -0.2353 -0.0356 -0.1532
20093W        W38947   7.214  14.613   1.300  0.0854 -0.0093  0.0077
20094W        W38948   0.254  13.042  13.678  0.2988 -0.0816  0.0961
20095W        W38949  10.091  12.232  12.765 -0.0595 -0.0498  0.0329
20096W        W38950   3.234  13.223   1.084 -0.1494 -0.3018 -0.1717
20097W        W38951  13.659   2.308   2.064 -0.1437 -0.0801 -0.0483
20098W        W38952   2.342   2.776  15.668 -0.3140 -0.1753 -0.0274
20099W        W38953   6.774  11.665   3.384  0.2335 -0.3865 -0.0592
20100W        W38954  14.774  14.280  14.122 -0.0760 -0.0122 -0.2875
20101W        W38955   1.676  15.435   1.416 -0.2210 -0.0998 -0.1292
20102W        W38956   7.977   5.001  16.018  0.1521  0.0020 -0.3993
20103W        W38957  10.944  15.100  12.948  0.2117  0.1037  0.2957
20104W        W38958  12.978   5.443   0.456 -0.2440 -0.0296 -0.0616
20105W        W38959   6.039   5.257  16.194 -0.0561 -0.1591 -0.0499
20106W        W38960   7.113   8.929   0.135 -0.4337  0.2267  0.2410
20107W        W38961  10.112  11.546   0.367  0.0926  0.3544  0.0384
20108W        W38962   5.911  14.265  15.455  0.0501  0.0534  0.0818
20109W        W38963   4.588   2.067   0.350  0.0598 -0.0618 -0.0647
20110W        W38964   0.447  11.177  16.396  0.0376  0.3594 -0.0728
20111W        W38965  12.100  16.768   3.499 -0.1229  0.1962 -0.1873
20112W        W38966  10.905  12.550   3.154 -0.1302 -0.1844 -0.2890
20113W        W38967  13.811   7.372  16.335  0.0695 -0.0990  0.0549
20114W        W38968   7.304   8.382  11.895  0.0435  0.1824 -0.1697
20115W        W38969   2.728   8.856  12.100  0.0984 -0.3361 -0.0544
20116W        W38970  10.165  17.057  13.002  0.2082  0.1392 -0.0432
20117W        W38971   1.671   1.759  15.081  0.4117  0.0962  0.1009
20118W        W38972  14.137   9.743   0.091  0.1432  0.2870  0.1037
20119W        W38973   0.011  14.265   2.853  0.0387  0.0113 -0.0895
20120W        W38974   3.488   2.108  15.566 -0.0089 -0.1765  0.2218
20121W        W38975   3.081  13.483  16.624 -0.1355  0.0053 -0.3356
20122W        W38976   6.334   3.144  16.779  0.0585 -0.1959 -0.0609
20123W        W38977   7.391   5.738  12.655 -0.0326 -0.1245  0.0535
20124W        W38978   8.145  11.471  13.089 -0.0504  0.1955  0.0479
20125W        W38979   9.067   8.752   2.162  0.2383  0.1783  0.2372
20126W        W38980   7.535   1.416   2.674  0.2651  0.1063  0.1149
20127W        W38981  12.550   8.597  12.500 -0.1363  0.0883 -0.1539
20128W        W38982   2.903   9.829  13.326 -0.1394 -0.1055  0.0338
20129W        W38983  16.331   7.260  13.543 -0.0617  0.3779 -0.1775
20130W        W38984  16.166   2.511   5.011 -0.1949  0.2576 -0.0720
20131W        W38985   3.899  13.826  14.648 -0.1132  0.4685  0.0717
20132W        W38986  13.442  14.219  13.326 -0.1017 -0.0787 -0.0484
20133W        W38987  13.183   0.603   0.619 -0.1866  0.2107 -0.0292
20134W        W38988   1.645   4.022  13.036  0.4629  0.0132  0.0152
20135W        W38989  12.120   8.961   4.006  0.2433  0.0037  0.1893
20136W        W38990   5.188  13.922  14.105  0.1145  0.0694  0.2100
20137W        W38991   7.431   0.277  14.142 -0.2818  0.4944  0.1000
20138W        W38992   6.539   7.908   3.607 -0.0089  0.1600 -0.1010
20139W        W38993   3.989   0.894   4.431  0.0795  0.1868  0.0695
20140W        W38994  11.049   6.274   4.203 -0.1579  0.1451 -0.1590
20141W        W38995   4.305   7.387  16.350  0.1646 -0.0431 -0.0744
20142W        W38996  16.655   7.326   4.083  0.3229 -0.0516 -0.0759
20143W        W38997   2.592  11.655   1.143 -0.2101 -0.0319 -0.0311
20144W        W38998   7.792  11.736  16.858 -0.0900 -0.1536  0.0279
20145W        W38999   5.703   5.213  12.867  0.1762  0.0985  0.3524
20146W        W39000  14.132   4.282   3.336  0.0871  0.0010 -0.1639
20147W        W39001   9.892   8.387   4.723 -0.1752 -0.1673  0.0682
20148W        W39002   9.312  13.594  12.316 -0.0359  0.1202  0.0126
20149W        W39003   1.766   5.083   1.141 -0.0751 -0.2574 -0.1987
20150W        W39004  15.506   6.784  14.712 -0.2513  0.0473  0.1895
20151W        W39005   2.091   7.648  13.948 -0.1301 -0.4188 -0.3238
20152W        W39006  12.716  11.943   1.971  0.4430  0.2944  0.0645
20153W        W39007   0.629  15.416   4.909  0.1244 -0.0521  0.0240
20154W        W39008   7.802   4.200   5.062  0.1362  0.3219  0.0859
20155W        W39009   6.194   8.383   0.963 -0.0808  0.2957  0.1597
20156W        W39010   4.377  15.536  12.207 -0.0818 -0.0483 -0.0690
20157W        W39011   7.901   9.717   5.357  0.0024 -0.0547 -0.2819
20158W        W39012   3.350  17.026   1.426 -0.1164  0.1301 -0.2103
20159W        W39013   2.689   8.152  17.020  0.1877 -0.2657 -0.3359
20160W        W39014   4.604  14.207   4.741 -0.0655  0.0562  0.2394
20161W        W39015   9.755  10.272  12.261  0.1613  0.1885  0.0738
20162W        W39016  15.118  11.559  12.841  0.0773 -0.0752  0.1402
20163W        W39017  10.789  15.465  14.769 -0.2254  0.0650  0.2558
20164W        W39018  12.713  17.155  14.640 -0.1692 -0.0918 -0.2868
20165W        W39019   9.978   5.818   1.519  0.0939 -0.0896  0.0084
20166W        W39020   5.118   7.728  13.344 -0.0880 -0.1723  0.1729
20167W        W39021  15.140   3.131   3.181 -0.1141  0.1283  0.0986
20168W        W39022   1.097   8.689   0.803  0.1040  0.1883  0.2663
20169W        W39023   2.302   2.109   2.931  0.0281 -0.2594  0.0958
20170W        W39024  12.497   6.106  16.211  0.0635  0.1394  0.2937
20171W        W39025   4.288   0.045   0.218  0.0702  0.0015 -0.0997
20172W        W39026  11.446   7.153  12.457 -0.0406 -0.2906 -0.0884
20173W        W39027  10.129   5.338  17.151 -0.1826 -0.0240 -0.1452
20174W        W39028   9.396  12.876   2.478 -0.2533 -0.1118 -0.1019
20175W        W39029   4.995   9.266  15.290 -0.0492 -0.1446  0.1222
20176W        W39030   6.353   8.520   3.252 -0.1530  0.2087  0.0964
20177W        W39031  14.159  17.285   5.247  0.1050 -0.0617 -0.2418
20178W        W39032  16.303  13.986  15.999 -0.0486 -0.1551  0.0771
20179W        W39033  16.864   0.226  16.781  0.3193 -0.2151 -0.0466
20180W        W39034   4.735  12.418   0.589 -0.1143 -0.1906 -0.0153
20181W        W39035  12.316   1.318  16.712 -0.0392 -0.1990  0.0895
20182W        W39036   3.421   4.202  13.541 -0.0957  0.0712 -0.2928
20183W        W39037   9.437   4.910  16.696 -0.1825 -0.2755 -0.2237
20184W        W39038  14.007  14.320  13.365 -0.0036 -0.2103 -0.5752
20185W        W39039   1.094   6.338   4.750 -0.0104 -0.0160 -0.1160
20186W        W39040   6.797   8.065  14.020 -0.0829  0.3632  0.1160
20187W        W39041  12.996   1.923   3.984 -0.2983 -0.3330 -0.1794
20188W        W39042  14.092  12.239  16.506  0.2131  0.2100 -0.1013
20189W        W39043   1.878   8.186   0.197 -0.0806  0.1322  0.1167
20190W        W39044  13.657  12.433   2.430  0.1754  0.0367 -0.0342
20191W        W39045  10.086  15.052   2.078  0.0376  0.3335  0.0042
20192W        W39046   1.977   1.565   2.824  0.2323 -0.0083  0.4079
20193W        W39047   4.398  13.415   4.761  0.0817 -0.0855 -0.0818
20194W        W39048  14.249  10.724  16.097  0.0078  0.0199  0.2279
20195W        W39049  11.265   6.395   3.144  0.1648 -0.0254  0.3907
20196W        W39050  16.518   5.792   5.323 -0.0077  0.0751 -0.1517
20197W        W39051   7.360   3.696   0.731  0.2844 -0.0679 -0.1609
20198W        W39052  10.763  12.390  14.540 -0.0076 -0.0194 -0.3545
20199W        W39053   6.542  13.682   2.729  0.0527  0.0082  0.1170
20200W        W39054   5.267  15.459  15.443 -0.0587 -0.0210 -0.3203
20201W        W39055   3.264   0.962   3.951  0.0078  0.0567 -0.2548
20202W        W39056   4.899  16.478   2.431  0.0088  0.0251  0.0946
20203W        W39057   8.346  13.013   5.048 -0.0024  0.0757 -0.0049
20204W        W39058  13.302   6.577   0.618  0.2533  0.0517  0.2230
20205W        W39059  11.167  15.309   1.976  0.1932 -0.3241 -0.0412
20206W        W39060   8.679   0.030   3.236 -0.0442  0.0719 -0.0012
20207W        W39061   0.857  15.127   0.306 -0.0751 -0.2028 -0.0150
20208W        W39062  14.526  10.898  15.155 -0.2032 -0.1491  0.1116
20209W        W39063   9.903   7.859  14.456  0.0532 -0.0100  0.0659
20210W        W39064  10.529   5.004  14.319 -0.1345  0.1209  0.1088
20211W        W39065   6.672   6.346  15.136 -0.0362  0.1892 -0.1294
20212W        W39066   4.716  13.241  14.782  0.0271  0.4341 -0.1052
20213W        W39067  11.304  16.381  13.857 -0.2835  0.2322  0.1669
20214W        W39068   2.220  10.860  12.076 -0.0962  0.0526  0.1875
20215W        W39069   7.408  12.079  13.326 -0.4548 -0.5287 -0.0281
20216W        W39070  14.982   5.359  16.388  0.1562  0.1888  0.0495
20217W        W39071   7.258   1.144   3.052 -0.1635 -0.0309  0.1154
20218W        W39072   1.285  12.800  14.547  0.2077  0.1149  0.0523
20219W        W39073   3.506   9.624  16.647  0.2790  0.0353  0.2380
20220W        W39074   8.707   6.885  16.311  0.1752  0.0867  0.0244
20221W        W39075  10.474  16.047  12.671  0.2317  0.0641 -0.4281
20222W        W39076   3.667  14.596   3.048 -0.0732 -0.2071  0.1058
20223W        W39077  16.652   3.345  15.353 -0.0776  0.3707  0.3449
20224W        W39078   1.042  17.178   3.794  0.0731  0.2179 -0.2966
20225W        W39079   3.834   9.456   2.912 -0.4045  0.0399  0.0192
20226W        W39080  11.071   6.926  16.291 -0.0660 -0.0764  0.1942
20227W        W39081  11.414   3.244  16.981  0.1938  0.0508  0.1735
20228W        W39082   8.891  15.488   4.651 -0.2007 -0.1644 -0.1303
20229W        W39083  14.900  11.122  14.194 -0.0533  0.1203  0.0404
20230W        W39084  16.691  10.841   2.423  0.1375  0.1293  0.1813
20231W        W39085  16.304   2.829  12.144 -0.1037 -0.0865  0.0693
20232W        W39086   4.099   3.555   4.679  0.0652 -0.0170  0.3286
20233W        W39087  16.947   8.461   2.341 -0.3007 -0.0284 -0.1957
20234W        W39088   7.132  13.092   2.356 -0.0813 -0.2623  0.2051
20235W        W39089   2.167   2.430  13.159  0.1470 -0.1263  0.0114
20236W        W39090  10.206  11.297  14.773  0.2218 -0.1227  0.3396
20237W        W39091  15.182   5.953   2.115  0.0884 -0.1388 -0.0175
20238W        W39092   4.931   9.034  14.772  0.0453 -0.0821 -0.1826
20239W        W39093   2.050   4.515   3.208  0.0995  0.2095  0.1095
20240W        W39094   1.723  11.618   2.841 -0.0281  0.1100  0.0861
20241W        W39095  15.863   7.856   0.424 -0.0832  0.0594 -0.3590
20242W        W39096  13.990   1.662  14.769  0.3127  0.1591 -0.1413
20243W        W39097  10.507  11.493   0.147 -0.4017 -0.2163 -0.1200
20244W        W39098  14.028   1.021  16.760 -0.0687 -0.1439  0.1922
20245W        W39099   1.630   9.672   2.986 -0.3230  0.1551 -0.0540
20246W        W39100   5.800   9.106   1.260  0.1281  0.0464 -0.1129
20247W        W39101  16.964  12.781   3.728  0.1518 -0.1233  0.0331
20248W        W39102   7.166   9.213  15.901  0.0860  0.2097 -0.1147
20249W        W39103  10.658  12.508   2.426  0.2277 -0.2247  0.0114
20250W        W39104  12.279   7.634  12.644  0.4157  0.0924 -0.0653
20251W        W39105   3.831   0.527   2.729  0.2461  0.0210  0.2767
20252W        W39106  10.602   0.376   2.623 -0.0811 -0.1772 -0.2933
20253W        W39107   3.807   6.244  12.962 -0.1400  0.1206 -0.0493
20254W        W39108  11.182   5.976   5.152  0.2632  0.0472 -0.0739
20255W        W39109   4.598  15.416  16.034 -0.0745 -0.1023  0.1668
20256W        W39110   4.562   8.343   0.805 -0.0802 -0.2104  0.2826
20257W        W39111   3.348  13.842   2.802  0.0036 -0.0449 -0.0169
20258W        W39112  11.547   9.234   3.216  0.0055 -0.1578 -0.1760
20259W        W39113   3.308   2.531   3.815  0.0361 -0.1944 -0.4415
20260W        W39114   9.790   7.408  14.167  0.2828 -0.2255 -0.1728
20261W        W39115  15.831   6.383   1.365  0.1351 -0.1426  0.1254
20262W        W39116   6.446  14.734   2.181 -0.0140 -0.0895 -0.1673
20263W        W39117   8.114  12.991  16.153  0.0754 -0.2748  0.0262
20264W        W39118   3.271  12.212  17.014  0.0065  0.0801 -0.4445
20265W        W39119   0.439   5.161   3.375  0.1012  0.1610  0.1724
20266W        W39120  16.699   0.757  16.609  0.1711 -0.1914 -0.1752
20267W        W39121   1.865   6.951   0.917 -0.1165  0.1754 -0.1836
20268W        W39122  11.077   5.484   3.214  0.2314  0.1673 -0.1510
20269W        W39123  11.237  14.286   2.062  0.0685 -0.1490 -0.1577
20270W        W39124   3.625  14.412   1.494  0.0228 -0.0068  0.0370
20271W        W39125   0.179  15.637  13.638 -0.0583  0.1613 -0.0843
20272W        W39126   6.928  15.491  12.402  0.0050 -0.0444  0.0741
20273W        W39127   0.299   0.491  13.882  0.0835  0.0167 -0.0691
20274W        W39128   7.620  12.286  14.180 -0.0111  0.1923  0.1747
20275W        W39129   0.033   3.020  12.275 -0.0262  0.3501  0.2724
20276W        W39130   4.688   0.116   1.607 -0.1561 -0.2874 -0.2022
20277W        W39131   3.626   2.165   3.749  0.1791  0.0773  0.0400
20278W        W39132   3.016   4.450  13.551  0.0358 -0.0019 -0.2017
20279W        W39133  13.376   3.934   3.580 -0.0158 -0.3155  0.1086
20280W        W39134  16.313   4.536   4.182 -0.1150  0.0853 -0.5132
20281W        W39135  11.006  15.603  15.516  0.0340 -0.1636 -0.0725
20282W        W39136  10.772   4.196   3.817  0.2596  0.1715  0.1954
20283W        W39137   4.473   5.485   2.294  0.0726  0.1770  0.0895
20284W        W39138  10.721   1.343  12.589  0.2084  0.1784  0.0412
20285W        W39139  10.516   0.564  13.224  0.3277 -0.2629 -0.2329
20286W        W39140   6.299   4.391   2.388 -0.0572 -0.0310 -0.0247
20287W        W39141   5.687   2.530  12.521  0.3733  0.3586 -0.1288
20288W        W39142   8.066  12.072   0.504  0.1750 -0.0109  0.1033
20289W        W39143  17.301  16.510  17.358  0.2079  0.1078  0.3159
20290W        W39144  11.502   6.366   5.175 -0.1016  0.2155 -0.3732
20291W        W39145   4.047  15.550   5.365 -0.0629  0.2833 -0.1376
20292W        W39146   3.451   3.215   2.815  0.1393  0.0076  0.2258
20293W        W39147  13.591  13.742  12.227 -0.1299  0.0612 -0.0284
20294W        W39148   0.948  12.952  14.876  0.3144  0.2454 -0.0655
20295W        W39149   2.881   3.332  16.150  0.0016 -0.0972 -0.1699
20296W        W39150   1.555   2.869  13.658 -0.1018 -0.3302  0.1871
20297W        W39151   5.688  11.721  12.119  0.0042 -0.1631 -0.0897
20298W        W39152   6.650   5.133  12.937 -0.0147 -0.2471 -0.1600
20299W        W39153  16.015   7.142   1.026  0.3187  0.0596 -0.0237
20300W        W39154   7.740   8.536   3.498 -0.0334  0.1616  0.0039
20301W        W39155   7.373   1.315   4.973  0.0338 -0.3879 -0.1273
20302W        W39156   3.828  16.345  14.224 -0.0057  0.1679 -0.0243
20303W        W39157   4.806   1.450   4.173 -0.2162  0.2355 -0.0424
20304W        W39158   5.212   2.391  13.406 -0.4912  0.1825  0.1324
20305W        W39159   1.307   7.239  14.401  0.2527  0.0559  0.0040
20306W        W39160  12.647   5.555   3.880 -0.1291 -0.0999 -0.0264
20307W        W39161   5.834  11.033  14.094  0.3556  0.2214 -0.0900
20308W        W39162   0.122   1.254  15.340 -0.1174 -0.0410  0.2615
20309W        W39163  13.278   6.002  14.859  0.0610  0.0221 -0.3047
20310W        W39164   9.015   1.850  16.631 -0.0726 -0.1494 -0.0255
20311W        W39165   6.649   7.684   3.096 -0.2459 -0.2021 -0.1581
20312W        W39166   8.311  12.656   1.601 -0.1136 -0.0280  0.2159
20313W        W39167  10.474   2.254   3.001 -0.0667 -0.2808  0.3409
20314W        W39168   0.184  17.291  16.398  0.0709  0.1076 -0.0891
20315W        W39169   5.337  11.230  14.938 -0.2170 -0.0814 -0.1904
20316W        W39170  13.653  14.001  16.359  0.1120  0.1904  0.0264
20317W        W39171  13.111   3.516  15.769  0.0028  0.0446  0.0719
20318W        W39172  13.851  10.370  12.438  0.0595  0.0267 -0.1997
20319W        W39173   4.407  11.019  16.428 -0.0234  0.0466  0.0232
20320W        W39174  15.348   5.311  15.413 -0.1135 -0.1058  0.2036
20321W        W39175  15.413  12.237   3.780  0.3162 -0.0106 -0.1621
20322W        W39176   2.869  15.278  14.652  0.3571  0.2795  0.1408
20323W        W39177   6.371   6.597   1.260  0.2633  0.2659 -0.1953
20324W        W39178  15.612   2.735  16.639  0.0913 -0.2497  0.1469
20325W        W39179  11.975  15.321  13.209 -0.0806  0.3061  0.1498
20326W        W39180   1.731  11.653   0.217 -0.0862 -0.3681 -0.0429
20327W        W39181  10.644   1.354  14.411 -0.2056  0.0585 -0.0674
20328W        W39182   5.345   1.506   2.171  0.2683 -0.4091  0.1627
20329W        W39183   4.126  12.813  12.964 -0.1048  0.1370  0.0374
20330W        W39184  10.788   4.373   2.691  0.0179 -0.1477  0.1275
20331W        W39185  11.375   6.330  17.114  0.0171 -0.0087 -0.0548
20332W        W39186   7.199   7.766  16.176 -0.1650 -0.0113  0.3326
20333W        W39187  10.876  11.908  14.367  0.2451  0.0447  0.3074
20334W        W39188   2.557   8.908   4.964 -0.2071 -0.0549 -0.2356
20335W        W39189   0.807   7.027   1.257  0.4149  0.3404  0.0225
20336W        W39190   2.365  15.630   3.823  0.0451  0.0177  0.1099
20337W        W39191  12.397  11.521   1.139  0.0000  0.0404 -0.0720
20338W        W39192   4.332   7.592   4.288  0.1644 -0.3425  0.1628
20339W        W39193  14.877  13.761  16.772 -0.0070  0.3064  0.1732
20340W        W39194  13.085  11.270   4.508  0.0261  0.2957  0.1411
20341W        W39195   6.813  12.009   0.254  0.0087 -0.0991  0.1010
20342W        W39196  10.272   7.839   4.361  0.0346  0.1710  0.3874
20343W        W39197   2.010  15.040   3.119 -0.0547  0.0008 -0.0365
20344W        W39198   6.939   5.332   1.876 -0.2136 -0.3255 -0.2324
20345W        W39199  13.685   5.630  16.227 -0.0338 -0.0385  0.2099
20346W        W39200   8.813   8.201   1.424  0.3033 -0.3094 -0.1435
20347W        W39201  10.233  10.538   2.482 -0.0638  0.0192 -0.1222
20348W        W39202  14.619   1.207  12.853  0.2420  0.0067  0.0053
20349W        W39203   7.442  17.098  14.009 -0.1400 -0.2652  0.3378
20350W        W39204   9.226   7.411  14.805  0.2485  0.2732  0.0175
20351W        W39205  10.851  11.284   2.913 -0.1105  0.0068  0.0086
20352W        W39206   5.300   3.258   2.306  0.0998 -0.1135 -0.0139
20353W        W39207  12.591   0.893  15.252  0.0582  0.3132 -0.1074
20354W        W39208  14.243  14.963  16.017 -0.2236  0.3493  0.2010
20355W        W39209  11.465   9.380   5.463 -0.0165  0.0998  0.1952
20356W        W39210   5.807  12.505   1.621  0.0011 -0.0368 -0.0933
20357W        W39211   8.927   0.564   1.652  0.1491  0.0832 -0.2452
20358W        W39212   3.357   2.180  14.020  0.1060 -0.1100  0.2752
20359W        W39213  16.290   5.684  12.975  0.2328 -0.2561  0.1752
20360W        W39214  14.390   6.265   1.054  0.1250 -0.1881 -0.2245
20361W        W39215   4.142   6.320   1.156  0.0075  0.0176 -0.0798
20362W        W39216  17.323  15.442  17.199 -0.0260 -0.3280  0.2838
20363W        W39217   5.758  10.852  16.568 -0.0554  0.3507 -0.0107
20364W        W39218   2.455  16.921  12.646 -0.0443 -0.1428  0.1376
20365W        W39219  12.511   5.950  16.671 -0.1396 -0.3817 -0.1873
20366W        W39220  10.331   0.449   0.431  0.0369  0.2417  0.5946
20367W        W39221   2.164   9.389   0.291  0.0380 -0.1417  0.3684
20368W        W39222  10.536   8.552  15.883  0.0305 -0.1326  0.0281
20369W        W39223  17.006   1.222   1.090  0.0002  0.1272 -0.0048
20370W        W39224   3.227  14.349  16.586  0.2125 -0.1820  0.2528
20371W        W39225  10.227   9.044  16.686 -0.4043 -0.1013 -0.0084
20372W        W39226   7.341  16.411   3.984 -0.1693 -0.0297  0.0381
20373W        W39227   9.078   2.101  17.099  0.0958  0.2982 -0.0156
20374W        W39228  12.204  12.188   3.206  0.0608  0.2202 -0.2491
20375W        W39229   3.603  10.784  12.330  0.0148  0.0328  0.2013
20376W        W39230  15.013   7.647  15.449 -0.1994 -0.1299 -0.2772
20377W        W39231   3.946   1.725  15.052  0.0934 -0.2358 -0.2065
20378W        W39232   3.187   9.447  13.142 -0.3973 -0.0170  0.4177
20379W        W39233   0.728  16.396   1.070  0.0598  0.2974 -0.0962
20380W        W39234  10.381   9.109  15.003 -0.1253 -0.5325  0.0885
20381W        W39235   8.846   3.901  16.934 -0.1766 -0.2954 -0.1646
20382W        W39236   0.688   6.270  16.371 -0.3399 -0.1202  0.0721
20383W        W39237  15.110   6.176   4.770  0.0253 -0.2266 -0.1873
20384W        W39238  12.868   6.408   0.358 -0.1127 -0.1930  0.0797
20385W        W39239  13.828  10.717   1.860 -0.3596  0.1438  0.3497
20386W        W39240   8.114   8.260   2.069 -0.3293  0.1203 -0.2709
20387W        W39241   2.316   8.578   0.065 -0.1399 -0.1867  0.0786
20388W        W39242   8.362   8.530   1.447  0.0626  0.0866  0.2865
20389W        W39243   5.684   8.821  14.276 -0.0966  0.0175 -0.5106
20390W        W39244  12.543   7.491   5.205 -0.2353  0.1137  0.0903
20391W        W39245   6.260   7.765   0.219 -0.2130  0.2236 -0.0119
20392W        W39246   0.030   4.448   1.599  0.1368 -0.0364 -0.0042
20393W        W39247   4.646  14.865  17.030  0.0018  0.1444  0.2111
20394W        W39248   9.579  10.454  16.499  0.0001 -0.0024  0.1448
20395W        W39249   7.184   2.539  12.512  0.1115  0.1535 -0.1861
20396W        W39250   4.239  11.563  16.448  0.0032  0.3049  0.0385
20397W        W39251  11.126   8.264  16.494 -0.0681 -0.0489  0.1972
20398W        W39252   7.693   0.337   1.100 -0.4727 -0.1922 -0.2473
20399W        W39253  12.150  16.133  17.277 -0.2575  0.1387  0.0273
20400W        W39254   9.610  14.291   4.289  0.2240  0.3691  0.0487
20401W        W39255   9.712  16.870  15.483 -0.0990  0.4973 -0.2066
20402W        W39256   7.492   0.414   2.326  0.2504 -0.1889 -0.0812
20403W        W39257   4.383  15.535  12.716  0.0991 -0.1835 -0.1497
20404W        W39258  16.570   3.230  14.847  0.0500  0.2061 -0.2248
20405W        W39259  16.774  15.557  16.176 -0.2903  0.0892  0.1303
20406W        W39260  17.038   4.154  14.704  0.3423  0.2164  0.0987
20407W        W39261   4.093  14.528   2.206  0.0674 -0.2649 -0.1451
20408W        W39262   9.636   4.693   4.670  0.0391  0.2285  0.0934
20409W        W39263   0.154   8.885   2.903  0.1589 -0.2964 -0.1814
20410W        W39264   2.348   8.428  14.736  0.1219  0.1465  0.1639
20411W        W39265   5.031  13.724  12.692  0.1589  0.1683 -0.1953
20412W        W39266  10.211   9.061   4.233 -0.2692  0.0420 -0.3777
20413W        W39267  13.025   8.434   1.643  0.0005  0.0797 -0.0717
20414W        W39268   9.766  13.453   3.610  0.2043 -0.1018 -0.1799
20415W        W39269  12.911  12.037  15.760  0.1157  0.1442 -0.0408
20416W        W39270  14.998   0.609   2.693  0.0090  0.0495 -0.1651
20417W        W39271   3.578   4.311   2.264 -0.2913  0.0113 -0.1354
20418W        W39272   8.179  12.339   4.847 -0.1873  0.1528  0.1823
20419W        W39273   7.209   4.820  15.070 -0.1165  0.1441 -0.2444
20420W        W39274   8.314   3.506   5.248  0.0612  0.0454 -0.0378
20421W        W39275  10.742   9.280   1.164  0.0668  0.0707  0.4621
20422W        W39276   2.884  17.164  12.346 -0.2581  0.0609  0.1781
20423W        W39277  10.226   0.154  12.832  0.1118  0.1101  0.0992
20424W        W39278   2.044   5.415   1.811 -0.0643 -0.0001 -0.0933
20425W        W39279  12.585  11.177   4.986 -0.1416  0.2804 -0.1411
20426W        W39280  10.490  13.623   2.746 -0.0453 -0.1469 -0.2058
20427W        W39281  10.517   4.215  17.416  0.0279 -0.0892  0.2327
20428W        W39282  16.993  17.095  15.240  0.0025 -0.1368  0.0345
20429W        W39283  13.012   9.023   2.542  0.1470 -0.2166 -0.1948
20430W        W39284  16.109  16.739   0.427 -0.1081  0.0148  0.0489
20431W        W39285   2.871  11.169   4.515  0.0917  0.1369 -0.3203
20432W        W39286   5.331   2.277   3.424  0.1133  0.1210  0.0807
20433W        W39287   0.613  17.190   1.025  0.1653  0.3645 -0.2368
20434W        W39288  12.930  13.787   1.639  0.0574  0.2045  0.4417
20435W        W39289   0.811   3.383   2.406  0.0192  0.0024 -0.1403
20436W        W39290  11.229  15.417  14.547 -0.1833 -0.0806  0.2100
20437W        W39291  17.154  16.657  13.252  0.0201 -0.2752  0.2704
20438W        W39292   8.057  17.326  13.296 -0.2154 -0.0092 -0.2200
20439W        W39293   3.571  15.474  12.796  0.2392  0.1548  0.1516
20440W        W39294   3.513   0.738   4.599 -0.0976  0.0687  0.2006
20441W        W39295  15.991  11.881   3.499  0.0770  0.0149 -0.1826
20442W        W39296   2.383   8.435  16.273  0.1821  0.2175 -0.1838
20443W        W39297  12.459   7.068   1.032 -0.1409 -0.0730 -0.0451
20444W        W39298   1.057   4.077   2.740  0.0559 -0.0031 -0.1080
20445W        W39299  11.058   9.997   3.730  0.2629 -0.0641 -0.2147
20446W        W39300   5.854   6.496   0.250  0.2434  0.0822 -0.0030
20447W        W39301   4.645   3.367  16.249 -0.1082 -0.0522 -0.2132
20448W        W39302   7.368   1.962   3.765 -0.1063  0.1547  0.1265
20449W        W39303  15.107   5.259   1.694 -0.0484  0.0754 -0.2669
20450W        W39304  14.440  14.072  16.791  0.0829 -0.1503 -0.0490
20451W        W39305   8.503  11.319   0.872 -0.2356 -0.0524 -0.0939
20452W        W39306   7.968  16.012  14.481 -0.1558 -0.0469 -0.0775
20453W        W39307  12.282   7.980  15.137  0.0669  0.0617 -0.1126
20454W        W39308  16.405  11.514   1.877 -0.0124  0.0414  0.0388
20455W        W39309   3.756  11.013  17.427 -0.0842 -0.0683  0.1216
20456W        W39310   8.875   8.561  17.199 -0.0278 -0.4812  0.4171
20457W        W39311  16.103   8.490   3.372  0.0947 -0.1957 -0.1292
20458W        W39312   2.437   2.244   0.280  0.3303  0.2522  0.0820
20459W        W39313   2.436   5.533  16.577 -0.0630  0.2371 -0.0699
20460W        W39314   3.747   1.350   2.217 -0.1323  0.3113 -0.0119
20461W        W39315   7.047  11.388   0.982 -0.0394 -0.0004 -0.0746
20462W        W39316   7.254  14.289   2.820  0.0521 -0.1364 -0.0786
20463W        W39317   2.383   4.592  16.186 -0.0022 -0.1686  0.0888
20464W        W39318   5.286   3.355  15.056  0.0091 -0.0946  0.1741
20465W        W39319   8.165  11.389   2.905 -0.1052  0.0576 -0.1369
20466W        W39320  13.344  16.618   2.249 -0.1438  0.0509  0.0466
20467W        W39321   0.873   4.353   2.123 -0.0199  0.1191 -0.0869
20468W        W39322   2.844  13.186   4.629  0.1763  0.1853  0.4211
20469W        W39323  13.802  11.393  14.725  0.1260  0.1862 -0.0906
20470W        W39324   8.487   5.708  14.142  0.1589 -0.0882  0.3717
20471W        W39325  13.067  11.554  13.327  0.1037  0.0023 -0.1687
20472W        W39326   6.280  15.543  14.133  0.0003 -0.0524 -0.0228
20473W        W39327   0.094  12.012   3.298 -0.1932  0.0067  0.1474
20474W        W39328   1.467   2.177   1.152 -0.0904 -0.1257  0.0179
20475W        W39329  11.191   1.910  12.796  0.0487  0.0636  0.1897
20476W        W39330   8.749  10.567  16.171  0.4191  0.0488  0.1674
20477W        W39331   0.997  11.516   5.336  0.0289  0.1291  0.1591
20478W        W39332   6.281  11.394   4.082  0.2368  0.1245 -0.2075
20479W        W39333  12.640  10.556  13.903  0.0437  0.2965 -0.0334
20480W        W39334  16.526   2.357  14.224 -0.0841 -0.0345  0.1362
20481W        W39335   1.627  14.966   4.630 -0.0545  0.0010  0.0845
20482W        W39336   6.381   2.116  15.859 -0.1378  0.1329  0.1770
20483W        W39337  14.965   5.495   3.662  0.0347  0.0296 -0.3131
20484W        W39338  14.355   3.164   0.687  0.2604  0.2029  0.1625
20485W        W39339  10.584   1.400  13.111  0.3910 -0.0597 -0.2908
20486W        W39340   1.572   3.125  16.969  0.3809  0.0593  0.1352
20487W        W39341   6.398   5.811  12.513 -0.1765 -0.1086 -0.0039
20488W        W39342   7.635  15.290   0.226 -0.0771 -0.0069  0.0678
20489W        W39343  12.772  14.151   4.595  0.0504 -0.0216  0.2396
20490W        W39344   7.095  14.075  12.414 -0.3096  0.0445  0.1373
20491W        W39345   5.165  11.294  16.257 -0.2625 -0.0260  0.0354
20492W        W39346  12.995  16.717   0.592 -0.1983  0.0938  0.1117
20493W        W39347  15.008  15.979  13.336 -0.0274 -0.0201 -0.0609
20494W        W39348   7.320  12.579  17.030  0.0382  0.1459  0.0602
20495W        W39349  12.561  13.340   4.168 -0.3763  0.2688 -0.2381
20496W        W39350  13.216  16.791  11.848  0.2201 -0.0567  0.0842
20497W        W39351   0.995  14.041  16.995 -0.0030  0.1593  0.1533
20498W        W39352   5.725   9.377  15.122 -0.2047 -0.2043  0.0533
20499W        W39353   9.241  16.394  13.702 -0.1138  0.1963 -0.2245
20500W        W39354  13.625  14.286   1.018 -0.1177  0.0144 -0.3322
20501W        W39355   3.764   8.825  12.206  0.4121  0.0973  0.0834
20502W        W39356   5.085   5.946   1.324 -0.0478 -0.1664 -0.2010
20503W        W39357   1.620  15.000   4.069 -0.2032 -0.0284 -0.1309
20504W        W39358  15.846   2.877  12.978  0.0250  0.0775 -0.0327
20505W        W39359  15.249  13.850   4.316 -0.0475 -0.1142 -0.0888
20506W        W39360   2.259  11.504  15.046  0.1083 -0.1249 -0.0709
20507W        W39361   0.093  14.454  13.472  0.1893  0.2599 -0.0495
20508W        W39362   8.364  14.468   2.708  0.3114 -0.0990 -0.0506
20509W        W39363  10.695  12.080   0.889  0.0130 -0.0131  0.2033
20510W        W39364   3.833   0.042   5.439  0.1001 -0.0607  0.0302
20511W        W39365   0.960  11.072   1.317 -0.0741  0.1859  0.2345
20512W        W39366   7.512   6.151   1.691  0.3602  0.1767  0.1829
20513W        W39367   4.211  16.531  16.284 -0.3246  0.1784 -0.0528
20514W        W39368   4.571  14.680   4.887  0.1520 -0.0521 -0.0642
20515W        W39369   8.677   3.597   5.766  0.0913 -0.1204  0.2106
20516W        W39370   3.583  15.042   2.848  0.1978 -0.0870 -0.0732
20517W        W39371  11.930  13.941   0.378  0.2993  0.0202 -0.1715
20518W        W39372  10.176  14.261  16.477 -0.0299 -0.3007 -0.2794
20519W        W39373   5.988  17.188   4.259 -0.3753  0.1165  0.0556
20520W        W39374   8.292  13.132   4.276  0.2057  0.1622  0.2186
20521W        W39375   9.695   8.811   3.709 -0.1626 -0.0466  0.3448
20522W        W39376  16.891   9.264  15.339 -0.0484  0.0299 -0.1313
20523W        W39377  11.252  12.973  12.698 -0.1997 -0.1668 -0.2280
20524W        W39378   8.077   3.248   4.865  0.0878  0.0469 -0.0102
20525W        W39379   3.913  12.230   3.579  0.0248  0.1088 -0.1012
20526W        W39380  14.309  13.245   6.250 -0.2339 -0.2490 -0.2794
20527W        W39381   4.381   2.227  12.879 -0.0670 -0.0100  0.0114
20528W        W39382   9.769   7.646  13.026 -0.1508 -0.1106  0.2240
20529W        W39383  16.422  11.558   3.362 -0.2826  0.1467  0.1174
20530W        W39384   7.748   8.068  15.465 -0.0099  0.0433 -0.1332
20531W        W39385  13.686  11.785  16.554 -0.1872 -0.2523  0.1377
20532W        W39386   8.558   4.221   2.849 -0.4759 -0.0676  0.0297
20533W        W39387   0.046  10.243  13.934 -0.0930 -0.2356 -0.1616
20534W        W39388   1.964  11.128   4.028  0.0386  0.0056 -0.0777
20535W        W39389   8.513  12.144  14.666 -0.2911  0.0867 -0.2193
20536W        W39390   1.199  14.754   1.998 -0.0551 -0.0584 -0.1281
20537W        W39391  15.843   0.031  17.172 -0.2402  0.3568  0.2109
20538W        W39392  11.357  14.817  15.950 -0.1018 -0.3276 -0.1197
20539W        W39393  16.162  11.628  13.383  0.0039  0.0448  0.0676
20540W        W39394   2.099  13.204  14.128  0.1009  0.1626  0.1526
20541W        W39395  14.055   7.141  15.393 -0.3324  0.0550  0.0582
20542W        W39396  15.336   5.674   1.769 -0.1950  0.0991 -0.0798
20543W        W39397   2.727   6.782   1.939  0.1573 -0.5007  0.1788
20544W        W39398   1.129   0.352   2.080  0.1512  0.1716 -0.1471
20545W        W39399   8.992  14.778   1.359 -0.0030  0.2830 -0.0191
20546W        W39400  15.817   5.736  16.682  0.3887 -0.0505 -0.0177
20547W        W39401  10.223  12.215   1.083 -0.1870  0.1825  0.0924
20548W        W39402  13.792   2.366   4.215  0.0172  0.2787  0.2027
20549W        W39403   1.881  10.249   4.928 -0.1573  0.0575 -0.1485
20550W        W39404  14.424   7.955  16.331 -0.1255  0.5919 -0.0686
20551W        W39405  14.881  10.036   2.878  0.3582 -0.0657  0.1427
20552W        W39406  11.638   6.948   4.868  0.3537 -0.1212  0.0152
20553W        W39407  17.155   9.973   0.938  0.0355 -0.0809 -0.2852
20554W        W39408   6.435   4.682   2.838 -0.0124  0.1554  0.0141
20555W        W39409   1.524   0.239   4.166 -0.0455  0.1893 -0.0743
20556W        W39410   7.940  13.444   4.197 -0.0983 -0.1183 -0.2434
20557W        W39411   6.983   7.231  13.052  0.0607  0.0188  0.3005
20558W        W39412  10.731  15.831   3.682  0.1546 -0.0283  0.1470
20559W        W39413  12.023   9.150   3.029  0.1356  0.1504  0.0837
20560W        W39414  12.731  13.153   1.713  0.3111  0.1415 -0.1791
20561W        W39415   1.798  12.112  12.698 -0.0531  0.1012  0.0996
20562W        W39416  17.003   9.245  12.626 -0.0924  0.1008 -0.0079
20563W        W39417   5.818  10.213   0.318 -0.1453 -0.0746  0.0308
20564W        W39418   0.086   6.749  14.807 -0.1570  0.2221 -0.0161
20565W        W39419  13.942   4.818   2.443 -0.0452  0.3479  0.0645
20566W        W39420   1.898   7.322   1.683  0.2036 -0.1152  0.0115
20567W        W39421  10.065  16.117  16.220 -0.1262 -0.0695 -0.0540
20568W        W39422   4.845   1.250   2.362  0.2499 -0.1718  0.2054
20569W        W39423   5.625  16.723   6.367 -0.0496 -0.1215  0.0256
20570W        W39424  12.504  10.947  17.359 -0.1105  0.0369 -0.2321
20571W        W39425   5.201   5.619  14.155 -0.1488 -0.0109  0.0414
20572W        W39426  10.172   6.382   2.087  0.0082  0.2204  0.0843
20573W        W39427   7.474  11.661  15.983  0.1132 -0.1128 -0.1005
20574W        W39428   6.252   6.684  13.192 -0.1010 -0.1209  0.1505
20575W        W39429  12.571   0.484  16.192  0.0445  0.1694  0.1517
20576W        W39430  10.927  17.090  15.347 -0.0600 -0.1471 -0.0563
20577W        W39431  10.645   8.283   1.404  0.1674 -0.2425 -0.1002
20578W        W39432   6.533  14.842  16.710  0.2681  0.1295 -0.0323
20579W        W39433   2.808   8.353   0.039  0.4443 -0.1439  0.0540
20580W        W39434   6.773   6.228   1.513 -0.0901  0.0478  0.3349
20581W        W39435   8.565   3.367  15.197  0.2736  0.2289 -0.1076
20582W        W39436  13.435   9.299  13.350 -0.0943 -0.2223 -0.0291
20583W        W39437   1.116   1.190  15.555 -0.0455 -0.1091  0.2939
20584W        W39438  13.119  16.214  17.291  0.3116  0.0036 -0.0914
20585W        W39439   2.675   8.002   5.182 -0.0712  0.2732  0.0452
20586W        W39440   6.691   0.416  12.962 -0.2376 -0.2425 -0.1283
20587W        W39441  11.604   6.888  17.256 -0.6644 -0.0036  0.0412
20588W        W39442   3.911   9.174  15.777 -0.1532  0.0465  0.1968
20589W        W39443   2.931   6.699  14.465 -0.2854  0.0884 -0.3093
20590W        W39444   7.875  14.308   4.682  0.3220  0.2498 -0.1128
20591W        W39445   6.195   3.810  17.153 -0.0056  0.0828  0.1376
20592W        W39446  14.277   3.382   5.138  0.1691  0.5547  0.2262
20593W        W39447  14.678  11.667   3.708  0.1321 -0.0605 -0.0296
20594W        W39448   1.252  16.194  15.423 -0.2323 -0.0030 -0.0397
20595W        W39449   7.233   7.296   3.294 -0.0840  0.1481 -0.2011
20596W        W39450  15.295   6.339  12.647  0.0620 -0.3064 -0.0573
20597W        W39451   6.259  15.177   2.679  0.1401  0.0362  0.2742
20598W        W39452  14.347   7.505   5.341 -0.2149  0.0506 -0.0563
20599W        W39453   6.034   6.311  17.224  0.1240 -0.0006 -0.2041
20600W        W39454   1.079   6.080   5.199  0.1722  0.4194  0.0695
20601W        W39455   1.739   0.648   4.138  0.0101 -0.0495 -0.2289
20602W        W39456  12.473   1.128  14.652  0.1265 -0.0359 -0.1851
20603W        W39457   6.103  15.848   1.926  0.1615 -0.1769 -0.0965
20604W        W39458   1.492  16.956   1.585  0.1459 -0.1550 -0.0974
20605W        W39459  11.329   3.156  12.941  0.2383 -0.1669 -0.1174
20606W        W39460   2.191   2.731  14.800  0.1470  0.0793 -0.0298
20607W        W39461  14.088   8.310   1.630 -0.0368 -0.2842  0.2084
20608W        W39462  12.667   6.034  15.587  0.2795 -0.2166 -0.2244
20609W        W39463  10.259  11.870   1.702  0.0801  0.0748 -0.1642
20610W        W39464   1.426   5.856  15.338  0.1422  0.0142  0.0039
20611W        W39465  11.296   8.894  16.031  0.0093 -0.2240  0.2082
20612W        W39466  11.340  12.728   4.810 -0.0374  0.1802 -0.1595
20613W        W39467   5.426   5.912   4.771 -0.2099 -0.0582  0.0020
20614W        W39468   6.564   1.454   5.058  0.1373 -0.2077  0.3922
20615W        W39469  12.797   9.312  13.318 -0.1148  0.0622 -0.0910
20616W        W39470  17.180  13.021   3.332 -0.4398  0.0282 -0.0181
20617W        W39471   7.450   8.136  13.372 -0.1465 -0.1529 -0.0547
20618W        W39472   9.597   1.449  14.352  0.0139  0.0745 -0.0667
20619W        W39473  17.209   5.302  12.774 -0.3076  0.1269 -0.1266
20620W        W39474  16.287  13.144  13.315  0.2207 -0.0067 -0.0564
20621W        W39475   4.482  10.795  14.793  0.0940  0.2483  0.4721
20622W        W39476  15.552   9.844  15.375  0.1769  0.0136 -0.0690
20623W        W39477   8.122  10.450  15.163 -0.0162 -0.1505 -0.0053
20624W        W39478  12.492   9.210  15.862 -0.1404  0.1878  0.2045
20625W        W39479   0.394   0.642  11.465 -0.2377  0.0373  0.0302
20626W        W39480   7.668   0.602  16.865  0.0465 -0.1217  0.1808
20627W        W39481   8.519   5.099  14.961 -0.3564 -0.0120  0.1820
20628W        W39482   7.508   3.429   1.133 -0.2547  0.0933 -0.0378
20629W        W39483   1.818   3.090  13.136 -0.0198 -0.1680 -0.0450
20630W        W39484  12.638   1.378  14.236 -0.0631  0.3284  0.4171
20631W        W39485   9.400   2.714  15.577  0.0384 -0.0072  0.0127
20632W        W39486   3.628  11.333  15.188  0.0446 -0.0912  0.0738
20633W        W39487   2.368  11.259   4.400 -0.2345 -0.0336 -0.1790
20634W        W39488   9.758  12.098  15.435 -0.1019 -0.0653  0.1671
20635W        W39489   7.416  14.909   4.355 -0.2767  0.1165 -0.0161
20636W        W39490  17.318   8.392  17.037 -0.1119 -0.3000  0.0717
20637W        W39491   1.976   4.361  16.420 -0.0871  0.0741  0.2900
20638W        W39492   7.115  15.917  17.279 -0.1176 -0.1003  0.0032
20639W        W39493   7.941  12.257  16.326  0.0412  0.2917 -0.0615
20640W        W39494   7.541   7.808  13.918  0.1258 -0.1101 -0.1435
20641W        W39495   0.803   0.519   0.815 -0.2146 -0.2503 -0.0257
20642W        W39496  12.706   2.111  16.102 -0.2495 -0.1978 -0.1846
20643W        W39497   0.732  13.297   3.347 -0.1036  0.1100 -0.1138
20644W        W39498  14.711   5.110   2.408  0.1357  0.1641 -0.1777
20645W        W39499   1.379   7.834  14.817  0.0300  0.2965  0.1244
20646W        W39500   7.607  14.227  12.972 -0.0478 -0.1853  0.0233
20647W        W39501   7.945  15.808  16.781  0.0325  0.0798  0.1971
20648W        W39502   4.599   5.365  14.418 -0.0215  0.1167  0.1039
20649W        W39503   2.692   3.424   4.631 -0.0093 -0.1755 -0.1124
20650W        W39504   5.263   3.886   2.429  0.0312  0.1395  0.2368
20651W        W39505  11.351  14.117  15.139  0.2072 -0.1331  0.1220
20652W        W39506   8.594  11.514   5.178 -0.3139  0.1077  0.2061
20653W        W39507   1.686  16.472  17.309  0.0016  0.0528  0.1030
20654W        W39508  14.508   8.201  13.308 -0.1434 -0.1854  0.2710
20655W        W39509  12.264  15.800   4.315 -0.4525 -0.1368 -0.0698
20656W        W39510   9.608   5.469  13.320  0.1828  0.1324 -0.1895
20657W        W39511  13.910   7.953  12.522  0.0364 -0.1719  0.2268
20658W        W39512   1.320   2.720   4.723  0.0549 -0.4798 -0.0453
20659W        W39513   2.699   1.660  15.833 -0.1372  0.2379 -0.0529
20660W        W39514   8.213   8.604   2.406  0.1559 -0.3089 -0.1103
20661W        W39515  12.627   8.359  15.316 -0.1193 -0.0938  0.2321
20662W        W39516  15.921   9.919   4.571  0.3857 -0.0185 -0.1476
20663W        W39517  15.327   4.489  14.386 -0.0014  0.1394  0.1453
20664W        W39518   5.296  17.160  16.029  0.2060 -0.0374 -0.1617
20665W        W39519   8.885  11.274   4.750 -0.0666  0.1296  0.1791
20666W        W39520   8.626  12.751  15.917  0.1987 -0.0332  0.1805
20667W        W39521  11.790  11.741   4.134 -0.0669 -0.2412  0.0059
20668W        W39522   4.456  15.154   0.489 -0.1655 -0.4745 -0.0652
20669W        W39523   7.537   1.164   3.462 -0.0169 -0.0157  0.2841
20670W        W39524  11.826  14.694   2.618  0.1008  0.0072 -0.2952
20671W        W39525  14.567   5.258   4.364  0.1118 -0.2452  0.2687
20672W        W39526   0.769  16.147  16.283  0.0113  0.1213 -0.2807
20673W        W39527  17.194   8.521   4.305 -0.2135 -0.0866 -0.1122
20674W        W39528   6.962   5.666  17.292  0.1674 -0.4616 -0.1064
20675W        W39529   5.017   1.768  13.293 -0.2428  0.1978 -0.1936
20676W        W39530  14.747   3.180   2.875  0.1486  0.1500 -0.1432
20677W        W39531  13.269   8.540  12.859  0.0552  0.2195 -0.2423
20678W        W39532   8.570   8.685   2.876  0.0342  0.2955 -0.0031
20679W        W39533  12.807   2.723   3.603  0.1300 -0.1742  0.1826
20680W        W39534   0.999   4.216  12.568 -0.0335 -0.1687  0.1021
20681W        W39535   9.215   2.468  17.436 -0.0286 -0.1102  0.2119
20682W        W39536   8.873   9.903   5.286  0.2191  0.0752 -0.0103
20683W        W39537   7.502  11.300   3.448 -0.1203 -0.2283 -0.1634
20684W        W39538  13.098  16.930  14.874  0.0603  0.0554  0.0757
20685W        W39539   5.438  16.413   5.410 -0.0746  0.1678  0.1727
20686W        W39540  15.896   9.559   1.210  0.0907  0.0798 -0.0242
20687W        W39541   9.888   2.670  13.667 -0.2625  0.2566  0.0751
20688W        W39542  12.639  10.605  14.871  0.1782 -0.0161  0.0229
20689W        W39543   1.494   5.715   4.743  0.0700  0.1380 -0.2928
20690W        W39544   4.995   6.911  12.997 -0.0711 -0.0828 -0.0073
20691W        W39545   4.423  10.381   5.208 -0.3494 -0.2269 -0.3187
20692W        W39546   2.225   9.395  14.598 -0.0591  0.0507  0.2863
20693W        W39547  13.837   0.288   2.770  0.1356 -0.0992 -0.1561
20694W        W39548   4.558  17.239  16.768 -0.1617  0.1431 -0.0730
20695W        W39549   5.098   1.650   3.080 -0.1343  0.0019 -0.0655
20696W        W39550   8.594   2.779   6.286 -0.1024  0.0195 -0.2183
20697W        W39551  14.513  10.479   5.361 -0.0914  0.0330 -0.1374
20698W        W39552   6.633  10.048   4.077 -0.3397  0.0329 -0.1180
20699W        W39553   0.989   0.612   4.797  0.2787  0.0636  0.0027
20700W        W39554   5.975   5.266   0.811 -0.1905 -0.0468  0.4497
20701W        W39555  17.288   6.281   3.788  0.1976  0.1222  0.2004
20702W        W39556  16.686   1.455   2.614  0.0466 -0.1423  0.0481
20703W        W39557   2.900   4.657  14.472  0.0476  0.0245  0.1469
20704W        W39558  14.782  15.127  12.641  0.0772  0.0143  0.0237
20705W        W39559   0.315  10.182  17.353  0.2834  0.1021 -0.3726
20706W        W39560   6.898   9.586  15.625 -0.0154 -0.3318  0.1937
20707W        W39561   8.384  16.066   5.944 -0.0804  0.2557 -0.2073
20708W        W39562  15.558  11.397   2.538  0.2094  0.0485  0.1101
20709W        W39563   2.012  12.363  11.622 -0.1068  0.0167 -0.1698
20710W        W39564  16.537  12.916  17.277 -0.0577 -0.0055  0.0470
20711W        W39565  12.710  15.856  12.092 -0.3730 -0.3471 -0.1573
20712W        W39566   8.495  14.134   0.813 -0.0108  0.0688  0.0593
20713W        W39567   8.560   8.731  16.778  0.3595 -0.1722  0.0331
20714W        W39568  11.822  11.926   0.183 -0.2053 -0.4394  0.2434
20715W        W39569   1.677   4.641   4.425 -0.1876  0.2091 -0.3432
20716W        W39570   0.964   6.298  12.720 -0.2732  0.3893  0.1070
20717W        W39571   2.767   9.751  16.267 -0.0764 -0.3768 -0.0604
20718W        W39572   7.192  12.590   2.084 -0.1992  0.0740  0.0593
20719W        W39573   5.127   5.422   4.888  0.1325 -0.0221 -0.4334
20720W        W39574  13.378  10.646   0.562  0.0558  0.1486 -0.0025
20721W        W39575   3.704   3.514  13.873  0.0395 -0.0460 -0.1509
20722W        W39576   1.707  12.783  15.946  0.0530  0.1087  0.1064
20723W        W39577  12.623   1.472  13.735  0.0641  0.0174  0.1340
20724W        W39578  12.713   0.550  14.841 -0.3682  0.1889  0.0139
20725W        W39579   5.109  13.051   2.431  0.0341  0.0683 -0.0342
20726W        W39580  13.887  11.035  17.122 -0.1570  0.1285  0.0481
20727W        W39581  14.633  11.225   3.437 -0.0090 -0.1860  0.0567
20728W        W39582   4.372   9.756  16.025 -0.0924 -0.0622 -0.1582
20729W        W39583   1.437  16.450  12.659 -0.1028 -0.2690  0.0621
20730W        W39584  12.165   0.736  15.518  0.2032  0.0277  0.2081
20731W        W39585   4.330  11.746  15.947  0.0660  0.0726 -0.1619
20732W        W39586   6.101   7.947  12.669  0.0918 -0.1296  0.3293
20733W        W39587  14.276  11.290  14.689  0.2367 -0.1047 -0.2529
20734W        W39588   8.925   6.172  16.854  0.0140 -0.0915 -0.0034
20735W        W39589   6.516   8.275   4.458 -0.0798 -0.1665  0.0052
20736W        W39590   1.091   0.317   1.540  0.0465  0.3782  0.0198
20737W        W39591  15.192   9.694   4.893  0.3359 -0.2250  0.0403
20738W        W39592  14.002   4.728  12.853 -0.4104 -0.0394  0.0326
20739W        W39593   2.236   2.576   4.612  0.2028  0.0368 -0.2440
20740W        W39594   5.268   8.242   1.105  0.0193 -0.1955  0.3580
20741W        W39595  11.918   6.115   0.446  0.1290 -0.1426 -0.1089
20742W        W39596   7.460   3.847   1.968  0.1213 -0.0211 -0.0950
20743W        W39597   4.688  14.030  15.585 -0.1668 -0.3130  0.2099
20744W        W39598   9.663  17.206  14.273 -0.3213  0.1194  0.7633
20745W        W39599  11.219  12.411   0.973 -0.2085  0.0416 -0.1340
20746W        W39600  11.649   1.670  14.647  0.2063 -0.1150 -0.0458
20747W        W39601  13.205  12.767   5.173  0.1333  0.1631 -0.0303
20748W        W39602   0.510   2.827  12.470  0.1492 -0.2741  0.1838
20749W        W39603   5.633  13.159   2.358 -0.1924  0.3368 -0.1969
20750W        W39604   1.955   4.144   4.729  0.0982 -0.2250 -0.1369
20751W        W39605  14.492   8.067   1.583  0.1779 -0.2055 -0.1413
20752W        W39606   4.812   0.396  14.841  0.3749 -0.1491 -0.3085
20753W        W39607   5.552  13.619  14.200 -0.0643  0.1251  0.0038
20754W        W39608   0.504   0.927   3.093 -0.2338  0.1975  0.0004
20755W        W39609  11.664  12.440   3.467 -0.2985 -0.1119 -0.0114
20756W        W39610   0.091   9.027  16.029 -0.1259  0.2354 -0.0918
20757W        W39611  10.700   3.923   1.344 -0.0709 -0.1208  0.1129
20758W        W39612  10.068   6.297   1.598  0.1275  0.3119  0.2899
20759W        W39613   2.120  16.989   0.770 -0.1819  0.1325 -0.0324
20760W        W39614   4.591   6.802  16.458  0.4579 -0.2560  0.0877
20761W        W39615   7.241   0.220   0.259  0.0042 -0.1577 -0.1013
20762W        W39616   2.638  12.975  15.810  0.2271 -0.2587  0.0404
20763W        W39617  15.463  12.147  16.659 -0.1946 -0.0241 -0.0904
20764W        W39618  10.097   9.736  15.463  0.0288 -0.5776  0.0845
20765W        W39619  10.758  16.534  16.216  0.0839  0.2167 -0.3036
20766W        W39620  14.446   5.582   4.801 -0.1855  0.0556  0.3522
20767W        W39621   7.537   6.581   0.897 -0.1235 -0.0403  0.2365
20768W        W39622   8.976  12.548   1.604 -0.0129  0.0784  0.0034
20769W        W39623   0.080   2.057   4.647 -0.2322  0.1034  0.0669
20770W        W39624   7.711  15.007  16.189  0.1433  0.3735  0.4222
20771W        W39625   2.558  12.926   2.779 -0.0914  0.0267  0.2531
20772W        W39626   9.607   8.860  16.979  0.0486 -0.1504 -0.0402
20773W        W39627   6.734  16.837   2.682  0.1174  0.1967  0.1850
20774W        W39628   9.518   1.309   5.386  0.2389  0.2955 -0.0211
20775W        W39629   9.835  10.680  13.157  0.0111  0.2707  0.3460
20776W        W39630   4.512  13.601  17.336  0.1348 -0.1771  0.1538
20777W        W39631  10.521  10.947  12.406 -0.0171 -0.2747 -0.1254
20778W        W39632   4.537  13.600  15.879 -0.5010 -0.0089  0.2987
20779W        W39633  12.310   5.408  16.799  0.0939  0.1606  0.1262
20780W        W39634  13.916   1.286  14.413 -0.2282  0.3742  0.1239
20781W        W39635  13.921  13.529   6.148 -0.3105  0.0403 -0.2113
20782W        W39636   4.194  10.861   1.612 -0.1706  0.2805 -0.2167
20783W        W39637   4.720  13.668  15.146  0.1229 -0.0292 -0.1566
20784W        W39638  15.162   4.238   3.505 -0.0632  0.2190  0.0703
20785W        W39639  10.158   7.242   3.239  0.0032 -0.1428  0.1116
20786W        W39640  14.383   2.219  12.484 -0.1708 -0.0161  0.1117
20787W        W39641   2.369  14.285  17.002  0.4398  0.0177 -0.1270
20788W        W39642  12.424  13.956  14.856 -0.0687  0.1573  0.4620
20789W        W39643  11.215   8.399  14.668 -0.0246 -0.0976 -0.1077
20790W        W39644  16.268   6.486   2.319 -0.2095 -0.3117  0.2075
20791W        W39645   9.748  16.715   4.938  0.2330  0.0656 -0.2908
20792W        W39646  13.083   9.041  15.248  0.1402  0.1139 -0.3175
20793W        W39647   2.052  12.381  15.914 -0.0518  0.0094  0.1545
20794W        W39648   5.819  16.399   0.261  0.0369 -0.1976 -0.1185
20795W        W39649   9.226  11.866  16.163 -0.0397 -0.0974  0.1367
20796W        W39650   7.977   8.431   5.305  0.0148  0.0011 -0.2900
20797W        W39651  15.200   6.774   4.906 -0.0235 -0.1787 -0.0505
20798W        W39652   8.947  14.794  15.671  0.1180 -0.2683  0.1501
20799W        W39653   4.770   6.404   1.909  0.0961  0.0244  0.0441
20800W        W39654  14.398  16.972  14.876 -0.3656 -0.0042  0.0337
20801W        W39655   9.011  13.534  16.382  0.0404  0.0635 -0.0899
20802W        W39656   5.171  14.928  16.936 -0.1607  0.3391  0.4471
20803W        W39657   0.708   8.488  13.795  0.1047  0.1667 -0.1343
20804W        W39658   2.748   8.154   0.497 -0.0728  0.3328 -0.1371
20805W        W39659   5.755   3.815   2.678  0.0380  0.1689  0.0786
20806W        W39660  11.517   8.755  15.531 -0.0764 -0.0387 -0.3169
20807W        W39661  17.292   9.069  13.711 -0.0454 -0.0840  0.1942
20808W        W39662  10.419  15.311   2.484 -0.0404 -0.1242 -0.2174
20809W        W39663   9.678  17.234   5.067  0.1724 -0.1891  0.0387
20810W        W39664   1.717   2.766   3.419  0.0074 -0.0236 -0.3834
20811W        W39665  12.183   7.415   0.662 -0.2538  0.0376 -0.4151
20812W        W39666   1.974  15.906   0.644  0.1808 -0.1218 -0.1521
20813W        W39667   7.261   6.782   5.429 -0.0876 -0.0449  0.1806
20814W        W39668   2.626  10.143  15.920 -0.1986 -0.1341  0.1742
20815W        W39669  13.413   8.971   1.735 -0.2764  0.0583 -0.0008
20816W        W39670   7.412   4.113   1.528 -0.0071 -0.1822 -0.1157
20817W        W39671  16.830   0.575   2.936 -0.0708  0.1146 -0.0650
20818W        W39672  17.275   0.108  17.177  0.0752  0.0362  0.0029
20819W        W39673  10.411   7.457   3.948 -0.1118  0.3145  0.0778
20820W        W39674  10.608  13.141   1.936  0.4323  0.2737 -0.0331
20821W        W39675  16.129   7.868  12.572  0.2480  0.0874 -0.0948
20822W        W39676  14.392  13.596   1.218  0.0052  0.1699  0.3804
20823W        W39677   3.290  14.258  14.643  0.0649 -0.0372  0.1915
20824W        W39678   8.565  12.827   2.675 -0.2741  0.3156 -0.3939
20825W        W39679   0.845   4.740  12.394  0.2427  0.1445  0.1648
20826W        W39680   0.127   4.277   2.495 -0.0190  0.2838  0.0586
20827W        W39681  13.171   0.969  16.686  0.0604 -0.1233  0.1197
20828W        W39682   7.463   8.486   1.302  0.0232  0.2252 -0.0929
20829W        W39683   4.488   8.938  14.614  0.0543 -0.0667  0.0920
20830W        W39684   0.620  10.162   0.531  0.1222 -0.1131 -0.0483
20831W        W39685   3.663  14.697  14.671  0.3236 -0.1799  0.0730
20832W        W39686  10.944   1.697   3.688  0.1746  0.1352 -0.4732
20833W        W39687   3.956   5.786  15.951 -0.0507  0.1546 -0.0078
20834W        W39688   5.752   5.833   2.993  0.1242  0.0742  0.0241
20835W        W39689  11.365   1.244   2.703 -0.0381 -0.1035  0.0260
20836W        W39690   5.186   6.410   1.598 -0.1863 -0.1332 -0.1209
20837W        W39691   0.891   9.963  12.742  0.0915  0.1359 -0.0527
20838W        W39692   2.798   1.937   3.212 -0.2076 -0.0204  0.1263
20839W        W39693   5.698   5.179   3.588 -0.2408 -0.1282  0.0219
20840W        W39694   2.990  16.139  15.181 -0.2894 -0.2109 -0.2357
20841W        W39695   9.148  12.194   2.968  0.1363 -0.0072  0.2182
20842W        W39696   6.236   1.181  13.199 -0.0463  0.3053  0.1448
20843W        W39697   9.531  11.209  13.238 -0.1867  0.0463  0.1497
20844W        W39698   6.933  14.296  15.561  0.3829  0.0906  0.1531
20845W        W39699  15.387   7.504  15.154 -0.1875 -0.0055  0.0215
20846W        W39700   0.266   6.502   5.256 -0.0976 -0.0244 -0.2758
20847W        W39701  14.089  11.067  15.726 -0.0838  0.0949  0.4173
20848W        W39702  13.197   3.306   4.323  0.2753  0.2494  0.0814
20849W        W39703   4.649  10.603   4.383 -0.1537  0.0470  0.0602
20850W        W39704   2.115  16.778  13.149  0.0792  0.0899 -0.2468
20851W        W39705   3.340  11.153   4.066 -0.2896  0.0764 -0.2375
20852W        W39706   0.802   5.084   0.731  0.2309  0.1251  0.1264
20853W        W39707  10.303   1.992   4.260 -0.0201 -0.1094 -0.1826
20854W        W39708   4.339  15.007  14.189  0.1498 -0.2767  0.2357
20855W        W39709  11.240  11.025  15.850  0.0156  0.0933  0.1454
20856W        W39710   0.957   5.917  16.619 -0.0440 -0.0844  0.1466
20857W        W39711  15.991   3.592  17.125 -0.0136  0.0675  0.2767
20858W        W39712  12.508   3.417  15.548 -0.1551  0.2666 -0.0923
20859W        W39713  17.290  15.382  14.176 -0.1680 -0.1257  0.1069
20860W        W39714  13.556   7.342  14.059 -0.0041 -0.0188 -0.0145
20861W        W39715   1.429  16.866   2.723  0.0103 -0.0028  0.3087
20862W        W39716  16.392  11.226  13.732  0.0797  0.0321  0.0770
20863W        W39717   7.361  10.177  12.680 -0.1552 -0.0851  0.0633
20864W        W39718   8.528  11.100  12.215  0.1332 -0.1188 -0.4864
20865W        W39719   2.647   0.054  14.082 -0.0881  0.1173  0.1740
20866W        W39720  14.405   7.411  13.729 -0.1808 -0.0921  0.2307
20867W        W39721  14.507  12.433  15.118 -0.0883  0.3852 -0.3173
20868W        W39722   8.252   3.536  14.817  0.1077  0.0249 -0.2880
20869W        W39723  15.266   3.118   2.711  0.1042 -0.0281 -0.1663
20870W        W39724   7.803  15.885  15.396  0.0763  0.1012 -0.4639
20871W        W39725   9.491  15.066   2.027  0.0287 -0.1369  0.1323
20872W        W39726   8.790   7.810  16.093 -0.0746 -0.2745  0.0823
20873W        W39727  10.713   4.077   4.745  0.1087  0.0895 -0.1205
20874W        W39728  12.506   1.671  14.694  0.0832  0.0004  0.0192
20875W        W39729  12.599   7.922   4.961  0.0410  0.1046 -0.1546
20876W        W39730  13.452   5.357   5.143  0.2270 -0.0444  0.2021
20877W        W39731  15.300  15.628  14.625  0.5445  0.2113 -0.0271
20878W        W39732   2.003   1.408   0.257  0.1461  0.2203  0.2512
20879W        W39733   7.395   5.128   1.898 -0.0552  0.0926  0.0375
20880W        W39734   5.314   2.983   4.824  0.0393 -0.0889 -0.1009
20881W        W39735  14.195  12.739   3.136 -0.2848  0.1552 -0.0681
20882W        W39736  14.887   4.627  13.021  0.0135  0.2319 -0.1327
20883W        W39737  10.819   7.990   3.473  0.3430  0.1386  0.1129
20884W        W39738   1.521   0.063   2.912  0.1008 -0.0158  0.3071
20885W        W39739   0.924   2.052  15.983  0.1171 -0.0578 -0.0306
20886W        W39740   0.109   4.393  12.686 -0.0766 -0.4879  0.0971
20887W        W39741  10.606  15.287   3.488 -0.1338 -0.0634  0.2042
20888W        W39742  12.452  16.091   0.942  0.1674  0.2275 -0.0505
20889W        W39743  14.861   1.264   2.737  0.0270 -0.2269 -0.4677
20890W        W39744   5.286   3.740  15.557 -0.1550 -0.1141 -0.3781
20891W        W39745   4.340  15.769   4.933  0.0344  0.2027  0.0586
20892W        W39746   3.928   5.362  13.569  0.0547  0.0401  0.0323
20893W        W39747   2.936  11.464   1.420 -0.2067  0.2121  0.0066
20894W        W39748   6.348   8.471  17.432  0.0058  0.0047  0.2695
20895W        W39749  12.788   1.886   0.089  0.3974  0.0690 -0.0181
20896W        W39750   9.691  11.645  14.149  0.1692 -0.1074 -0.1062
20897W        W39751   9.928   0.286  15.420  0.0098 -0.0019 -0.1362
20898W        W39752   2.665  16.035  13.632 -0.1335  0.2552 -0.0328
20899W        W39753   8.507   1.505   1.601  0.1382  0.0843 -0.0970
20900W        W39754   3.133  12.356   3.464  0.5635  0.2473 -0.1134
20901W        W39755   4.392   2.641  14.194  0.1970  0.0860 -0.1574
20902W        W39756  12.643  17.217  12.760  0.0986 -0.1585 -0.1271
20903W        W39757   6.015   7.101   2.504  0.0332 -0.0586  0.0883
20904W        W39758  14.979   8.191  13.555  0.0701 -0.2465 -0.1116
20905W        W39759   3.661   9.429  17.382 -0.1496  0.1139 -0.0216
20906W        W39760   8.534   6.300   2.671  0.0343  0.1547  0.0362
20907W        W39761   9.451   8.873   2.885 -0.0811 -0.1242 -0.3613
20908W        W39762   1.094  12.318  13.809  0.0220 -0.0326 -0.1563
20909W        W39763   7.355  11.415   2.770 -0.0491 -0.0636 -0.2165
20910W        W39764   6.666   4.697   4.827 -0.5065 -0.0027  0.1368
20911W        W39765  15.383  10.058   3.683  0.0166 -0.0930 -0.1083
20912W        W39766   6.572   7.193   4.260 -0.2494  0.1658  0.2934
20913W        W39767   0.599   2.046  13.095  0.2383  0.1835 -0.0213
20914W        W39768  15.094  16.193   0.157  0.1669  0.0818 -0.3454
20915W        W39769  10.095  17.152  15.306 -0.1547 -0.2682 -0.0541
20916W        W39770   0.879  17.031   2.393  0.0815  0.0346 -0.4955
20917W        W39771   5.002   7.709   2.332 -0.2355  0.1209 -0.1440
20918W        W39772  15.139  16.348  14.797 -0.2011 -0.1215 -0.2249
20919W        W39773  11.287   2.042   0.983 -0.0757 -0.2564  0.1388
20920W        W39774   7.538   7.371   4.213 -0.0996  0.0024  0.2804
20921W        W39775  12.759   7.085   3.368  0.0361 -0.1242 -0.1433
20922W        W39776  14.235   3.000  15.761 -0.1235 -0.0813 -0.0969
20923W        W39777  13.193  11.834   0.546 -0.0757 -0.2381 -0.1353
20924W        W39778  11.897   0.348   3.724  0.0991 -0.2458 -0.0916
20925W        W39779   9.132  10.584  15.273 -0.2783 -0.0196  0.0283
20926W        W39780  12.195  14.449   4.141  0.3457 -0.0156  0.3245
20927W        W39781  12.136  10.305  14.596  0.2730 -0.1871  0.3728
20928W        W39782  13.658  12.470  16.375  0.0371 -0.3714  0.1822
20929W        W39783   8.913  12.990   3.248  0.1147 -0.0321 -0.1421
20930W        W39784  17.230  10.327  15.808 -0.1853 -0.0405 -0.1921
20931W        W39785  14.278  16.666   1.951  0.1859  0.2288 -0.0372
20932W        W39786   5.670   7.616  15.257 -0.0625  0.0398  0.3917
20933W        W39787   5.030   8.538   1.977 -0.3506  0.0575 -0.0785
20934W        W39788  14.821   0.737   5.161  0.1316 -0.0958 -0.3146
20935W        W39789   5.729  13.437   1.718 -0.0433  0.0849 -0.2615
20936W        W39790   6.604  15.640   1.603 -0.0250  0.0387 -0.1555
20937W        W39791  10.675   7.938   3.031 -0.1259  0.3828 -0.1652
20938W        W39792   1.393  10.836   0.551  0.5819 -0.1923 -0.1202
20939W        W39793  15.125   4.277   2.819 -0.2755  0.0673  0.0989
20940W        W39794   4.692   9.295   0.223 -0.0856 -0.2051 -0.0412
20941W        W39795   3.212   7.248   5.411  0.0978 -0.1860  0.0045
20942W        W39796   9.411   2.001   0.821 -0.1156 -0.1873 -0.2812
20943W        W39797  11.980  11.656  15.870  0.1397 -0.2730  0.2011
20944W        W39798   8.550  14.140  15.359  0.1275  0.0321  0.0351
20945W        W39799   6.782   3.715   4.004 -0.2590  0.0270 -0.1203
20946W        W39800  12.327   2.275  12.168  0.1507 -0.0382 -0.0000
20947W        W39801   1.180  16.588   2.268  0.1835 -0.0577 -0.1355
20948W        W39802  10.239   3.904  12.630 -0.0962  0.0234 -0.0895
20949W        W39803   5.254   5.619   0.517  0.2261 -0.0062  0.5107
20950W        W39804  12.566   9.207  13.758  0.4352  0.4777 -0.1207
20951W        W39805  12.692   2.765   0.634 -0.2606  0.1441  0.0196
20952W        W39806  13.336  11.667   1.776  0.1449  0.0984 -0.1192
20953W        W39807   2.343   3.478   4.227 -0.0065 -0.0854  0.0242
20954W        W39808   1.209   6.680  12.303  0.1614  0.0602  0.3588
20955W        W39809  10.225  17.010   3.774  0.2811 -0.1261  0.1285
20956W        W39810  16.146  11.990  16.356  0.1019  0.0420 -0.0182
20957W        W39811  11.597  15.753   0.256 -0.0440 -0.1237  0.0116
20958W        W39812   3.895  13.160   4.713 -0.0550  0.0687  0.1099
20959W        W39813   7.244   5.993   3.465 -0.2569 -0.2038  0.0824
20960W        W39814  11.110   4.657  15.065  0.1646 -0.4398 -0.0616
20961W        W39815   2.961   3.326  14.497 -0.1656  0.0206 -0.0777
20962W        W39816  15.616   4.350   4.935 -0.1759  0.0722  0.2492
20963W        W39817  10.832   4.312   4.345 -0.0210 -0.0065 -0.0005
20964W        W39818   9.341   7.010   2.444 -0.2679  0.2923  0.0330
20965W        W39819   9.593   1.251  16.359 -0.2074  0.0496 -0.1240
20966W        W39820  12.164  11.323   0.679 -0.0881 -0.1779 -0.0555
20967W        W39821   3.274  14.348  12.484  0.1226  0.2025 -0.1744
20968W        W39822  14.539   9.015  13.455  0.0438  0.1046 -0.1521
20969W        W39823   4.974  13.811  15.969  0.2399  0.0186  0.2563
20970W        W39824  12.148  10.394  15.064 -0.0837 -0.2338  0.0917
20971W        W39825  15.679   9.158  14.878 -0.0369 -0.2023  0.0732
20972W        W39826   9.653  15.870  12.538  0.1052 -0.0978  0.1736
20973W        W39827  11.383  13.333  15.976  0.3513  0.0950 -0.2515
20974W        W39828   4.907  15.001  12.717 -0.2919  0.0699  0.0126
20975W        W39829  16.177  16.972  13.581 -0.0149 -0.1773 -0.3659
20976W        W39830  10.853  13.413   1.631 -0.0885  0.3635  0.0954
20977W        W39831  14.977  15.869  12.521  0.1637  0.0230  0.1263
20978W        W39832   9.043  15.457   6.282  0.3139  0.0832 -0.0424
20979W        W39833  17.062  12.748  12.856 -0.0541 -0.2761 -0.1960
20980W        W39834   7.441  11.432  16.473  0.1741 -0.2067  0.0465
20981W        W39835  10.431  16.161   0.922  0.0303 -0.1556 -0.1260
20982W        W39836   2.188   0.491  14.896 -0.3035 -0.0819 -0.1163
20983W        W39837   6.002  17.230   3.123  0.0962 -0.0282 -0.2480
20984W        W39838  17.064   4.768   3.028  0.1635  0.2380 -0.0095
20985W        W39839   9.740   4.582  16.292 -0.2261 -0.0731 -0.1022
20986W        W39840  15.082  16.817  16.915 -0.3627  0.3865 -0.0231
20987W        W39841   9.597  13.763   4.485 -0.2585 -0.1340  0.0817
20988W        W39842   3.749  16.536  15.722 -0.2204  0.1563  0.1272
20989W        W39843   9.764   7.216   2.303 -0.1446 -0.0393 -0.4402
20990W        W39844   0.514   3.908  15.832 -0.0968  0.4200  0.0258
20991W        W39845   2.350  15.394  14.548 -0.0632  0.0752 -0.2613
20992W        W39846   3.367  12.241   0.246 -0.0781 -0.0323 -0.1456
20993W        W39847   9.349  15.159   4.141 -0.3185  0.1507  0.0628
20994W        W39848   1.254   4.934   4.402  0.0504 -0.0284 -0.0562
20995W        W39849  14.437   9.439  14.928 -0.3041  0.4035 -0.1832
20996W        W39850   7.199   6.496   2.509  0.2186 -0.0573  0.1209
20997W        W39851  16.678   0.821  12.301 -0.1397 -0.0202  0.3169
20998W        W39852  12.526  10.057  17.022 -0.1349 -0.2008 -0.0842
20999W        W39853  17.181  15.937   1.148  0.0754 -0.1063 -0.0444
21000W        W39854   1.955  14.066  17.297  0.2145 -0.1411 -0.2664
21001W        W39855   6.609   3.538  16.986  0.0730 -0.2237 -0.0132
21002W        W39856  10.072  11.800   5.137 -0.3144  0.0677  0.0110
21003W        W39857   7.539  10.593   4.934 -0.2581  0.0001 -0.0654
21004W        W39858   7.490   6.860   1.744  0.1811  0.0078 -0.0574
21005W        W39859   7.032  11.375  14.499  0.3116  0.1035  0.1037
21006W        W39860   1.219   6.544   5.199 -0.1227  0.2893  0.3122
21007W        W39861   8.722  16.448  16.128  0.3233 -0.2038  0.2424
21008W        W39862   8.522  14.895  15.189  0.1192 -0.0581 -0.2056
21009W        W39863   6.132  10.608   5.604 -0.0151 -0.0982 -0.0198
21010W        W39864  12.092   6.919  17.197  0.2472  0.0853 -0.1263
21011W        W39865  10.033   2.812  16.780 -0.2300 -0.1811  0.3320
21012W        W39866   4.153  13.919  15.658 -0.1368 -0.2226 -0.0032
21013W        W39867   1.236   0.366  17.011 -0.0865  0.0161 -0.0998
21014W        W39868   6.124   7.187  16.942 -0.0194 -0.0040  0.0102
21015W        W39869  11.452   2.792  16.717  0.0192  0.1382 -0.0731
21016W        W39870   5.917   6.284  13.511 -0.2258 -0.0824 -0.1180
21017W        W39871  14.107  10.031  14.339  0.2996  0.3347 -0.0372
21018W        W39872  13.345  16.977   4.489  0.0415  0.1840 -0.3187
21019W        W39873   6.532   4.141  16.240  0.3006  0.1072 -0.2093
21020W        W39874   0.940  14.013   1.297  0.1026 -0.0059 -0.3043
21021W        W39875  12.578   2.777   4.921 -0.1876 -0.2279  0.1407
21022W        W39876   1.584   4.690   3.061  0.1346  0.3186  0.1285
21023W        W39877  13.046   2.537  14.687 -0.0024 -0.1938 -0.1759
21024W        W39878   4.877  14.967  16.047  0.2609 -0.2201  0.2727
21025W        W39879   7.961  13.646  16.839 -0.0759 -0.0514 -0.0213
21026W        W39880  10.293   4.644  13.900 -0.0461  0.0890  0.1721
21027W        W39881  16.232  14.259   1.954  0.1947  0.0727 -0.0238
21028W        W39882  13.926  10.359   4.402  0.0673  0.0964  0.1217
21029W        W39883   1.356  14.333   2.309 -0.0731 -0.3301 -0.0396
21030W        W39884  16.804   1.094  13.674  0.0512  0.2360 -0.1810
21031W        W39885  12.100  15.617   1.631  0.2384  0.1565 -0.2235
21032W        W39886  16.895  14.453   3.255 -0.0596  0.2470  0.2181
21033W        W39887   7.002   7.509  15.721 -0.1839 -0.1245  0.0739
21034W        W39888  11.849   0.772   4.469 -0.0103  0.3262  0.0329
21035W        W39889   2.587  11.171   0.579  0.1860 -0.0486  0.0128
21036W        W39890   0.688   0.352   5.115  0.3420  0.3983 -0.3320
21037W        W39891   1.902   3.835   4.353  0.0758  0.1961 -0.2367
21038W        W39892   7.169   0.056  13.771 -0.2454  0.0456 -0.1685
21039W        W39893   3.537   4.390  16.733 -0.2476  0.0690 -0.3210
21040W        W39894   3.008   1.010  12.979 -0.0496 -0.0567 -0.0423
21041W        W39895   5.134   1.817   1.827 -0.0643  0.2541  0.0134
21042W        W39896   8.124  12.837  11.834 -0.0673  0.0281  0.2188
21043W        W39897  14.571  15.878   1.404  0.3331 -0.4830 -0.0884
21044W        W39898   9.273   3.524   2.470  0.0540  0.1643  0.0745
21045W        W39899  13.259   6.474  14.091  0.2335 -0.1190  0.3066
21046W        W39900   6.854   1.753  14.593 -0.1343  0.2003 -0.0032
21047W        W39901   0.763  17.223  15.313 -0.0564 -0.0956 -0.1902
21048W        W39902  10.538  16.418   2.126  0.0660 -0.1955 -0.0894
21049W        W39903  10.900  13.918  13.594  0.2198  0.0363 -0.0421
21050W        W39904   2.569  15.073  15.990  0.0001  0.0883  0.0963
21051W        W39905   2.992   4.598  15.124  0.3089  0.1391 -0.2458
21052W        W39906  15.957   7.786  16.353 -0.1100 -0.0575  0.1865
21053W        W39907   9.923   0.863  16.287  0.1752  0.0728  0.1423
21054W        W39908   8.544  11.187  16.931  0.3058  0.1642 -0.0741
21055W        W39909   2.405   6.127   2.963  0.0690 -0.2915 -0.1306
21056W        W39910   0.648   2.785   3.726 -0.1239 -0.0808 -0.1957
21057W        W39911   0.965   7.651  14.627  0.2691 -0.2575 -0.1780
21058W        W39912  14.182  11.085   0.682  0.1035  0.0675 -0.2942
21059W        W39913  12.807   3.527  12.714 -0.0260  0.0842  0.1077
21060W        W39914  16.789  15.007   4.976 -0.1235  0.2025 -0.0524
21061W        W39915  11.826   2.074  13.681  0.0760 -0.0458 -0.2531
21062W        W39916  11.058  15.874   2.913 -0.2024 -0.0011 -0.0000
21063W        W39917   6.050   6.903  12.766 -0.1345 -0.0082  0.0609
21064W        W39918   8.091  10.967  17.011  0.3531  0.1764 -0.2383
21065W        W39919   9.825   4.559  13.178 -0.1275 -0.1486 -0.1639
21066W        W39920   0.792   5.946  17.087  0.0739  0.2843  0.1348
21067W        W39921  13.858  11.162   0.164  0.2856 -0.0046  0.1102
21068W        W39922   4.441   3.954  13.824 -0.2390 -0.1057 -0.0492
21069W        W39923   2.509  15.992  14.075  0.0147 -0.0736  0.0005
21070W        W39924  16.220  13.140   0.192 -0.1082  0.1370  0.1707
21071W        W39925   8.467  11.774   1.698  0.1355 -0.1812 -0.0165
21072W        W39926   8.102  16.914  14.260 -0.0548 -0.2744 -0.0900
21073W        W39927  14.964   5.676  15.164  0.1361  0.3081 -0.0298
21074W        W39928   1.887   4.583  12.866 -0.0163  0.3068 -0.0660
21075W        W39929  17.084   1.938   4.151 -0.0683 -0.2626 -0.2324
21076W        W39930   8.760  12.141  12.968  0.1239  0.0042 -0.0177
21077W        W39931   2.321  12.852  14.389 -0.0122 -0.0408 -0.1363
21078W        W39932   2.705  12.184   3.697  0.1618 -0.2189  0.0812
21079W        W39933  16.417  12.195   2.600 -0.0183  0.0515 -0.1951
21080W        W39934  13.555   2.440  16.132  0.0795  0.2348  0.0396
21081W        W39935   7.635  11.850   2.021 -0.3148 -0.1058 -0.0878
21082W        W39936   2.354  15.286   2.853  0.2250  0.1784 -0.0278
21083W        W39937   5.455  11.813   1.038  0.0793 -0.5024 -0.0702
21084W        W39938  16.982  10.283  14.696  0.1944 -0.0723 -0.1248
21085W        W39939   4.348   6.109  16.097 -0.0690 -0.0294  0.0859
21086W        W39940   4.855  14.553  14.862 -0.0979 -0.2258  0.1476
21087W        W39941   9.362   1.662  16.290  0.0349 -0.4887 -0.1837
21088W        W39942   0.999  16.178  13.864  0.0745  0.1766 -0.0920
21089W        W39943   8.797  15.397   3.144 -0.0990  0.1186  0.1769
21090W        W39944  12.175   2.200  13.321  0.0863  0.3120  0.0016
21091W        W39945   5.705   2.842  14.799  0.3726  0.0522  0.1890
21092W        W39946  13.975   7.214   2.550 -0.2269  0.2498 -0.0433
21093W        W39947   5.693   6.339   4.834 -0.0479 -0.1691 -0.0394
21094W        W39948   4.473   7.011   2.055  0.1385  0.3154 -0.0697
21095W        W39949  13.376   9.396   1.163  0.0631  0.2888  0.2142
21096W        W39950   8.024   3.814   2.861  0.2554  0.2231  0.0410
21097W        W39951   7.513   8.926  14.672 -0.1004  0.0299  0.1818
21098W        W39952   5.028  14.735   2.770  0.1256  0.1209 -0.1205
21099W        W39953   9.719   1.847  13.357  0.1422  0.0402 -0.3192
21100W        W39954   9.972  12.529   3.109 -0.2879 -0.0342  0.2393
21101W        W39955   4.204  14.485  13.499 -0.0975 -0.1148  0.2525
21102W        W39956   6.912   2.685  14.111 -0.0039  0.2273 -0.4049
21103W        W39957  15.781   2.160   0.965  0.1315 -0.2369 -0.0838
21104W        W39958   1.106  14.237   1.785 -0.0760 -0.0751  0.1583
21105W        W39959   8.819  11.982   4.991 -0.2061  0.0464 -0.2048
21106W        W39960   5.347   9.794  15.972 -0.0160 -0.1210  0.2336
21107W        W39961   4.498  14.419  16.351 -0.3638 -0.0118  0.0769
21108W        W39962  16.515   3.899   0.370  0.1112  0.3183  0.1501
21109W        W39963   6.651  11.087   3.945  0.0965 -0.1813 -0.0505
21110W        W39964  10.643   5.479   4.540 -0.0543  0.0150 -0.2303
21111W        W39965   1.182   7.313   2.497  0.1989  0.0498  0.0133
21112W        W39966  16.708   7.532  13.868  0.0445  0.0295 -0.1617
21113W        W39967   3.608   7.440  15.652 -0.1111  0.0830 -0.0839
21114W        W39968  14.760   4.845   2.891 -0.0629 -0.3307 -0.1993
21115W        W39969   0.717  17.051   4.517 -0.2643  0.1046 -0.0751
21116W        W39970  16.400  14.133   4.980  0.1261 -0.0856 -0.0149
21117W        W39971  14.883   6.327   2.486  0.0440  0.1452 -0.1271
21118W        W39972   1.291   0.001  12.582 -0.1619  0.2518  0.2408
21119W        W39973   4.490   4.476  16.719 -0.1676 -0.3148  0.2601
21120W        W39974   6.089  13.457   2.032  0.1265 -0.0517  0.0667
21121W        W39975   8.643  14.904   2.596 -0.4113 -0.0596  0.0432
21122W        W39976   3.726   8.157   1.052  0.0831  0.1719  0.0646
21123W        W39977   3.184   5.380   0.911  0.3199 -0.1308 -0.1299
21124W        W39978   7.292   9.146   2.912  0.1471  0.0201  0.1927
21125W        W39979   7.158   8.219   0.459  0.1583 -0.1007  0.0139
21126W        W39980   1.444   5.217   2.355 -0.0039 -0.0552 -0.1659
21127W        W39981   0.074  15.480   3.829  0.0259 -0.2395 -0.0628
21128W        W39982   6.786   8.522  12.959 -0.0259 -0.0610  0.0988
21129W        W39983   5.104  14.509  17.174 -0.1430 -0.3123  0.2940
21130W        W39984  17.082   8.858  16.869  0.0981 -0.0006  0.1708
21131W        W39985   2.274  17.186  16.116 -0.0152  0.0113 -0.2233
21132W        W39986   9.176  17.073  16.682  0.3102 -0.2382 -0.3324
21133W        W39987   8.336   1.834  14.246  0.3340 -0.2380 -0.0640
21134W        W39988   0.301  16.563   5.110 -0.0563 -0.2540  0.0511
21135W        W39989  11.541  13.726   3.362 -0.0059  0.0723 -0.1474
21136W        W39990  13.389   7.192   3.464 -0.4623 -0.1426 -0.1166
21137W        W39991   6.688   9.141  15.401 -0.4261  0.1762  0.1706
21138W        W39992   6.837   3.229  16.686 -0.1221 -0.2956 -0.0594
21139W        W39993   2.166  14.364  13.485 -0.2028  0.1268 -0.3386
21140W        W39994   6.485   8.297   1.863 -0.1633 -0.1984 -0.0328
21141W        W39995   0.207  11.098  12.201 -0.1365  0.1125 -0.0345
21142W        W39996   4.124   3.081  14.366  0.0877 -0.0640  0.2257
21143W        W39997  10.595  14.732  12.800 -0.1682 -0.2603  0.0005
21144W        W39998  17.146   5.420   2.203  0.1348 -0.0309 -0.2136
21145W        W39999   9.176  12.701   0.834 -0.1792  0.5186 -0.0076
21146W        W40000  15.244  16.693  12.548  0.0102  0.2138 -0.0786
21147W        W40001  16.195   8.986  14.186 -0.1877 -0.2754 -0.2031
21148W        W40002   9.794  10.046  15.226  0.0669  0.0719  0.1083
21149W        W40003   1.914  12.587  14.403  0.0268 -0.4131 -0.2517
21150W        W40004  11.493  16.713   1.263 -0.0587 -0.0704  0.1501
21151W        W40005   8.808   0.839   3.928 -0.0042  0.1223 -0.3327
21152W        W40006   9.586  15.787  14.178 -0.0191 -0.0294  0.1871
21153W        W40007  16.426   1.715   0.504  0.0200 -0.2133 -0.0829
21154W        W40008   1.653   6.904  14.768 -0.1111  0.0653 -0.1302
21155W        W40009   0.432  13.092   4.807 -0.0561  0.0137  0.1092
21156W        W40010   6.142   0.255  12.746  0.0485  0.0286 -0.1806
21157W        W40011   6.129  12.534  15.656  0.1524  0.0281 -0.0892
21158W        W40012  14.316   8.645   1.965 -0.3462  0.0528 -0.2142
21159W        W40013   8.737  16.040  14.318  0.1144 -0.0493 -0.3110
21160W        W40014   5.272  12.855  15.572 -0.1292  0.1386 -0.0050
21161W        W40015   2.127   7.131  15.732 -0.0505 -0.2857 -0.0407
21162W        W40016  10.118   6.155   3.043  0.0709  0.0592  0.4600
21163W        W40017  10.507   3.763   3.044 -0.2173 -0.1764  0.2443
21164W        W40018   9.053   5.648  16.611  0.1389  0.0253  0.0931
21165W        W40019   8.526   6.596  15.604  0.2493  0.2535 -0.0934
21166W        W40020  13.215  12.772   0.798 -0.1136  0.0578 -0.2296
21167W        W40021   8.908  12.242  16.871  0.1710  0.4286 -0.1026
21168W        W40022   9.861   6.458   4.139  0.3309  0.2640 -0.0943
21169W        W40023   3.674   2.969  12.231 -0.0975 -0.2263 -0.0749
21170W        W40024   7.883  10.406   6.008 -0.4499  0.0973  0.2055
21171W        W40025   7.805   8.853  15.337 -0.1617 -0.3155  0.1242
21172W        W40026   3.459  10.306  12.144  0.0436 -0.2286  0.0381
21173W        W40027  12.293   4.226  15.885 -0.0895  0.2308 -0.0257
21174W        W40028  11.940   7.777  16.967  0.0492 -0.1249  0.0404
21175W        W40029  14.534  11.422  12.006  0.3656  0.1589 -0.0755
21176W        W40030  14.746   9.011  12.806  0.1251  0.1210 -0.1091
21177W        W40031  14.815   3.807   3.571 -0.1462  0.0470  0.1343
21178W        W40032  14.838   9.213  14.727 -0.1730 -0.0378  0.1831
21179W        W40033  16.695   7.131   1.492 -0.1694 -0.3748  0.0550
21180W        W40034   9.930   8.647   4.237 -0.0956 -0.0320  0.1536
21181W        W40035   3.618   2.419   0.738 -0.1010  0.0987 -0.1442
21182W        W40036   4.173   8.932   3.503  0.2409  0.3041 -0.1729
21183W        W40037  12.468   5.779  14.071  0.0515  0.0102  0.0687
21184W        W40038  15.127  11.842   3.710  0.3254  0.2215  0.0180
21185W        W40039   1.539   6.555  15.556  0.0907  0.3124  0.1047
21186W        W40040   9.668   9.375   0.798 -0.1214 -0.1435  0.1915
21187W        W40041  11.911  15.284  15.270  0.0005  0.3419 -0.0412
21188W        W40042  13.558  16.655  13.849 -0.2589  0.0613 -0.1366
21189W        W40043   3.654  11.160  16.962 -0.0936 -0.0507  0.1760
21190W        W40044  16.512  15.856  16.526  0.0334  0.0605 -0.0688
21191W        W40045   9.673  16.869  15.987  0.1888  0.0182  0.1034
21192W        W40046  13.033  13.853   4.247 -0.3042 -0.0296 -0.1069
21193W        W40047  15.642  11.760   3.830 -0.0093  0.0838 -0.1663
21194W        W40048   8.539  13.849  16.164 -0.0419  0.1067  0.1494
21195W        W40049   7.407   4.635   1.733  0.1904 -0.0146  0.0712
21196W        W40050   7.985   6.763   3.866 -0.1804  0.1118  0.0569
21197W        W40051   6.220   8.625   4.226 -0.0825 -0.0883 -0.1314
21198W        W40052   3.018   7.718  17.185  0.1176 -0.2112 -0.0943
21199W        W40053  11.108   6.239  15.919  0.2491 -0.0648  0.0380
21200W        W40054   1.923   9.214  15.074 -0.1733 -0.2057 -0.2537
21201W        W40055   0.358  13.527  14.003  0.0405 -0.5491 -0.0654
21202W        W40056   9.345   7.890   5.211  0.1610 -0.0846 -0.1291
21203W        W40057  13.637   8.274   4.308  0.2267 -0.1733  0.1016
21204W        W40058   8.150  13.934   3.941 -0.0864 -0.1162  0.0189
21205W        W40059  16.266   2.793   2.448  0.0115  0.2760  0.5535
21206W        W40060   3.283   4.122  12.525  0.3900 -0.0331 -0.0944
21207W        W40061   3.639   1.889   0.774 -0.1535 -0.0813  0.1429
21208W        W40062   0.006   8.141   1.276  0.1589 -0.0954 -0.2294
21209W        W40063  15.740   6.532   2.149 -0.0190 -0.0000 -0.1111
21210W        W40064   4.816  11.494   4.759 -0.4353  0.3263 -0.1267
21211W        W40065   1.494   2.237   4.789 -0.1916 -0.1107  0.1483
21212W        W40066  12.198  13.752  12.114 -0.1178 -0.0477 -0.1351
21213W        W40067   7.170  10.794   5.154 -0.1222  0.0329 -0.0165
21214W        W40068   2.641   2.191   2.451  0.0505 -0.2079  0.0208
21215W        W40069   8.180   8.769   0.533 -0.0118 -0.3665  0.0292
21216W        W40070   2.521  10.361   4.120  0.1854 -0.0471  0.2059
21217W        W40071   0.632   2.793   2.412  0.2144  0.1694  0.0937
21218W        W40072  12.106   3.896   2.686 -0.0289  0.0885  0.0631
21219W        W40073   5.383  15.926  13.758  0.0581 -0.1127  0.2868
21220W        W40074  14.591   3.565   0.541 -0.1001 -0.4037 -0.0392
21221W        W40075   2.185  10.970   3.090 -0.1501 -0.0684  0.3297
21222W        W40076   8.812   9.965   3.254 -0.1053 -0.0661 -0.2096
21223W        W40077   9.543  12.264   1.720 -0.1836 -0.1177 -0.0218
21224W        W40078  10.943   8.096  14.310  0.1594 -0.3201 -0.1086
21225W        W40079   4.834  11.165  14.536  0.3270  0.0107 -0.1872
21226W        W40080   6.937  16.046   2.488  0.1852 -0.1225  0.3162
21227W        W40081  12.770   7.181  15.274  0.1602  0.1650 -0.0717
21228W        W40082   8.643   4.717  15.267 -0.4018  0.2278 -0.3753
21229W        W40083   7.145   5.190  14.075  0.0893 -0.2930  0.0152
21230W        W40084  11.339   2.930   4.170  0.1443 -0.1551  0.1178
21231W        W40085   8.024  13.711  12.817 -0.0236 -0.3032  0.0712
21232W        W40086   8.304  16.392  16.381  0.1035 -0.0429 -0.0124
21233W        W40087  16.648   9.762   1.870 -0.0210 -0.1207 -0.1259
21234W        W40088  11.137   7.604  14.159 -0.1228  0.0234  0.0455
21235W        W40089   4.428  11.289  13.642 -0.0969 -0.0360  0.0959
21236W        W40090  15.111  15.851  17.100  0.1187 -0.1231 -0.0742
21237W        W40091   6.696  12.085  14.470 -0.2381 -0.1083  0.2306
21238W        W40092   5.142  12.409   2.968 -0.0598 -0.0370 -0.0631
21239W        W40093  14.170   2.648  15.210 -0.2411 -0.1085  0.1084
21240W        W40094   4.404  11.707   2.725 -0.1818  0.0599  0.0976
21241W        W40095   8.599  15.771  15.139 -0.2719  0.0570 -0.2964
21242W        W40096   1.255   9.387   0.412  0.2350 -0.1846 -0.3418
21243W        W40097  12.831  12.574  12.601 -0.1703  0.0856 -0.0892
21244W        W40098  12.352   7.209   0.184  0.1949  0.2304 -0.2687
21245W        W40099   0.800   3.525   0.565 -0.0458 -0.1748  0.1929
21246W        W40100   2.348   0.587   1.223 -0.0002 -0.0189  0.2966
21247W        W40101   5.508   4.866  17.164  0.3843 -0.2063  0.0752
21248W        W40102   5.579   5.339  16.438 -0.1519 -0.0775 -0.2826
21249W        W40103  10.411  16.835  16.328  0.0150 -0.0492  0.3922
21250W        W40104   4.582   0.654   5.572 -0.3017  0.1361  0.3940
21251W        W40105   1.779  16.374   3.323  0.0852  0.4526  0.2830
21252W        W40106   6.783   1.322   3.022 -0.0645 -0.2761 -0.3154
21253W        W40107  11.619  13.874  12.130 -0.2048  0.1894 -0.1015
21254W        W40108   9.670   2.593  16.059 -0.0480  0.0530  0.1293
21255W        W40109   8.058   0.997  16.598  0.1254  0.0876 -0.3997
21256W        W40110   8.619  13.568   3.279  0.1155  0.3833 -0.0113
21257W        W40111   0.560   5.499  15.094  0.2939  0.1993  0.2029
21258W        W40112  12.940  15.297   4.254  0.1655  0.0819  0.0843
21259W        W40113   8.224   2.195  16.718 -0.0922 -0.1862  0.0069
21260W        W40114   8.765  10.893   0.196  0.0978  0.0478  0.0976
21261W        W40115   6.617   1.801  15.076 -0.0599  0.1161  0.1695
21262W        W40116   8.096   8.048  17.312 -0.0491  0.3240  0.0181
21263W        W40117  14.359   2.438   5.130  0.1167 -0.1760  0.0170
21264W        W40118  14.829   6.380   4.398 -0.2297  0.0035  0.0645
21265W        W40119  12.795  12.702   0.521 -0.1141 -0.2497  0.2151
21266W        W40120  12.576  10.376  15.298  0.3497 -0.0946  0.3049
21267W        W40121  15.928  12.399   2.146 -0.1525  0.0557 -0.0582
21268W        W40122  11.576  15.753  12.252  0.0624  0.0650 -0.1220
21269W        W40123  14.868  13.002  17.294 -0.2578  0.1515  0.3143
21270W        W40124  16.308   7.082  13.039 -0.0804  0.0965 -0.0219
21271W        W40125  12.254   4.636   0.497  0.0436  0.1684 -0.1500
21272W        W40126   5.626  10.154   2.528 -0.0031 -0.2513  0.2008
21273W        W40127   1.053  15.634   0.773 -0.1769  0.0134 -0.0865
21274W        W40128   0.181   6.280  16.447 -0.0362 -0.1202  0.2943
21275W        W40129   6.850   7.506   1.699 -0.0201  0.0180  0.4623
21276W        W40130   7.936  16.842   4.498  0.2150  0.3292  0.2281
21277W        W40131  12.148   5.555  15.443 -0.0363 -0.0825  0.0728
21278W        W40132   6.955  15.925  13.690  0.1074 -0.2710 -0.2903
21279W        W40133  12.177  14.442  16.104 -0.1855  0.2680  0.0120
21280W        W40134   9.033   1.887   5.315  0.0161  0.2788 -0.0369
21281W        W40135  11.231   7.164   0.681  0.1895 -0.1790 -0.0959
21282W        W40136   8.095   1.980  13.705 -0.0093  0.0261 -0.1035
21283W        W40137   2.928   5.444   1.843 -0.1478  0.0346 -0.1330
21284W        W40138  15.446  13.304  13.627  0.1600 -0.0537  0.0374
21285W        W40139   6.436  12.957  15.539 -0.2628  0.2141 -0.0468
21286W        W40140  16.511   6.487  14.917  0.2033  0.2931  0.1881
21287W        W40141   1.468   8.360  14.817  0.0308 -0.3386 -0.1526
21288W        W40142  15.108   4.396  16.472  0.3469 -0.4263 -0.0975
21289W        W40143  13.447   0.509   1.511 -0.1668 -0.3427  0.2448
21290W        W40144  16.943  16.986   2.679 -0.1811  0.1463  0.0271
21291W        W40145   8.285  11.929  13.755  0.3740 -0.3957 -0.2178
21292W        W40146   8.379   1.221   2.186  0.2784 -0.1068 -0.1187
21293W        W40147   4.558  16.105   2.649 -0.1707 -0.1293  0.1545
21294W        W40148   6.575  11.001   2.713  0.0817  0.0123  0.2261
21295W        W40149  14.567  16.725  16.313 -0.2344 -0.2319 -0.3562
21296W        W40150  13.657   6.438   5.300 -0.1150  0.1472 -0.0322
21297W        W40151   0.871   0.199   3.335  0.1078  0.0518 -0.3209
21298W        W40152   5.853  11.890   4.220  0.1854  0.1139 -0.0022
21299W        W40153   5.695   2.571  16.212  0.0195  0.0999  0.0242
21300W        W40154  10.885   1.091   3.936 -0.0574 -0.5284  0.0188
21301W        W40155  11.285   5.830  16.124 -0.1642 -0.0312  0.0801
21302W        W40156  15.012   2.496  13.597 -0.1801  0.0568  0.2565
21303W        W40157  12.712   7.633   2.966  0.2027  0.0406 -0.1997
21304W        W40158   8.337  13.164  14.724  0.3056  0.0531 -0.0893
21305W        W40159   9.890  11.540  15.139  0.0396 -0.1423 -0.1099
21306W        W40160  15.495   0.791   0.414 -0.1482 -0.0129 -0.0580
21307W        W40161  13.810   4.817   0.390  0.2680  0.1682  0.0260
21308W        W40162   4.937  14.875   3.712 -0.1532 -0.0395 -0.0212
21309W        W40163   7.435   8.945   4.185  0.1987  0.0408 -0.3482
21310W        W40164   3.925   2.661  16.265 -0.0470 -0.3480  0.1374
21311W        W40165   5.472  10.531  14.514 -0.3534 -0.3221 -0.0108
21312W        W40166   3.707  12.048   1.821 -0.0019 -0.1234 -0.2413
21313W        W40167  14.021   7.056  13.879 -0.0249  0.2867  0.0899
21314W        W40168  12.376  16.632  17.313 -0.1111 -0.1459 -0.2789
21315W        W40169   9.108   5.165  16.418 -0.1129 -0.0217 -0.0382
21316W        W40170  11.146  15.308  17.046  0.0865 -0.0609 -0.1679
21317W        W40171  11.601   8.036  14.831 -0.1484  0.1698  0.1101
21318W        W40172  16.802  14.673  17.087 -0.0170 -0.1571  0.0820
21319W        W40173  16.279  10.708   5.734 -0.1088 -0.0049  0.2128
21320W        W40174   6.625  15.331  16.523 -0.1267 -0.0984  0.0606
21321W        W40175   9.209   7.553  16.731  0.1371  0.0400  0.0182
21322W        W40176  10.165  11.687   3.825 -0.0573  0.2107  0.0049
21323W        W40177  15.661  14.225   2.803 -0.1903 -0.1702 -0.1473
21324W        W40178   8.776  12.100   3.320  0.0755 -0.3296  0.0986
21325W        W40179   3.863   1.047   2.646  0.3894 -0.2607 -0.2569
21326W        W40180   9.706   7.769  16.586  0.1322 -0.1180  0.2073
21327W        W40181   6.106   6.373   5.092 -0.0518 -0.0815 -0.2191
21328W        W40182  14.160   5.185   4.548  0.1876  0.1791 -0.1283
21329W        W40183  14.736  13.790  13.262 -0.1865  0.0826 -0.0861
21330W        W40184   1.787   3.013  15.377 -0.1825 -0.0990 -0.0764
21331W        W40185   5.565  13.000   0.060 -0.0607  0.0685 -0.0396
21332W        W40186   8.776   0.414   5.103  0.0603  0.2639 -0.2708
21333W        W40187  16.832   6.471  13.606 -0.0973  0.2382 -0.2169
21334W        W40188  11.966  16.830  14.192 -0.0166  0.1107 -0.0030
21335W        W40189   0.252   6.318   0.806  0.1502 -0.1400 -0.0709
21336W        W40190   1.998  15.638   2.531  0.5313 -0.1731  0.0433
21337W        W40191  13.814  10.199  13.355 -0.1667  0.1959 -0.0531
21338W        W40192   8.872   9.495  15.894 -0.1882 -0.0625  0.1705
21339W        W40193   0.716  12.108   1.716  0.5022  0.2131  0.0649
21340W        W40194   6.542  15.106  13.425  0.0925 -0.1889 -0.1639
21341W        W40195  15.960   9.094  13.380  0.0824 -0.0683 -0.0119
21342W        W40196   8.454   9.368   3.713  0.0091 -0.1519  0.0062
21343W        W40197   5.583   1.952   3.792 -0.2898 -0.1476  0.0633
21344W        W40198  13.735  14.333  12.881 -0.0354 -0.0105 -0.0642
21345W        W40199   2.837   2.500   1.316  0.0254  0.0207  0.2193
21346W        W40200  12.321   5.241  17.378 -0.0678  0.0933  0.0633
21347W        W40201  17.334  15.152  13.742  0.1668  0.1114 -0.1036
21348W        W40202  13.269  12.268   4.304 -0.0327  0.1242  0.1981
21349W        W40203  13.806  11.514  17.021  0.0598 -0.0866  0.2253
21350W        W40204  13.467   9.899   1.258  0.1004 -0.0760  0.0535
21351W        W40205   2.650  17.294   2.914 -0.2920  0.3093  0.1211
21352W        W40206  11.664   9.115   2.700  0.1534 -0.2471  0.2270
21353W        W40207  12.418   8.866   3.179 -0.0245  0.1434  0.0497
21354W        W40208  16.975   6.935   4.024 -0.0336 -0.0113 -0.1701
21355W        W40209   0.784   7.305   0.741  0.1903 -0.1505 -0.0680
21356W        W40210   3.325   7.127  15.252 -0.2233  0.0105  0.0273
21357W        W40211   8.155  10.318   3.669  0.2691  0.2792  0.1038
21358W        W40212  14.254  15.415  16.942  0.0582 -0.2603 -0.5455
21359W        W40213   1.199   9.757  13.237  0.0747  0.5927 -0.0061
21360W        W40214   8.545   1.948  15.196  0.0579  0.0002 -0.0322
21361W        W40215   3.419  15.931  14.258  0.1952  0.1342 -0.0879
21362W        W40216  10.668  16.815   5.087  0.2738  0.1396  0.1944
21363W        W40217   1.208  15.577   4.964 -0.1361  0.0615  0.0901
21364W        W40218  14.277  15.761  17.368  0.0928  0.2137  0.1601
21365W        W40219   7.681   8.009   0.094 -0.0091 -0.1772  0.0588
21366W        W40220   7.573   0.780  14.293  0.0384 -0.3483  0.0946
21367W        W40221   4.094  12.228   4.587  0.0476  0.0325 -0.0837
21368W        W40222   1.207   3.339   0.354  0.0627 -0.0623  0.0881
21369W        W40223  11.878  16.038  15.570 -0.0512  0.0751 -0.0086
21370W        W40224  11.996   0.640  12.342 -0.1851  0.3213  0.0161
21371W        W40225   9.747  11.063   5.144  0.0552 -0.0669  0.2741
21372W        W40226  13.989  16.117   0.828 -0.2845  0.1266  0.0513
21373W        W40227  12.740   8.150  13.327 -0.3112  0.1029  0.0865
21374W        W40228   5.679  16.076  14.168 -0.2158  0.1306  0.0580
21375W        W40229  13.969  11.914   4.158 -0.3153  0.1195  0.1054
21376W        W40230   9.021   7.767   1.347  0.0635  0.0927 -0.1702
21377W        W40231   9.895   7.086  13.167 -0.0600  0.2451 -0.1112
21378W        W40232   7.575   3.268   4.920 -0.0370  0.1151  0.0812
21379W        W40233   6.840  15.405   4.916 -0.0282  0.1297  0.2864
21380W        W40234  11.100   9.583  15.312 -0.1183  0.1108 -0.0732
21381W        W40235   9.557  17.305  15.212  0.0781 -0.0291 -0.0477
21382W        W40236  11.734  16.082  16.407 -0.0499  0.0237  0.0689
21383W        W40237   3.423   6.701   1.356 -0.1629 -0.1490 -0.0027
21384W        W40238  10.088  16.233   2.975  0.2432  0.0158 -0.1277
21385W        W40239  10.147  10.054   2.756 -0.2551  0.2102 -0.0064
21386W        W40240   3.794  11.326  14.659  0.1330 -0.0269 -0.1669
21387W        W40241   6.418   0.962   3.319  0.4962  0.1319 -0.0664
21388W        W40242  13.129  15.312   0.101  0.0505 -0.2186  0.0840
21389W        W40243   9.619  11.624  12.218 -0.0261 -0.0292  0.3710
21390W        W40244  16.443  13.438   1.706  0.1315  0.0693 -0.0815
21391W        W40245  14.192  12.107  12.940  0.0800  0.2043  0.0145
21392W        W40246   9.785   4.145   2.838 -0.1277  0.1517  0.3079
21393W        W40247   0.704   3.264  14.034  0.1117 -0.1068  0.0446
21394W        W40248   9.999   7.375   4.767  0.0068  0.3093  0.1128
21395W        W40249  12.185  12.837   1.042  0.1206  0.2227 -0.2807
21396W        W40250   1.349  10.136   4.892 -0.1172  0.1979 -0.0853
21397W        W40251   7.344   6.905   4.907  0.1379  0.0247 -0.3431
21398W        W40252   6.514  10.759   4.904 -0.1760 -0.1920 -0.0914
21399W        W40253   5.157   6.480   3.051  0.1817 -0.2339 -0.0198
21400W        W40254  16.668   7.301   0.220 -0.0446  0.0847  0.1361
21401W        W40255   6.022   8.010  15.187  0.0932  0.3076  0.0977
21402W        W40256  15.763   1.165  13.788 -0.0624 -0.3949 -0.0664
21403W        W40257  10.681  14.716   0.690 -0.1110 -0.0622  0.0405
21404W        W40258  13.482   8.372   4.776  0.2622 -0.2170 -0.1709
21405W        W40259   3.410  14.001   0.527  0.0573  0.3166  0.0357
21406W        W40260  12.441  12.539  15.446  0.1745 -0.0605  0.1319
21407W        W40261  14.453   4.875  13.629 -0.0456 -0.1856  0.1054
21408W        W40262   5.150   2.619  14.115 -0.1594 -0.0484 -0.1186
21409W        W40263  10.571   5.741   1.458  0.1456 -0.1867  0.1126
21410W        W40264   6.410   8.266  14.378  0.1787 -0.3468  0.0027
21411W        W40265  14.310  12.174   5.088 -0.3915 -0.0299  0.0328
21412W        W40266   1.394   3.768  15.260  0.0978  0.0090 -0.0329
21413W        W40267   1.939  17.322   5.460 -0.0137  0.3967 -0.0575
21414W        W40268   7.214   5.264  16.388  0.3274  0.3384  0.2858
21415W        W40269  12.990   6.281  14.536 -0.1512 -0.0251 -0.0544
21416W        W40270   3.256   0.111   5.251  0.0543 -0.1650 -0.1635
21417W        W40271  17.030  12.276  12.881  0.0575  0.1818 -0.1646
21418W        W40272   1.634   2.294   0.653 -0.1185  0.2520 -0.0898
21419W        W40273   3.523   8.014  13.345  0.0159 -0.2570 -0.0537
21420W        W40274  12.532   3.737  12.354 -0.2192  0.0638 -0.2235
21421W        W40275   9.117   3.841  16.420 -0.0872 -0.2021 -0.0782
21422W        W40276  12.900   8.661   3.383 -0.4726 -0.0967 -0.1095
21423W        W40277  10.898   4.521   0.001 -0.1801 -0.3365 -0.1635
21424W        W40278   7.206   3.472  15.252  0.3371 -0.1724  0.0740
21425W        W40279  17.040   1.849  14.680 -0.0270  0.3822  0.0423
21426W        W40280   7.716  13.092  15.792 -0.2899 -0.2819 -0.0537
21427W        W40281  10.476  10.900   2.720 -0.0402 -0.0866 -0.2166
21428W        W40282  15.311  14.962  14.917  0.1843  0.3682 -0.1194
21429W        W40283   6.781   2.794  12.950  0.1846  0.0440 -0.0267
21430W        W40284   6.768  15.558   6.323  0.1274 -0.0845 -0.0552
21431W        W40285  12.698  11.555   4.653 -0.1777  0.0892 -0.2195
21432W        W40286  10.942   6.536   2.385 -0.1180 -0.0326 -0.3534
21433W        W40287  13.716  11.278  13.442 -0.1906 -0.0817 -0.2654
21434W        W40288   9.779  13.119  14.637  0.1439  0.1321  0.0063
21435W        W40289   6.900   8.568  16.599  0.2966 -0.0874 -0.1312
21436W        W40290   4.999   2.188   3.828  0.2069 -0.1462  0.0274
21437W        W40291   6.620   7.569  12.796  0.2919  0.1777 -0.1009
21438W        W40292   4.263  13.919   4.965 -0.1154 -0.1060  0.1229
21439W        W40293   9.954   3.905  15.546 -0.0861 -0.4939  0.0981
21440W        W40294  12.473  13.257   2.208  0.2109 -0.1405  0.0668
21441W        W40295   9.401   2.955   2.301  0.0678  0.0344  0.1880
21442W        W40296   0.916   9.410  13.468 -0.3324  0.1621 -0.0194
21443W        W40297  10.492  10.886  16.262  0.1069 -0.2776  0.0398
21444W        W40298   3.145  16.196   4.120  0.0774 -0.1148  0.1506
21445W        W40299   8.611   1.586   5.115  0.0630  0.0902  0.0769
21446W        W40300   2.737  11.413  15.337 -0.0607  0.0219  0.1970
21447W        W40301   0.289  16.746   3.288 -0.0126 -0.1681 -0.0495
21448W        W40302  12.846   6.326  16.512  0.3532 -0.1548  0.1117
21449W        W40303  15.008  14.531   4.855 -0.0959  0.0369  0.0299
21450W        W40304  10.887   9.505   4.560  0.0779  0.3016 -0.0082
21451W        W40305   6.943  11.192  17.273  0.1122  0.1650  0.2053
21452W        W40306   4.177  15.652  15.376  0.1910  0.0258 -0.0111
21453W        W40307  10.676   9.773  17.115  0.3777 -0.1406 -0.3381
21454W        W40308  15.920   8.129  16.714 -0.0305  0.0990 -0.2135
21455W        W40309   7.430   9.130   0.782  0.2069  0.1612  0.0332
21456W        W40310  16.436   0.775   5.607 -0.0410  0.1393 -0.0327
21457W        W40311  11.278   5.900  12.912 -0.0458  0.0011 -0.2399
21458W        W40312   3.346   5.839   3.514 -0.2657  0.0662 -0.2846
21459W        W40313  12.948  10.722   2.453 -0.1726  0.0976 -0.0496
21460W        W40314   3.882  16.763  13.933  0.2286  0.1204  0.0373
21461W        W40315   8.052  13.216   2.472  0.2909 -0.1678  0.0157
21462W        W40316  15.231   7.236  16.151  0.3016  0.1777 -0.0246
21463W        W40317  14.160  12.593  11.880  0.0335  0.1033 -0.0679
21464W        W40318   0.018   7.589   4.106 -0.0147  0.0750  0.0300
21465W        W40319   7.265  10.944  14.261 -0.4161  0.1082  0.2890
21466W        W40320   4.498   2.544  13.256  0.0631  0.0142 -0.1050
21467W        W40321   0.421  12.063  13.107 -0.0800  0.3356  0.1434
21468W        W40322   3.194   8.739  15.178 -0.2927 -0.3732  0.0238
21469W        W40323   3.123   7.586  12.727  0.3915 -0.0507  0.1433
21470W        W40324   8.544   5.654  15.521  0.1285 -0.3623 -0.1298
21471W        W40325   3.651   0.062  17.096 -0.2208  0.0460 -0.3909
21472W        W40326   7.587   7.734   1.946 -0.0758 -0.3576 -0.2299
21473W        W40327  14.611   7.683   0.868 -0.1004 -0.0984  0.1660
21474W        W40328   0.065   2.143  13.116  0.2968  0.0212  0.0157
21475W        W40329   7.411   7.576   3.705  0.0722  0.1829  0.1379
21476W        W40330   1.996  16.054  17.242  0.0151 -0.3647 -0.0459
21477W        W40331  13.442  10.214  16.792  0.0086  0.0012 -0.0553
21478W        W40332  13.606  14.757  13.286 -0.0050  0.4235 -0.0396
21479W        W40333  10.470  16.693  14.662  0.1183 -0.1918 -0.0343
21480W        W40334   3.159   9.018  14.797  0.1302 -0.4595 -0.0432
21481W        W40335   4.297   5.415   0.156 -0.2211 -0.3844 -0.1979
21482W        W40336   1.019   5.426   2.676 -0.1813 -0.1625 -0.1227
21483W        W40337  13.140  11.720   1.260  0.1269 -0.2048  0.1449
21484W        W40338   3.637   7.538  16.924  0.1519  0.0516 -0.2493
21485W        W40339   6.022   0.984   0.120  0.1565 -0.2861  0.1116
21486W        W40340   2.589   0.815   3.936  0.0656 -0.0683 -0.0152
21487W        W40341  16.275   1.322   5.040 -0.3026 -0.0557  0.0313
21488W        W40342  12.106   7.818  13.745 -0.0244 -0.1153  0.0675
21489W        W40343   2.385  15.312   1.421  0.1667  0.0116  0.2473
21490W        W40344   7.726  10.255  14.953 -0.1411 -0.1410 -0.1338
21491W        W40345   4.290  13.550   3.869  0.1996  0.1187 -0.1094
21492W        W40346   7.200   5.415   5.611 -0.0701 -0.1543  0.1477
21493W        W40347   0.904   6.467  17.366 -0.3424 -0.1038 -0.0036
21494W        W40348  15.294  15.473   5.303  0.0365 -0.1348  0.2590
21495W        W40349   3.705   2.165  17.204 -0.0875 -0.1674 -0.0763
21496W        W40350   1.823  16.455   2.244 -0.0864 -0.2031 -0.2849
21497W        W40351   7.187   3.042   1.435 -0.0872 -0.0910 -0.2261
21498W        W40352   3.185   7.566  15.427 -0.2717 -0.1198  0.1752
21499W        W40353   0.873  16.012   1.558  0.0368 -0.0777 -0.0985
21500W        W40354  15.090  11.811   5.280 -0.0616 -0.2166 -0.0506
21501W        W40355   0.279   5.349  15.948 -0.0539  0.0809  0.0342
21502W        W40356   2.846   6.249  15.759  0.0853 -0.1145 -0.0785
21503W        W40357   7.195  12.223   0.495 -0.1619 -0.0356 -0.0200
21504W        W40358   0.760  17.072  12.346 -0.0162  0.1602  0.0386
21505W        W40359   8.763   0.538   0.412 -0.0678 -0.2465  0.2406
21506W        W40360   3.586  11.852  13.388  0.2192 -0.0251 -0.1640
21507W        W40361  10.796  15.670  17.346  0.0175 -0.0630  0.1056
21508W        W40362   7.905  12.380  13.123 -0.0106 -0.0860 -0.0037
21509W        W40363  16.495   6.840   4.225 -0.0739 -0.2556 -0.2288
21510W        W40364   9.770  17.318  13.130  0.0523 -0.1285 -0.1642
21511W        W40365   2.064   0.338   5.052  0.0124 -0.0264 -0.1998
21512W        W40366   8.825   0.516   3.482 -0.1258 -0.0335  0.2431
21513W        W40367   3.416  12.172  12.482  0.2975 -0.0560  0.0621
21514W        W40368  16.416   8.486   4.644 -0.0373  0.1818  0.0279
21515W        W40369  14.770   1.397  17.217  0.1667  0.0633  0.2283
21516W        W40370   3.210  16.127  14.708  0.2079 -0.1613  0.0669
21517W        W40371   8.508  16.808   1.137  0.1161 -0.0834 -0.1284
21518W        W40372  14.266   2.752  16.745 -0.2688  0.3732  0.0144
21519W        W40373   8.369   7.923  12.644  0.0075  0.1568  0.1238
21520W        W40374  10.091  10.505   0.040 -0.0445  0.1652 -0.2472
21521W        W40375   7.632   0.389  11.472 -0.1487 -0.1754  0.1450
21522W        W40376  13.330   0.079   1.314 -0.1447 -0.1889 -0.2737
21523W        W40377   3.356  13.863  16.769 -0.0273 -0.3063 -0.1955
21524W        W40378   1.212   2.764  16.410  0.1476 -0.1887  0.1811
21525W        W40379  11.182   4.005  15.679 -0.0759  0.0543 -0.0762
21526W        W40380   1.953  10.194   4.352  0.3047  0.1472 -0.2325
21527W        W40381  13.774  13.899   2.221  0.2563 -0.1524 -0.0562
21528W        W40382   3.662   1.707   3.982  0.1567 -0.1740  0.0700
21529W        W40383   0.582   4.955   0.273  0.2033  0.1978  0.2067
21530W        W40384   8.950  13.297  13.558  0.2788 -0.2590 -0.2143
21531W        W40385   0.740   8.123  13.002 -0.3013 -0.0746 -0.0580
21532W        W40386  15.341   7.057   4.429  0.1224 -0.2241  0.0506
21533W        W40387   6.947  13.047  15.155 -0.2480  0.1199 -0.1115
21534W        W40388   2.432   7.099   4.879 -0.0052  0.1633 -0.1714
21535W        W40389  13.082   5.826   3.803  0.0933  0.0298 -0.2043
21536W        W40390  14.850  11.379   4.452  0.2221 -0.1580  0.0789
21537W        W40391   2.376   3.114   1.067 -0.1097  0.1090  0.0683
21538W        W40392  13.400  10.573  13.311 -0.1271  0.0680  0.0853
21539W        W40393   2.132   1.234   4.768  0.1225 -0.1413 -0.0874
21540W        W40394   5.720  17.038  13.341  0.1460 -0.1619 -0.0524
21541W        W40395  17.178  17.106   3.171  0.3690  0.3464  0.0930
21542W        W40396   8.928  12.607   4.258 -0.0723  0.0584  0.0606
21543W        W40397   3.490  16.219  16.671 -0.0561  0.0317  0.1730
21544W        W40398   8.909  14.501  11.941  0.1470  0.0577 -0.0180
21545W        W40399  12.877   9.931  14.404  0.0953  0.0081 -0.0453
21546W        W40400   7.723  10.435   3.301 -0.0289  0.0130  0.0678
21547W        W40401   4.867   8.472  12.817  0.0298  0.1962 -0.6500
21548W        W40402  10.758   1.503   1.792 -0.1603 -0.0029 -0.1983
21549W        W40403  13.302  12.162  14.437  0.0178 -0.0999 -0.0023
21550W        W40404   1.960   1.604   5.138 -0.1521 -0.2368 -0.1406
21551W        W40405   1.423   7.415   3.862 -0.1418  0.1582  0.2017
21552W        W40406  12.758   1.424  15.130  0.0378 -0.1862  0.1187
21553W        W40407   9.618   5.941   4.194 -0.0149 -0.3845 -0.0981
21554W        W40408   6.737   8.863   3.343  0.0763 -0.4459 -0.3311
21555W        W40409  14.372   8.740  12.537 -0.0442  0.0882 -0.1087
21556W        W40410  17.340   1.632   0.945  0.1204  0.1619 -0.4225
21557W        W40411  12.671  10.693  16.716  0.5592  0.2659 -0.2565
21558W        W40412  11.519   2.190   0.485 -0.1535 -0.1228  0.0343
21559W        W40413  16.864   0.816   4.365  0.1612  0.1454  0.1886
21560W        W40414  14.037   7.755  17.143 -0.2015  0.0655  0.2356
21561W        W40415   7.419   0.096  15.956 -0.1311  0.0445  0.1730
21562W        W40416   0.702   9.072   4.502  0.1543 -0.0501 -0.0149
21563W        W40417   6.486   5.971   1.194  0.0232  0.0869 -0.0732
21564W        W40418  12.895  12.907  16.703  0.0748 -0.1066 -0.0583
21565W        W40419   4.043   1.077   3.456 -0.1381 -0.0195  0.3670
21566W        W40420  11.770  14.500  15.709 -0.0853  0.0195 -0.1200
21567W        W40421   3.488   2.749   4.538  0.0084  0.1685 -0.1138
21568W        W40422   0.205  13.371  14.439  0.1887  0.4146 -0.0113
21569W        W40423  14.876   5.181  15.465 -0.1014  0.0634 -0.0289
21570W        W40424   4.075   1.206  13.967  0.0624  0.0942 -0.1872
21571W        W40425   7.556  10.236  11.979 -0.0353  0.1356 -0.0853
21572W        W40426  12.763   2.189  16.604  0.0137 -0.0925  0.0857
21573W        W40427   7.967   1.095  14.129 -0.3269 -0.1363  0.0974
21574W        W40428  15.158   6.104   1.600  0.1701 -0.1017  0.2325
21575W        W40429  11.050  15.923  13.962 -0.0532 -0.0397  0.0687
21576W        W40430   7.514   6.197   0.529  0.0679 -0.2850 -0.0245
21577W        W40431  16.339   4.191   1.984 -0.0528 -0.1696 -0.1099
21578W        W40432   4.529  17.095   0.624  0.1599  0.0222  0.0795
21579W        W40433   8.358   2.201   3.671 -0.0435  0.3430 -0.0036
21580W        W40434  15.876   5.823   2.652  0.2044  0.0922  0.2364
21581W        W40435   9.132   4.868   6.563  0.1036 -0.3292 -0.2447
21582W        W40436   0.987   0.258  16.066  0.2226 -0.2345 -0.0438
21583W        W40437   6.135   0.084   5.432 -0.2567 -0.2527 -0.0468
21584W        W40438   2.747   7.562  13.380  0.1078  0.0617 -0.0645
21585W        W40439  13.479   4.159   1.890 -0.0936  0.2605  0.3124
21586W        W40440   2.428  15.906  15.932  0.2561 -0.0181  0.1746
21587W        W40441  16.950   8.356  12.139 -0.2705 -0.0990 -0.1191
21588W        W40442  15.409  17.140  12.743  0.0834  0.0166 -0.0248
21589W        W40443  16.473  11.501  17.288  0.2869  0.1893 -0.1785
21590W        W40444   4.222   4.467   0.454  0.1257  0.1067  0.0235
21591W        W40445  12.661   6.038   3.686 -0.1332 -0.0294 -0.0553
21592W        W40446  14.807  10.609   1.838 -0.1123 -0.0663 -0.1507
21593W        W40447   2.947   1.006   5.146  0.0302  0.0238  0.1235
21594W        W40448   9.337   4.465   2.737  0.1328 -0.2214  0.1082
21595W        W40449   0.829   0.786  16.395  0.0531  0.5181 -0.2770
21596W        W40450   9.077   4.039   1.734  0.2418  0.1560 -0.0298
21597W        W40451  11.952  10.879  11.397  0.1153  0.1868  0.0895
21598W        W40452   9.193   7.196   5.000  0.0572  0.0678  0.1102
21599W        W40453   6.571  15.587   4.502 -0.2141 -0.0398 -0.0806
21600W        W40454  11.424  17.114  16.293  0.0015 -0.0386 -0.2010
21601W        W40455   3.491   8.381   0.064 -0.3231 -0.1361  0.1542
21602W        W40456  11.388   9.250   2.275 -0.0817  0.0739  0.0078
21603W        W40457  13.264   6.534  13.275  0.0491 -0.1248 -0.0817
21604W        W40458   8.196   3.508  13.810  0.2671  0.1637 -0.0362
21605W        W40459   3.790   5.056  17.230 -0.0054 -0.1796 -0.0667
21606W        W40460   4.090  15.801   0.081 -0.2181  0.2204 -0.1190
21607W        W40461  16.272   1.754   2.559  0.3207 -0.1414  0.2442
21608W        W40462  11.250  16.233  16.214  0.1421  0.3270  0.2396
21609W        W40463   7.054   3.349  13.979  0.0355 -0.1116 -0.0914
21610W        W40464  16.157   5.556  13.984  0.1803 -0.1738 -0.0746
21611W        W40465   3.782   2.289   2.872 -0.0959 -0.0183 -0.0673
21612W        W40466   3.155  11.454   3.695 -0.0119 -0.0688 -0.1611
21613W        W40467   1.486   8.950   0.311  0.1221 -0.0519 -0.2234
21614W        W40468   5.611  13.853  15.474  0.0293  0.1700  0.0375
21615W        W40469   4.961   2.726   4.030 -0.0022 -0.1181 -0.0958
21616W        W40470   1.593  13.722   4.431 -0.3746 -0.0978  0.2573
21617W        W40471   2.258  15.370  15.526  0.0480  0.4035 -0.1865
21618W        W40472   6.390  11.469   2.505 -0.3041  0.0967 -0.3511
21619W        W40473  12.372  12.697   3.212  0.0331 -0.0248  0.2392
21620W        W40474  12.974  14.437  16.071  0.0090  0.1306  0.2397
21621W        W40475  16.178  13.419   3.399 -0.0134  0.1700  0.2716
21622W        W40476  11.695  11.015   3.900 -0.2172 -0.0354 -0.1476
21623W        W40477   5.400  10.225  13.032 -0.1270  0.1411 -0.1011
21624W        W40478  13.675  12.906   5.322  0.1818  0.1279 -0.0897
21625W        W40479  13.556  11.996  16.124  0.0043  0.1606  0.1733
21626W        W40480   1.093   7.354   4.842 -0.0922  0.2034 -0.0472
21627W        W40481  16.742  15.335   2.687  0.1593  0.1116  0.1629
21628W        W40482   3.081   3.850   5.339 -0.3394 -0.1589 -0.2367
21629W        W40483  14.516  10.806   0.915 -0.0314 -0.1734  0.0689
21630W        W40484  13.655  12.063   0.311  0.0581  0.0775 -0.3888
21631W        W40485   2.776  13.578   3.418  0.1701  0.0947 -0.1827
21632W        W40486   9.743  11.853   5.646  0.0787  0.2648 -0.1435
21633W        W40487   6.646   3.470   3.593 -0.3200  0.0893 -0.1487
21634W        W40488   3.327  16.189   1.581 -0.1304  0.0736 -0.0947
21635W        W40489  17.243  13.070   2.304 -0.0404 -0.3204  0.0533
21636W        W40490   4.866   8.600   5.125 -0.1357 -0.2241  0.0360
21637W        W40491   7.485  15.255   3.433 -0.0628  0.3304 -0.1567
21638W        W40492   3.522   4.889  16.820 -0.0345 -0.1575  0.0379
21639W        W40493   3.601   6.592  17.346  0.0303 -0.1278  0.0567
21640W        W40494  13.425  14.768  12.740 -0.0935  0.1157  0.1784
21641W        W40495   3.011   0.540   5.307 -0.1287 -0.5200 -0.2449
21642W        W40496  13.687  10.255  17.220  0.1598 -0.1810  0.0894
21643W        W40497   1.687   0.904  15.291 -0.1638 -0.0061 -0.1814
21644W        W40498   4.321   5.095  14.763  0.0723  0.4205 -0.2281
21645W        W40499  14.881  10.646  13.540 -0.0936  0.2610  0.1464
21646W        W40500   6.560  11.631  12.119 -0.0755 -0.1609 -0.4075
21647W        W40501   5.414   8.228   5.452  0.0230 -0.1287  0.2049
21648W        W40502   6.433  16.385   2.066  0.2161  0.0088 -0.1671
21649W        W40503   3.218  13.223  14.999  0.0796  0.1230  0.1674
21650W        W40504  14.352  11.824  14.606 -0.0563 -0.0701  0.0210
21651W        W40505   1.733   2.087  16.028  0.2712  0.1126 -0.0532
21652W        W40506   2.928  12.639   0.449 -0.0720  0.0064 -0.3726
21653W        W40507  15.827  16.218   3.229 -0.1974 -0.0118 -0.0475
21654W        W40508  14.751  14.273  12.381  0.2394  0.2672 -0.0891
21655W        W40509   0.216  10.743   4.311 -0.0082  0.1114  0.1425
21656W        W40510  11.895   0.230   4.557  0.2134 -0.0558  0.0205
21657W        W40511   9.816   6.009  17.180  0.2744  0.2055 -0.1523
21658W        W40512   4.087   4.933   0.612  0.0841  0.0803 -0.2789
21659W        W40513  15.560  11.904  14.047 -0.0284  0.1979  0.0807
21660W        W40514  13.120  13.380  13.661 -0.4465 -0.1471  0.2404
21661W        W40515  11.106   5.903  17.104 -0.0668  0.1929  0.1228
21662W        W40516  15.431   3.066  15.288 -0.0329 -0.2325 -0.0045
21663W        W40517   8.714   9.640   2.030  0.3308 -0.2695 -0.1050
21664W        W40518   6.432  12.100  14.965  0.2723 -0.0027 -0.1203
21665W        W40519  16.886   8.536   3.768 -0.0497  0.1132  0.1132
21666W        W40520   9.442   5.427   2.834  0.1971  0.1026 -0.3676
21667W        W40521   7.846  11.777  16.348 -0.0691 -0.1496  0.0940
21668W        W40522  15.046  16.630   4.470  0.0754 -0.0553 -0.0029
21669W        W40523  16.975  13.158  17.068 -0.0029 -0.0317 -0.3820
21670W        W40524   1.602   8.214  15.938 -0.1271  0.2293  0.2265
21671W        W40525   9.414   6.736   3.296 -0.2733 -0.0859 -0.2835
21672W        W40526  16.367  10.177  14.845 -0.1679  0.0281 -0.0759
21673W        W40527  17.173  13.811   4.680 -0.0741 -0.0357  0.2519
21674W        W40528   1.572   3.614   1.733 -0.1551 -0.0669  0.0984
21675W        W40529  13.329  11.966  15.393  0.1080  0.0150 -0.3369
21676W        W40530  15.200  12.361  17.026 -0.1084 -0.0157 -0.3547
21677W        W40531   7.550   5.541  15.629 -0.0398  0.4342  0.1507
21678W        W40532  10.066   4.834   1.617 -0.0747  0.1533  0.2594
21679W        W40533   9.199   0.985  15.605  0.1374 -0.2601 -0.1212
21680W        W40534  13.342  14.979  16.459  0.2652 -0.0274  0.1578
21681W        W40535   8.627   1.907   1.892  0.2952  0.0727 -0.1078
21682W        W40536   4.914  15.513   0.331 -0.4133  0.0502 -0.2192
21683W        W40537   5.035   4.646  13.212 -0.0265 -0.0674  0.1725
21684W        W40538   2.810  11.426  17.232  0.0652  0.1557  0.1737
21685W        W40539   6.572   5.188  15.845 -0.0593  0.0769  0.0967
21686W        W40540  11.720  12.504  13.601 -0.1346  0.2951 -0.1595
21687W        W40541  10.940   9.148   3.427 -0.0055  0.0317  0.3829
21688W        W40542   0.297   7.020   3.236  0.0686 -0.0171  0.3023
21689W        W40543   2.928  14.407  12.105  0.3689 -0.0782 -0.1683
21690W        W40544   9.105  13.037  13.981  0.0696 -0.0594 -0.0381
21691W        W40545  14.593   3.478   6.187  0.1376 -0.0384 -0.1044
21692W        W40546   9.793   0.454   3.213 -0.4116  0.0599 -0.0629
21693W        W40547   7.095   7.790   2.030  0.0819 -0.0457 -0.0084
21694W        W40548  11.846   5.702   1.328  0.3956  0.2552 -0.1590
21695W        W40549   8.602   5.079  16.482 -0.0978 -0.2362  0.2618
21696W        W40550  13.066  16.688   4.794 -0.2478  0.0486  0.1764
21697W        W40551   8.467  10.162  14.878  0.0893  0.1677  0.2861
21698W        W40552  13.436   0.357  13.326  0.1492  0.0006  0.0453
21699W        W40553   7.345   5.257  12.371  0.0903 -0.0672 -0.0247
21700W        W40554  11.664   0.198   0.553  0.2468 -0.1596 -0.1130
21701W        W40555  14.971  12.543   2.880  0.0018 -0.0904  0.0337
21702W        W40556   0.677   1.458   5.125 -0.0550  0.0835  0.2881
21703W        W40557  14.548   2.791   0.268 -0.0104 -0.2332  0.2791
21704W        W40558   2.616  16.807   2.070  0.0118  0.1096  0.1199
21705W        W40559   0.890  13.078   4.600 -0.1040  0.1921  0.0386
21706W        W40560   4.453  13.705  12.917 -0.1854  0.3922  0.0126
21707W        W40561  16.013  10.416  14.565 -0.2328 -0.1030 -0.0553
21708W        W40562  12.621  13.437  16.760 -0.4422 -0.1840 -0.2154
21709W        W40563   1.566   7.787  12.707 -0.1984  0.0011 -0.0328
21710W        W40564   8.654   9.586   4.977  0.0067  0.0940  0.1197
21711W        W40565  15.671  13.911   2.018  0.2933  0.0619 -0.2379
21712W        W40566  16.242   8.068   5.338  0.2480 -0.0582  0.0885
21713W        W40567   0.508   3.773   2.143  0.1444  0.0322  0.0990
21714W        W40568  10.744   7.623   5.314  0.1760  0.0184 -0.1085
21715W        W40569   6.002   0.167  12.272  0.2046  0.0441 -0.0038
21716W        W40570  14.125   1.004   2.520  0.0355  0.0627 -0.1386
21717W        W40571   6.309   5.215   3.140 -0.2051  0.1733 -0.2849
21718W        W40572   7.070   6.293   0.901  0.1644  0.2559 -0.0082
21719W        W40573   0.772  11.595   1.466  0.0715  0.4631 -0.0789
21720W        W40574  14.114   3.343  12.630 -0.0707  0.0952 -0.1186
21721W        W40575   6.293  16.831  16.552 -0.2474 -0.0206  0.0470
21722W        W40576  12.290   5.663  13.599  0.2205 -0.0121 -0.2733
21723W        W40577   4.066  11.941  13.252 -0.1595 -0.1196 -0.0966
21724W        W40578   9.840   9.360  12.227 -0.1180 -0.1817  0.3153
21725W        W40579  11.158  14.881  12.548 -0.2703  0.2488  0.2447
21726W        W40580  15.660   9.327   0.476  0.1806 -0.1370  0.4080
21727W        W40581  12.489   6.635  16.324  0.1853  0.1287  0.0388
21728W        W40582   3.306  14.729  12.210  0.1197  0.3413 -0.5023
21729W        W40583   8.087   5.693  16.799  0.0882  0.1660 -0.3854
21730W        W40584   3.949  12.022   2.319  0.0982  0.4849 -0.2949
21731W        W40585  16.865   9.397   5.449 -0.0188  0.1601  0.1564
21732W        W40586  15.458   7.983  16.903 -0.4260 -0.0981  0.4028
21733W        W40587   4.181   4.274  13.309  0.1918 -0.1865  0.1413
21734W        W40588   0.208   1.493  13.818  0.0986  0.0674  0.1753
21735W        W40589  14.632  15.253   0.631 -0.1475 -0.1582 -0.5909
21736W        W40590   6.158  13.059   3.707  0.1277 -0.1639 -0.2194
21737W        W40591  10.598   8.066  16.850 -0.0857  0.0150 -0.1048
21738W        W40592   2.790   9.659   2.392  0.1127 -0.0645 -0.1786
21739W        W40593  13.658   8.768   4.998  0.0549  0.1499 -0.0842
21740W        W40594   9.128  15.613  15.055  0.2479  0.2600 -0.0488
21741W        W40595   9.189  12.682  16.749  0.2545  0.1810 -0.1400
21742W        W40596   6.211  16.190   4.860 -0.0983 -0.3287 -0.0709
21743W        W40597  13.588   1.755   4.846  0.0706  0.1552 -0.0247
21744W        W40598   8.011  17.026  13.742 -0.3910  0.1756  0.2353
21745W        W40599  14.586   0.325   0.228  0.2582 -0.1345  0.1184
21746W        W40600  14.875   2.242  14.477  0.2691  0.1333  0.2916
21747W        W40601  13.517   6.772   4.869  0.1176  0.0023  0.0040
21748W        W40602  11.828   6.326   4.659  0.0668  0.0763 -0.1194
21749W        W40603   6.097  14.568   0.932 -0.0310 -0.0239 -0.2968
21750W        W40604   7.978  10.606   0.679 -0.1700  0.0721  0.2465
21751W        W40605   6.749  12.579   3.364 -0.0772 -0.1673 -0.0485
21752W        W40606   9.948   1.602   4.980 -0.0254  0.2487  0.3082
21753W        W40607   6.077   4.760  13.645  0.0461 -0.0845 -0.0590
21754W        W40608   5.018   1.389   0.979  0.1519  0.0234  0.2937
21755W        W40609   7.798  12.812   2.649 -0.1409 -0.0872 -0.0715
21756W        W40610   2.456   1.392   3.957  0.0990  0.1965 -0.3039
21757W        W40611   7.278   9.067  16.684  0.1593  0.3924 -0.1053
21758W        W40612   1.688   6.522   3.534 -0.1524  0.0774  0.0686
21759W        W40613   0.187   0.740  14.306 -0.0384 -0.2177 -0.2395
21760W        W40614   5.654   9.064   0.758 -0.0757 -0.1943  0.0704
21761W        W40615   5.788  13.354  13.780  0.0943  0.0928  0.0375
21762W        W40616  11.595   7.329   1.090 -0.1316  0.0819  0.3810
21763W        W40617   7.715   3.207  15.946 -0.1997  0.0884 -0.0491
21764W        W40618  15.233  10.197  15.645 -0.0586  0.3567  0.2143
21765W        W40619   1.529   2.313   3.405 -0.0939  0.2335 -0.0033
21766W        W40620  13.540  13.130  17.439  0.3192  0.0235 -0.1995
21767W        W40621   0.967  12.546   4.739  0.1856  0.0284 -0.2259
21768W        W40622   1.457  13.099  16.205 -0.0205 -0.1850 -0.1261
21769W        W40623   2.923  11.218  12.667 -0.2097 -0.2458 -0.2759
21770W        W40624   2.322  15.264  16.567  0.0751 -0.0257  0.0378
21771W        W40625   8.932   1.274   4.167  0.0356  0.0366 -0.1047
21772W        W40626   3.929   4.568   1.431  0.0023  0.0870  0.0497
21773W        W40627   1.127   3.087   4.445  0.2095 -0.2101 -0.2808
21774W        W40628   1.450  12.231   2.111  0.0528 -0.3648  0.2204
21775W        W40629   1.792  17.302  13.933 -0.1698 -0.0688 -0.1141
21776W        W40630  12.036   5.910  16.945 -0.0586 -0.3182  0.1594
21777W        W40631   6.907   0.114   4.892 -0.0029 -0.0950 -0.0762
21778W        W40632  13.743   8.693  14.691  0.0778  0.2540 -0.1892
21779W        W40633   2.692  15.372  13.284 -0.0997  0.3274 -0.1052
21780W        W40634  13.665  13.252   4.327  0.0357  0.1661 -0.0003
21781W        W40635   6.275  16.617  13.254  0.1633  0.0672  0.3657
21782W        W40636  14.025  10.046   2.334 -0.0387  0.0632 -0.0072
21783W        W40637   4.116   7.290  15.237 -0.0487 -0.3497  0.0428
21784W        W40638   2.673   8.711  16.605 -0.1734  0.0429  0.0513
21785W        W40639   0.256  12.469  15.886  0.2062 -0.0524  0.2017
21786W        W40640  14.059  11.614   3.454 -0.0600 -0.0095  0.1091
21787W        W40641  12.632  16.406  12.059 -0.2291 -0.1052 -0.2069
21788W        W40642  14.686  12.544   0.851  0.2228  0.2602  0.0742
21789W        W40643   3.831  14.841  14.186 -0.0575 -0.0317 -0.2776
21790W        W40644  11.554   8.522  14.354  0.0832  0.0280 -0.2043
21791W        W40645  10.012   6.645   1.243  0.0299 -0.0390  0.1140
21792W        W40646  16.725   9.220  16.344 -0.1563  0.0901 -0.3762
21793W        W40647  16.656  10.920  14.978 -0.0065  0.3004  0.0002
21794W        W40648   8.936   2.892  14.795  0.0917  0.0984 -0.2561
21795W        W40649  17.335   0.095   3.999 -0.0139  0.0498 -0.1778
21796W        W40650  14.703  16.835   2.776  0.0402  0.2117  0.1809
21797W        W40651  10.158  15.619   4.409  0.1806 -0.1282  0.0478
21798W        W40652   4.821   7.241   1.291 -0.0913 -0.2959  0.0391
21799W        W40653   8.188   6.690   5.288  0.2657  0.0399  0.0332
21800W        W40654  16.886   6.700   5.137  0.1558  0.0010  0.1805
21801W        W40655  12.270   2.415   5.444 -0.0736  0.1114 -0.1324
21802W        W40656   6.148   9.354  13.867 -0.2747  0.2986  0.0538
21803W        W40657  14.674   9.882   0.037  0.2956  0.0951 -0.1161
21804W        W40658  17.129   2.864  16.662  0.1498  0.1639  0.1147
21805W        W40659  14.441  14.359  15.644 -0.0303  0.0087  0.3508
21806W        W40660  12.967   8.580  13.600  0.3574  0.1274 -0.0964
21807W        W40661  13.442   9.823   2.608  0.1737 -0.2766 -0.0422
21808W        W40662   9.711  17.023  16.722  0.1462  0.0255 -0.0537
21809W        W40663  13.231   0.403  15.660  0.1501  0.1720 -0.0820
21810W        W40664   6.179   8.141   2.297 -0.0142 -0.0453 -0.0589
21811W        W40665  12.373  14.515  12.501 -0.1075 -0.0134  0.1480
21812W        W40666   8.876   8.165  13.331 -0.2146 -0.0589  0.0044
21813W        W40667  11.870   6.632   3.839  0.0037  0.0635 -0.0797
21814W        W40668  13.710  10.427  12.936  0.2070 -0.0809  0.2186
21815W        W40669   2.714  12.487   1.612  0.5870 -0.2277 -0.1792
21816W        W40670   7.163   3.057  16.320  0.2650  0.2090 -0.3879
21817W        W40671   7.908  15.047   3.965 -0.0887  0.0196 -0.1184
21818W        W40672   8.689   4.251  15.693  0.0764  0.3109  0.0155
21819W        W40673  12.910  11.917  16.790 -0.0684 -0.1575  0.0826
21820W        W40674   0.155  16.598   1.689 -0.1647 -0.1032 -0.1213
21821W        W40675   6.734   5.776  11.363  0.1614 -0.1816  0.1813
21822W        W40676   1.841   7.053   5.135  0.1189 -0.0089 -0.1130
21823W        W40677   1.204   6.084  16.151  0.2210 -0.0662 -0.2188
21824W        W40678  16.308   6.049  14.009 -0.0783  0.1678  0.1400
21825W        W40679   4.959  16.462  16.677 -0.1293 -0.0856 -0.0619
21826W        W40680   8.430  14.147   1.690  0.1572 -0.1187 -0.0247
21827W        W40681  14.372   6.350   5.984 -0.1742  0.2358  0.0942
21828W        W40682   0.903  14.876  15.598 -0.1563 -0.3067 -0.0021
21829W        W40683   9.774  12.317  14.854  0.1964  0.0939  0.0223
21830W        W40684   9.885  13.645   1.905  0.0134  0.0377 -0.1835
21831W        W40685   6.182  15.888   3.390 -0.5438 -0.0190  0.0885
21832W        W40686   2.825   0.166   4.986  0.1311 -0.0518 -0.1289
21833W        W40687   6.247  12.675   4.940  0.1012 -0.2155  0.2027
21834W        W40688   1.523  13.801  12.536  0.1139  0.1848 -0.2228
21835W        W40689   9.425   7.953   2.191 -0.0703  0.5517  0.1387
21836W        W40690   8.141   6.055   4.455 -0.0004  0.0745  0.2559
21837W        W40691   8.047   8.510   3.054  0.4551 -0.2748 -0.0171
21838W        W40692   7.706   1.795  13.174  0.1014  0.0628 -0.4352
21839W        W40693   0.796   8.612   2.915  0.1319  0.4403 -0.1736
21840W        W40694   2.058  14.570  12.338  0.1485  0.1226  0.3460
21841W        W40695  14.600   9.884  16.148  0.2788 -0.2404  0.4776
21842W        W40696   7.902  15.076  16.642 -0.3055 -0.1642  0.2786
21843W        W40697  13.065   9.966   4.288 -0.0043 -0.0570 -0.3190
21844W        W40698   5.085   6.752   0.863 -0.0737 -0.1028 -0.0190
21845W        W40699  15.430  12.072   4.970 -0.2361 -0.3001  0.0668
21846W        W40700   2.505  12.326  15.007  0.1705 -0.2685  0.0150
21847W        W40701  12.211  16.827  16.009 -0.2066 -0.1963  0.3017
21848W        W40702  15.698   6.130   0.947  0.0968 -0.2494 -0.1765
21849W        W40703   7.902  16.670  13.412  0.2388 -0.2251 -0.1001
21850W        W40704  12.645   8.076   1.232  0.0496  0.1169  0.1039
21851W        W40705   9.090   4.378  12.615  0.0426 -0.0142  0.0761
21852W        W40706  15.898   6.574   3.879  0.0232 -0.0097 -0.2422
21853W        W40707  12.310   7.356  13.592  0.0380 -0.0709  0.1026
21854W        W40708  13.145   2.323  11.773 -0.1938 -0.0168 -0.2311
21855W        W40709   8.166   1.860  15.614  0.1723 -0.0052  0.0701
21856W        W40710  12.395   4.916  15.261  0.1459  0.1396  0.1243
21857W        W40711  14.075  10.921   4.780  0.1139  0.0890 -0.1299
21858W        W40712   1.745   8.707  14.277 -0.2510 -0.0300  0.1285
21859W        W40713   1.264   0.562   0.594  0.0108 -0.3224 -0.1007
21860W        W40714  13.783   0.662   4.662  0.2238  0.3734 -0.0068
21861W        W40715   6.274  11.600  16.563 -0.2014  0.2169  0.1189
21862W        W40716  12.781  14.887  15.694  0.0642  0.1259  0.3347
21863W        W40717   7.502  14.905  12.415 -0.1863  0.0340 -0.2112
21864W        W40718   4.145  15.953   4.061  0.3162  0.2055 -0.1250
21865W        W40719   0.240   4.003   3.016  0.2382 -0.4060 -0.1631
21866W        W40720   2.921   3.554   2.176  0.0266  0.0137 -0.3266
21867W        W40721   6.240   9.892  12.467 -0.0649 -0.1067 -0.0319
21868W        W40722   3.614   9.021  12.926  0.0730 -0.1850  0.0002
21869W        W40723   3.222  11.661   4.112  0.0081 -0.1501 -0.1936
21870W        W40724  15.614  14.658   2.566  0.2878  0.1352  0.1467
21871W        W40725  16.841   2.022  17.206  0.0276 -0.0714  0.3225
21872W        W40726   1.632   5.222  16.615 -0.2160  0.0154 -0.0969
21873W        W40727  14.838  13.829  17.241 -0.1352 -0.0090  0.4682
21874W        W40728   6.987   8.271   2.000 -0.1631 -0.1220 -0.0020
21875W        W40729   1.910  11.935  11.384 -0.1620  0.1258 -0.0885
21876W        W40730   7.264  14.944   0.227  0.1398 -0.0718  0.0485
21877W        W40731   0.687  16.909  17.012  0.0491  0.0823 -0.0536
21878W        W40732  16.192  16.219  16.535  0.1405 -0.4081 -0.0044
21879W        W40733   5.464  10.120   2.057  0.0863  0.0676  0.0028
21880W        W40734   0.357  12.230   5.172  0.2948 -0.1435  0.0512
21881W        W40735   5.047   2.114  17.067 -0.0160  0.0201  0.2248
21882W        W40736  15.697   7.486   5.043 -0.2515  0.2449  0.1335
21883W        W40737  10.754   4.615   0.582 -0.4257  0.1702  0.1582
21884W        W40738   4.984   2.033  15.727 -0.0570  0.1434 -0.0582
21885W        W40739  16.850   4.259  13.784  0.1568 -0.0511  0.0392
21886W        W40740   5.894   6.831  14.990 -0.1054 -0.0235  0.0109
21887W        W40741  15.386  14.763  13.526  0.0739  0.0784 -0.1319
21888W        W40742   7.263   9.362  14.758 -0.0563 -0.3642  0.1503
21889W        W40743  13.681   3.712   1.659 -0.2938 -0.0774  0.1701
21890W        W40744   8.969  14.353  12.836  0.2346 -0.3505 -0.3272
21891W        W40745   0.176   2.087   3.530  0.0151 -0.1716  0.0285
21892W        W40746   3.717  15.920   1.818 -0.2203 -0.2112  0.3920
21893W        W40747   0.013   9.185   1.615  0.0684 -0.2827  0.1074
21894W        W40748  12.630   0.390   3.331  0.1496  0.0726 -0.1857
21895W        W40749  11.566   3.786   1.803 -0.0754  0.3249  0.0402
21896W        W40750   9.247   2.444  13.497  0.3437  0.0372 -0.4031
21897W        W40751   5.567   5.412  13.924 -0.1768  0.0690  0.0637
21898W        W40752   2.765  10.412  15.115  0.3776 -0.1258 -0.0053
21899W        W40753   3.155  11.355  16.297  0.0710  0.2594  0.0413
21900W        W40754   1.903   5.599  14.192  0.1183 -0.0819 -0.1558
21901W        W40755   2.874  15.922   5.263  0.3532  0.0674 -0.2158
21902W        W40756   4.207   7.791   3.407  0.2353 -0.0046 -0.0632
21903W        W40757  13.501   2.296   5.094  0.4275 -0.1327 -0.1162
21904W        W40758   3.493  12.188  15.127  0.0384  0.1264 -0.2405
21905W        W40759   9.627   7.524   1.938 -0.0403 -0.0006  0.4339
21906W        W40760  15.266   7.289   3.940 -0.0124 -0.2648  0.0565
21907W        W40761   3.037  17.049   2.158 -0.1773  0.1119  0.2269
21908W        W40762   5.589   3.577  16.492  0.0892  0.0477 -0.2915
21909W        W40763   4.741   9.512  12.093 -0.2033 -0.1081 -0.0146
21910W        W40764  13.323   1.179   0.104  0.0801 -0.0852  0.0322
21911W        W40765   3.333   0.202   0.304  0.0561  0.1514 -0.0416
21912W        W40766   2.478   9.929   4.381  0.1038  0.0835  0.3092
21913W        W40767  10.394   2.341   0.713 -0.1965  0.2509  0.0876
21914W        W40768   8.647  17.244  14.315 -0.0843 -0.0878  0.1638
21915W        W40769   0.535   7.423   4.195 -0.1261  0.0076 -0.2594
21916W        W40770   2.147  14.166  16.317 -0.1797 -0.1092  0.0612
21917W        W40771  17.068   0.053   5.317  0.1783 -0.1561 -0.3493
21918W        W40772   7.195  11.996   1.851 -0.1585 -0.1154  0.0382
21919W        W40773  11.747   4.014  16.631  0.0593 -0.3997  0.0584
21920W        W40774  17.164   4.088  16.521 -0.1128  0.3938  0.0633
21921W        W40775   5.191   9.377  12.999 -0.1392 -0.2579  0.3894
21922W        W40776   1.133  14.850   4.288  0.5186 -0.2047 -0.1069
21923W        W40777   3.028   7.927   4.279 -0.0967  0.1226  0.0193
21924W        W40778   5.701   8.528   4.649  0.1306  0.0782 -0.1365
21925W        W40779  10.378  14.631   1.174  0.0727 -0.0512  0.1706
21926W        W40780   9.702  12.344   4.306  0.1046 -0.0038 -0.0793
21927W        W40781   7.947  11.826  12.528  0.1003  0.0049 -0.0755
21928W        W40782  11.047   1.411  16.002  0.0534  0.0180  0.0284
21929W        W40783   4.375  12.924   4.961  0.3965  0.2461  0.1507
21930W        W40784  11.827  11.419  12.844 -0.1257 -0.4603  0.0351
21931W        W40785   3.363   7.489   4.907  0.2455  0.2458  0.1268
21932W        W40786   8.513  15.431   5.031  0.1465  0.1540  0.0694
21933W        W40787  11.095  11.458   5.222  0.1751 -0.1011  0.1948
21934W        W40788   5.018   7.214  17.016 -0.2304 -0.1214 -0.3423
21935W        W40789   0.755   2.586   2.861 -0.0876  0.0089 -0.0697
21936W        W40790  15.178   6.141  13.577 -0.4001  0.1059 -0.0006
21937W        W40791   8.155  15.091  13.590  0.1086  0.2239 -0.1959
21938W        W40792   9.596   3.458   5.070  0.0604  0.2352 -0.2762
21939W        W40793  14.146   7.561   3.296 -0.1870 -0.1102  0.0281
21940W        W40794  13.908   0.580  15.337  0.0581  0.3583 -0.4055
21941W        W40795  10.249   2.539  15.255  0.0143 -0.1332  0.0299
21942W        W40796   7.903   7.598   3.769 -0.1216 -0.0822  0.0597
21943W        W40797   8.671  14.975   1.064 -0.0791 -0.4083  0.0176
21944W        W40798   5.938  10.604  14.410 -0.2909  0.1505  0.2435
21945W        W40799   2.124   0.131   2.716 -0.2474  0.0636  0.2015
21946W        W40800   2.570   0.506  15.530  0.0654 -0.2184  0.0644
21947W        W40801  15.538  17.273   3.203 -0.0985  0.1211 -0.2584
21948W        W40802  13.364   9.803  17.189  0.0928 -0.0775 -0.0910
21949W        W40803  12.434  13.079  15.552 -0.0525  0.0035  0.1909
21950W        W40804   5.893   2.335  16.805 -0.1252  0.0074 -0.2364
21951W        W40805   6.649   8.693   0.321  0.0172  0.1195  0.1648
21952W        W40806   3.780  15.275  13.536  0.0641 -0.1983  0.2262
21953W        W40807  14.151   7.252  13.298 -0.0900 -0.3118  0.0009
21954W        W40808   9.933  13.149  16.809  0.1861  0.3125 -0.0221
21955W        W40809  13.873   1.224  13.031  0.1293  0.2115  0.2631
21956W        W40810  10.701   8.441  14.043  0.0397 -0.0647 -0.1207
21957W        W40811   4.635   7.311  15.569 -0.0356 -0.4492 -0.0538
21958W        W40812   6.128   7.334  16.131  0.0335  0.0001  0.0657
21959W        W40813  14.735   1.908   0.029 -0.0662  0.1541 -0.1943
21960W        W40814   8.943  17.056   0.990  0.3065  0.0590  0.0613
21961W        W40815   9.076   3.427   5.021  0.2405 -0.2220  0.2729
21962W        W40816   3.183  16.568   4.476  0.0253 -0.0907 -0.0881
21963W        W40817   1.568  14.284  12.264 -0.3954 -0.1773 -0.1404
21964W        W40818  16.567   1.325  12.318 -0.1645 -0.0388 -0.0781
21965W        W40819   7.269   0.448  16.297  0.0653 -0.0025  0.2077
21966W        W40820   1.646   2.672  16.760 -0.0638 -0.1310  0.0178
21967W        W40821   2.135   0.006  14.896 -0.0410 -0.0865  0.1849
21968W        W40822  15.899   2.522  17.448 -0.1732 -0.0736 -0.1720
21969W        W40823  12.814   9.858  13.296  0.2218 -0.3055 -0.0493
21970W        W40824   6.821   0.934  14.158  0.1617 -0.0529  0.1749
21971W        W40825   2.769  11.663   4.474 -0.1088  0.0181  0.1767
21972W        W40826   8.405  15.091   2.148 -0.1197  0.2116  0.0734
21973W        W40827   7.698  11.488   0.297  0.3005 -0.0533  0.0266
21974W        W40828   6.684   7.558  13.850 -0.0818 -0.0997  0.0802
21975W        W40829   3.233   8.379  17.025 -0.2190 -0.0300 -0.3611
21976W        W40830  10.779   8.023  16.113 -0.0442 -0.0138  0.1920
21977W        W40831   4.162   8.472  14.563 -0.3072 -0.2581  0.1402
21978W        W40832   6.823  15.518   4.092  0.0342 -0.1339 -0.1665
21979W        W40833   1.864   1.359  14.082 -0.2704 -0.0070 -0.0112
21980W        W40834   7.453  16.339   0.611  0.0417  0.0805  0.0348
21981W        W40835  16.317   7.003  14.280 -0.1316 -0.2463 -0.0147
21982W        W40836  12.906  12.980   4.048  0.3334 -0.4032  0.2340
21983W        W40837  11.661  13.695  15.205 -0.0001 -0.1124 -0.0933
21984W        W40838  15.625   6.949   4.897 -0.2510 -0.0978 -0.0923
21985W        W40839   8.280   2.085   4.190  0.0921  0.0623  0.3542
21986W        W40840  17.323  13.269   1.735  0.0158  0.2549  0.0610
21987W        W40841   4.379   7.430   0.746 -0.3928 -0.1186 -0.1911
21988W        W40842   7.504  17.339   3.704  0.1590 -0.1238 -0.1630
21989W        W40843   7.558  13.596  14.755  0.1635 -0.0310 -0.0150
21990W        W40844  12.972   4.059   1.679  0.1528 -0.0653 -0.2337
21991W        W40845  10.745  10.373  15.888 -0.1933 -0.3096 -0.0006
21992W        W40846  14.747  14.098  16.387  0.0442 -0.1232 -0.0555
21993W        W40847   4.483  12.458   4.216  0.1184  0.0130 -0.0696
21994W        W40848   6.395   0.043  14.069  0.1488  0.0488 -0.2211
21995W        W40849   1.250  17.195   3.276  0.0456  0.0397 -0.0140
21996W        W40850   5.150   6.918   3.846  0.1382 -0.1719  0.1572
21997W        W40851  11.923   6.245   0.943  0.1085  0.0842  0.1494
21998W        W40852   4.702   8.488  17.320 -0.0296  0.0333 -0.2243
21999W        W40853  12.229   7.854   0.993  0.1017  0.2229 -0.1597
22000W        W40854   6.595  12.096   1.577  0.1781 -0.2016 -0.2100
22001W        W40855  13.651  10.813   1.411 -0.0774 -0.0769  0.1833
22002W        W40856   0.634   7.475   4.997 -0.0155 -0.0889  0.1999
22003W        W40857   0.388   1.980   2.088 -0.1001 -0.0355  0.1831
22004W        W40858   7.655  16.195   1.961  0.1285  0.3080  0.1787
22005W        W40859   7.612  11.166  11.680  0.2262  0.1738  0.0029
22006W        W40860  11.751  11.470  15.386  0.0579  0.0469  0.2194
22007W        W40861  13.180   8.784   4.789  0.1685 -0.2654  0.1140
22008W        W40862   2.510   5.028   4.997  0.0950  0.3946  0.2820
22009W        W40863  17.012   9.534   4.245  0.1689 -0.1967  0.2243
22010W        W40864   0.921  12.008   0.011  0.0268  0.0051 -0.2243
22011W        W40865   8.915  12.292   3.842 -0.2763  0.1444 -0.0690
22012W        W40866  14.662   1.073  15.174  0.0001 -0.1507  0.4309
22013W        W40867   2.164   4.225   1.471  0.0607  0.0263 -0.2752
22014W        W40868   8.946  12.504  14.619  0.2087  0.1977 -0.0842
22015W        W40869   1.216  15.875  14.732 -0.2029 -0.1071  0.1484
22016W        W40870   4.549   2.906   5.517 -0.0893  0.2566  0.0527
22017W        W40871   2.675  12.142   0.411 -0.0402 -0.3231  0.2657
22018W        W40872  12.785   4.637  15.006  0.0297  0.0367  0.0569
22019W        W40873   0.192  15.334  13.148  0.1863 -0.0845  0.1247
22020W        W40874  13.841  15.647   1.010  0.4207 -0.3063  0.3042
22021W        W40875   7.460  10.817   0.838 -0.0151  0.2284  0.2527
22022W        W40876  15.999   3.160  12.570 -0.1947 -0.2801  0.2804
22023W        W40877  15.049   5.812  16.222 -0.0716  0.0082 -0.1068
22024W        W40878  12.276  14.444   2.834 -0.0735 -0.1377  0.1706
22025W        W40879  12.356   7.374  14.659 -0.3974 -0.0833  0.0865
22026W        W40880   8.675   5.971  12.748 -0.0235  0.0871 -0.0208
22027W        W40881  10.176   0.002   1.519  0.2032 -0.2247  0.1931
22028W        W40882  12.970  15.962   1.398  0.0062  0.0790 -0.3582
22029W        W40883  16.978  15.332   3.392  0.0114 -0.2821 -0.3005
22030W        W40884   7.132   5.153  12.925  0.1627  0.1119  0.1382
22031W        W40885  10.052  13.105   3.785  0.0465 -0.1908  0.0740
22032W        W40886   0.067  13.056  12.652 -0.1036  0.1855  0.4906
22033W        W40887   9.980  10.176  14.153  0.1149  0.0375 -0.0767
22034W        W40888  12.718  16.395   1.243 -0.1550  0.1795 -0.0657
22035W        W40889   4.288   0.154   3.565  0.0549 -0.2886  0.1995
22036W        W40890   5.080  15.540  14.991  0.0691  0.0900  0.0228
22037W        W40891  17.257  13.753  11.903 -0.4679 -0.1184  0.0112
22038W        W40892  14.446  16.727  17.404  0.2219  0.3153  0.0630
22039W        W40893  13.842  17.215   0.469  0.0336 -0.0206 -0.0376
22040W        W40894   3.754   0.002   0.450 -0.3553  0.1390 -0.1739
22041W        W40895  16.248  16.596   2.173  0.1376  0.0449  0.2668
22042W        W40896  12.749   4.445   4.733  0.0755  0.0130  0.1053
22043W        W40897   0.406   3.248  13.191  0.0377 -0.0555  0.1602
22044W        W40898   4.659   0.453   3.836  0.2876 -0.3070  0.1344
22045W        W40899  16.225  15.862  15.455 -0.0857  0.0784  0.0447
22046W        W40900  14.469   4.761  14.229  0.1157  0.2805  0.0454
22047W        W40901   6.692   7.179  12.445 -0.1245 -0.0056  0.1812
22048W        W40902   5.746   9.354  16.481 -0.0676 -0.0974 -0.0275
22049W        W40903   5.944   1.322   3.391 -0.0944 -0.0902 -0.0161
22050W        W40904  17.127   4.187  14.206  0.0234  0.2189 -0.0998
22051W        W40905  14.124  17.285  15.705  0.2819 -0.1285  0.1676
22052W        W40906   4.181  11.051  15.534 -0.0922 -0.2501 -0.0931
22053W        W40907  14.215   9.644   5.212  0.1124 -0.2734 -0.1405
22054W        W40908   8.011   4.301   2.829  0.1483 -0.1814  0.2758
22055W        W40909  15.979  16.031   2.756  0.2625 -0.0804 -0.0253
22056W        W40910   0.894   8.489  14.420  0.0133  0.0685  0.0899
22057W        W40911   7.664  10.722  16.879 -0.2193 -0.2290  0.0691
22058W        W40912  12.023   1.100  12.450  0.1011  0.1820 -0.1567
22059W        W40913  16.884   5.887   5.671 -0.1999  0.0246  0.4389
22060W        W40914  13.286  15.970   4.160 -0.0991 -0.1122 -0.4038
22061W        W40915   4.340   1.221   4.258 -0.2960  0.1671 -0.0250
22062W        W40916  12.802   3.758   2.161 -0.0347  0.1223  0.2062
22063W        W40917   8.719  13.889  17.293 -0.1334 -0.1087 -0.0681
22064W        W40918  11.520   7.697  12.995  0.0929 -0.1357  0.0849
22065W        W40919   0.404   0.915   0.281  0.0691  0.3106 -0.1228
22066W        W40920  10.978  15.289  16.562 -0.0508 -0.2039 -0.1821
22067W        W40921  13.138  13.670   0.622 -0.2076 -0.0159 -0.1531
22068W        W40922   4.069   3.108  15.988 -0.4006 -0.0930 -0.0732
22069W        W40923   6.491   4.725  14.556  0.1098 -0.1821  0.0919
22070W        W40924   8.781   5.240   1.693  0.0074 -0.0611  0.0856
22071W        W40925   8.077   9.450   3.389  0.1212 -0.0337 -0.0986
22072W        W40926  13.187   4.948  12.311 -0.0314  0.2683  0.0446
22073W        W40927  11.186  11.468   4.682 -0.0907  0.0919  0.0558
22074W        W40928   1.564   0.795  13.806 -0.0268  0.0417 -0.0801
22075W        W40929  12.308  10.705   4.193 -0.0122  0.0060 -0.0540
22076W        W40930  10.668   1.866  17.322 -0.1767  0.3520  0.2491
22077W        W40931  12.943   3.235   1.286  0.0953 -0.0788  0.0018
22078W        W40932   3.987   1.599   2.617 -0.1576 -0.1071 -0.2091
22079W        W40933  11.977  11.502   2.541  0.0963  0.0580 -0.1827
22080W        W40934   8.561   7.273   4.248 -0.3774  0.1368 -0.2596
22081W        W40935   4.574  12.416   0.100  0.0840  0.1742 -0.0865
22082W        W40936  12.830  13.361  13.226 -0.0349 -0.1668  0.0105
22083W        W40937  11.627   2.144  14.494 -0.0476 -0.0408  0.1355
22084W        W40938   0.675   1.880   1.269  0.0447 -0.0522 -0.0864
22085W        W40939   9.398   5.047   5.154 -0.0711 -0.2069  0.1670
22086W        W40940   6.623   3.797   0.033  0.0654 -0.1212  0.0618
22087W        W40941   1.848   9.446   5.366  0.1427  0.0808  0.0369
22088W        W40942  14.583  15.344  14.189 -0.0954 -0.0137  0.1148
22089W        W40943  16.979  15.483   5.161 -0.1519 -0.3136 -0.4293
22090W        W40944   0.766  12.916   5.083 -0.0917  0.1994 -0.3335
22091W        W40945   0.675   4.214  12.894  0.1561 -0.0201 -0.2646
22092W        W40946   8.256   0.479  13.697  0.0873  0.2480  0.2759
22093W        W40947  15.556   4.407   0.130 -0.1804  0.0853  0.0386
22094W        W40948  16.463   8.697   2.434  0.1572 -0.1959  0.0827
22095W        W40949  10.412   0.969   3.743  0.2243  0.1768 -0.1574
22096W        W40950  11.379   4.329   0.017  0.0432 -0.1565 -0.2607
22097W        W40951   5.414   6.628   0.233 -0.0972 -0.1448 -0.2297
22098W        W40952  15.148   8.962   4.403 -0.0489 -0.0510  0.0178
22099W        W40953  14.683   7.146   5.585  0.3092 -0.2234  0.2005
22100W        W40954  12.267  11.948   3.879  0.1101 -0.0670  0.3626
22101W        W40955   2.757   7.644  14.646 -0.4326  0.2780 -0.0811
22102W        W40956  10.755  13.760   5.958 -0.0987 -0.1722 -0.2398
22103W        W40957   2.085   7.483  16.922  0.2952 -0.0579  0.0269
22104W        W40958   9.312   3.853   5.083  0.1852 -0.1847  0.0213
22105W        W40959   2.444  14.813   1.870  0.0522  0.4143 -0.1586
22106W        W40960  13.411  11.521  14.472 -0.0506 -0.1758  0.1550
22107W        W40961  14.247   7.638  15.713 -0.3968  0.0842 -0.0203
22108W        W40962  11.229   4.257   5.384  0.1303 -0.3515 -0.1909
22109W        W40963  10.144   7.716  13.928  0.0562 -0.1754  0.2944
22110W        W40964   6.109  11.794  16.983  0.5100 -0.0546 -0.0545
22111W        W40965  13.423  16.243  12.563  0.0916  0.3871  0.1880
22112W        W40966  15.585   4.571  15.059  0.1173  0.1710 -0.0691
22113W        W40967  10.076   7.687  14.943 -0.2224 -0.0920 -0.0083
22114W        W40968   9.154   5.306  14.188  0.0024 -0.3463 -0.0209
22115W        W40969   4.610  16.558   3.559 -0.1934 -0.0956  0.0890
22116W        W40970  15.085   0.669   4.711  0.0532 -0.0480 -0.3063
22117W        W40971   7.313  13.766   5.102  0.0795  0.0487 -0.1363
22118W        W40972   8.093  10.512  15.679  0.0611  0.2843  0.0163
22119W        W40973   4.757  10.686  15.243 -0.2045 -0.0963  0.1742
22120W        W40974  13.316   0.816   5.171  0.0126 -0.1720  0.2175
22121W        W40975  11.402   8.321  13.544 -0.0538  0.1851  0.1747
22122W        W40976   8.615   0.093   1.935  0.1337 -0.1140 -0.0761
22123W        W40977   8.306  10.756   4.465  0.0122  0.2515  0.1529
22124W        W40978   9.495   7.739  15.466 -0.1861  0.1944  0.0382
22125W        W40979  16.483  10.840  14.025  0.1516  0.1302  0.1305
22126W        W40980  12.431   8.255   0.812  0.2007 -0.2584 -0.0545
22127W        W40981   2.767  13.627   0.990 -0.3129  0.2477  0.5559
22128W        W40982  14.658  12.609   0.337 -0.2185 -0.0945  0.1551
22129W        W40983   0.749   6.053  15.889 -0.2110  0.1441  0.2817
22130W        W40984   0.873  14.139  13.092  0.0693 -0.0574  0.0148
22131W        W40985  15.152   3.431   3.577 -0.0936 -0.1122 -0.2622
22132W        W40986  11.221   1.132   0.125  0.3049  0.0953  0.0854
22133W        W40987   6.477   4.119  15.159  0.0714 -0.2066 -0.0431
22134W        W40988   7.276  11.747   3.170 -0.2206 -0.2048 -0.4263
22135W        W40989   8.909   3.394   4.465  0.0469  0.0681 -0.1368
22136W        W40990   5.981   0.731   3.619  0.0683 -0.0201 -0.2013
22137W        W40991   6.192   9.568   3.849 -0.1847  0.0354 -0.1035
22138W        W40992   1.395  17.176   1.133  0.0496  0.0200  0.2286
22139W        W40993   3.689   4.971   5.388  0.0889  0.2117  0.1745
22140W        W40994   1.456  12.578  14.047 -0.0408 -0.0915 -0.1478
22141W        W40995   0.872   1.172  12.730  0.2273  0.1601 -0.2012
22142W        W40996   4.251   9.036   2.930  0.0867 -0.1357 -0.2396
22143W        W40997  15.931   8.277  16.227  0.0503 -0.0312  0.2584
22144W        W40998   8.096   4.830   3.759  0.0771  0.0206  0.3664
22145W        W40999   2.773  11.526   3.042 -0.0414  0.0133 -0.4337
22146W        W41000  16.745   3.989   3.119  0.0932  0.2125 -0.0045
22147W        W41001   8.883   0.343   2.951 -0.2050  0.1762  0.0098
22148W        W41002   2.936   6.026   3.253 -0.2614  0.4074 -0.0709
22149W        W41003  15.037  15.836   3.417  0.0997 -0.1294 -0.1096
22150W        W41004  11.504   1.907  15.926  0.1204 -0.0142  0.0035
22151W        W41005  12.521  15.714   3.555  0.2023  0.0232  0.1420
22152W        W41006   2.053   0.926  14.753 -0.0271  0.1367 -0.3438
22153W        W41007  15.103   8.830   1.485 -0.1054  0.1092 -0.3661
22154W        W41008   3.707  11.334  12.264 -0.1137 -0.3700  0.0297
22155W        W41009  14.450   0.305  16.516  0.1582  0.2041  0.0748
22156W        W41010   7.461  12.946   3.039  0.1151  0.2771  0.2992
22157W        W41011   4.070   0.360  12.999  0.0602  0.1707  0.2258
22158W        W41012  16.707  12.335   2.951 -0.0458 -0.0464 -0.0153
22159W        W41013  14.494  16.400  14.051 -0.0846  0.3779  0.1096
22160W        W41014  16.348   1.365  13.145 -0.0431 -0.2240 -0.0464
22161W        W41015  14.578  11.775   4.296 -0.0319 -0.0279 -0.0512
22162W        W41016   5.184  10.037  16.417 -0.4814 -0.3061  0.0959
22163W        W41017  15.994  13.706  16.826  0.1017 -0.2578 -0.1502
22164W        W41018  15.808   6.440  14.128 -0.3434 -0.2834  0.1814
22165W        W41019  14.233  11.443  17.276 -0.0081  0.0192  0.1263
22166W        W41020  14.598   7.302  15.444  0.0367 -0.1156 -0.1640
22167W        W41021  16.987  12.865   1.578 -0.0756 -0.0568  0.0960
22168W        W41022   4.690   2.238   2.479 -0.0074 -0.2422 -0.0455
22169W        W41023  14.226  16.915   0.413 -0.0638  0.1561  0.2593
22170W        W41024   4.165  16.472   5.286 -0.0453 -0.0408  0.0620
22171W        W41025  10.297   2.069  12.426  0.2224 -0.0018  0.0049
22172W        W41026   4.066   8.118   0.498 -0.0172  0.1139 -0.0951
22173W        W41027  11.258   8.377   2.686 -0.0133  0.0749  0.1311
22174W        W41028  11.897  15.919   5.506 -0.1758 -0.0421  0.0108
22175W        W41029  14.080   3.750  15.692  0.2052 -0.0693 -0.0355
22176W        W41030  16.311  15.175   0.473 -0.0385 -0.1657  0.4090
22177W        W41031   0.693   6.513  13.525  0.2935  0.0391  0.1985
22178W        W41032   7.096   4.009  14.456 -0.0130  0.4550  0.1634
22179W        W41033  11.885  16.185   3.488 -0.1472 -0.0462 -0.0693
22180W        W41034   3.504  17.190  13.054 -0.0855 -0.1987 -0.2022
22181W        W41035   6.177  15.765  13.018  0.0163  0.1992 -0.3425
22182W        W41036   7.438  13.674   2.352  0.2208 -0.2136 -0.2466
22183W        W41037   2.335   5.038  15.826  0.1586  0.1735 -0.1020
22184W        W41038   7.222   2.595  15.061 -0.0406  0.0285  0.1408
22185W        W41039   7.185   4.045   1.063 -0.0510 -0.2846 -0.0908
22186W        W41040   5.812   1.914   2.344 -0.0317  0.2136  0.0019
22187W        W41041  10.376  12.135  14.201  0.2828 -0.1360  0.3294
22188W        W41042  10.959   2.736  15.821 -0.0672  0.1116  0.0145
22189W        W41043   1.530   4.579  16.484  0.0769  0.2959 -0.0070
22190W        W41044  15.675   4.197  14.652 -0.1887  0.1088 -0.0323
22191W        W41045   3.767  10.354  14.845  0.2183  0.2063 -0.3433
22192W        W41046   0.408  11.593  13.461 -0.1281 -0.1454  0.0104
22193W        W41047  12.581   0.564  17.076 -0.1126  0.0286 -0.0448
22194W        W41048   8.073   5.252  16.456 -0.2153 -0.0184  0.0397
22195W        W41049  12.317   3.862  12.784 -0.0640 -0.0703  0.1951
22196W        W41050   2.203   4.558  12.391  0.2312 -0.1418 -0.3073
22197W        W41051   3.958  12.385   3.104  0.2002 -0.2678 -0.0775
22198W        W41052  15.058  11.266   4.906  0.3837 -0.2794 -0.0249
22199W        W41053   8.898  13.131  13.056 -0.0416 -0.3009  0.0232
22200W        W41054   7.517   0.106  16.877  0.0225  0.0032 -0.1956
22201W        W41055   2.887  13.523   1.833  0.0468 -0.2420 -0.2300
22202W        W41056  14.332  14.721   2.235 -0.1250  0.4053 -0.0087
22203W        W41057   1.410  14.077  15.260 -0.1063 -0.1840  0.0212
22204W        W41058  16.403  16.721   1.282 -0.0401 -0.0667 -0.0955
22205W        W41059   0.349  16.812  14.247 -0.0702  0.3407 -0.1902
22206W        W41060   0.785  13.400   1.216  0.1960  0.4850 -0.1210
22207W        W41061   7.815   4.600  14.094 -0.2788  0.0316  0.0509
22208W        W41062  16.821  12.268   1.212  0.2346  0.0489 -0.0828
22209W        W41063   8.284  15.825  16.372  0.0672  0.1111  0.1295
22210W        W41064   9.812   6.811  15.901  0.3157 -0.2319 -0.1959
22211W        W41065   5.187   2.044   2.316 -0.1308  0.0420  0.1006
22212W        W41066  11.296   5.491  16.535  0.1692  0.2313  0.1621
22213W        W41067   3.497  11.628   3.302  0.1577 -0.0417  0.0352
22214W        W41068   8.047  10.278  13.803  0.1643  0.1295  0.1201
22215W        W41069   8.273   4.481  17.234 -0.0825  0.0758 -0.1138
22216W        W41070  15.344   0.047  16.196  0.0527 -0.0852  0.2276
22217W        W41071  16.632  11.553  12.129 -0.1718  0.1040 -0.2517
22218W        W41072   2.057  14.266   1.774  0.0438  0.1483  0.0444
22219W        W41073   2.022  10.475  16.654 -0.0874  0.0257  0.2477
22220W        W41074   9.169   4.140   3.443 -0.1428 -0.1154 -0.2360
22221W        W41075   1.947  10.249  13.289  0.0618  0.1013  0.0472
22222W        W41076  13.821  16.682   0.583 -0.2294 -0.0846 -0.1288
22223W        W41077   5.612  16.286  16.379 -0.1575 -0.0640 -0.1525
22224W        W41078  10.370   9.385  16.327 -0.1922  0.1480 -0.0078
22225W        W41079   2.293   2.788   5.078  0.0512 -0.0903 -0.2486
22226W        W41080   6.392  10.527   2.870  0.0374 -0.0166 -0.0883
22227W        W41081   7.323   1.958  16.122  0.0235  0.2051 -0.0245
22228W        W41082   6.107   8.272   1.472 -0.0635  0.0994 -0.2014
22229W        W41083   4.393  16.958   1.572 -0.2259 -0.0733 -0.0463
22230W        W41084  11.591   9.457   4.482 -0.1801 -0.3320  0.2065
22231W        W41085   0.820   7.084  14.453  0.0303  0.0552 -0.2042
22232W        W41086  11.548  14.295  14.337 -0.4616  0.1733  0.0377
22233W        W41087  14.163   9.591  14.597 -0.2082  0.3300  0.1800
22234W        W41088   4.862   3.778   2.777  0.2551  0.1232 -0.2598
22235W        W41089  11.617   9.633  15.076  0.0611 -0.1069 -0.2435
22236W        W41090   5.607  16.796   0.422  0.1796  0.1506 -0.1879
22237W        W41091  11.056   8.781  16.511  0.2848 -0.1295  0.1449
22238W        W41092  16.812  13.914  16.843  0.0490 -0.0104  0.1071
22239W        W41093  16.122   6.637   0.963  0.0386  0.1018  0.0203
22240W        W41094   6.738   1.229   3.977 -0.0634  0.2004 -0.2273
22241W        W41095   1.981   1.998   0.325 -0.2857  0.1008  0.0728
22242W        W41096   2.172  13.894  13.529 -0.0384 -0.2202  0.2081
22243W        W41097   8.667  17.251  15.344  0.2108  0.2179  0.1771
22244W        W41098  11.385   2.577  14.558 -0.0130  0.2556 -0.2836
22245W        W41099   9.715  14.019   3.759 -0.1148  0.3700 -0.0416
22246W        W41100  13.554   0.372  15.000 -0.0576 -0.1978  0.4106
22247W        W41101  15.816  14.572   4.362  0.0845 -0.0701  0.0184
22248W        W41102  13.725   6.878   3.225  0.0289 -0.0596 -0.2328
22249W        W41103  17.161  16.768   4.630  0.1023  0.0028 -0.0756
22250W        W41104   2.616   4.222   4.723  0.3171  0.1720  0.0373
22251W        W41105  13.542   4.930   1.055 -0.2242  0.2219  0.1931
22252W        W41106   0.084  14.953  17.291  0.0116 -0.1706 -0.1157
22253W        W41107   6.523  13.442   3.936 -0.0874  0.0337 -0.0178
22254W        W41108  16.365   2.803   1.611  0.2029 -0.1489 -0.0830
22255W        W41109  12.426  16.216   3.670 -0.0768  0.0158 -0.1884
22256W        W41110   7.161   3.088  12.795 -0.2378  0.2832 -0.1650
22257W        W41111  11.777   3.820  15.192 -0.0055  0.3665 -0.0529
22258W        W41112  10.935  11.893   0.015  0.2603  0.0935  0.1626
22259W        W41113   3.619  11.474  16.609 -0.0473  0.1309  0.1908
22260W        W41114  12.827   3.168  13.072 -0.0788  0.1079 -0.0219
22261W        W41115  10.912  17.027  16.450  0.2078 -0.4040  0.3730
22262W        W41116  14.319   2.233  13.749  0.0323  0.0322 -0.0844
22263W        W41117   4.839   4.214  16.358 -0.0826 -0.0265 -0.1054
22264W        W41118  16.845  16.724  14.009  0.2052 -0.1780 -0.1592
22265W        W41119   6.880  10.445   4.874 -0.0473 -0.0475  0.0572
22266W        W41120   9.948  15.826   3.707 -0.1049  0.0174  0.0247
22267W        W41121  16.033   0.830  16.388  0.0501  0.3493 -0.0337
22268W        W41122  10.834   7.927  12.456 -0.0331  0.0094 -0.0358
22269W        W41123  10.128  16.948   0.262  0.2231 -0.0308 -0.2635
22270W        W41124   0.463   0.592  13.371  0.2354 -0.0639 -0.2598
22271W        W41125  10.586   5.163   2.441  0.0763  0.0671  0.1221
22272W        W41126   7.444   9.340  14.232  0.2267 -0.0100 -0.1083
22273W        W41127   1.404   6.948   4.950  0.0643  0.0979  0.2679
22274W        W41128   9.061  10.373  16.525 -0.1616 -0.0826 -0.0527
22275W        W41129   7.571   1.889   3.316 -0.2670  0.0163  0.0003
22276W        W41130  11.179   1.545  14.982 -0.1475  0.1892 -0.0644
22277W        W41131   0.708   9.910   1.458 -0.1625  0.2051  0.2565
22278W        W41132   8.375   1.477  15.356  0.2055  0.2731  0.1787
22279W        W41133   8.676  13.966   5.203  0.3154 -0.0806 -0.2482
22280W        W41134   9.979  10.358   0.535 -0.0479  0.0454 -0.0944
22281W        W41135   9.331   8.501   3.364  0.2497 -0.2226 -0.0087
22282W        W41136   5.601   0.660   2.649  0.0901 -0.1568  0.0486
22283W        W41137  15.765  15.318  13.604  0.0913 -0.1559 -0.0722
22284W        W41138  13.979  12.404   4.737 -0.0006 -0.0861 -0.1357
22285W        W41139   1.587  13.989   0.490 -0.2308  0.0471 -0.0519
22286W        W41140  12.738  12.930   5.284 -0.2974  0.0820 -0.2189
22287W        W41141  11.175  16.253  14.351 -0.1580  0.1466 -0.0164
22288W        W41142   5.392  11.838  16.709 -0.4776  0.2110 -0.0024
22289W        W41143  12.961   2.226  15.592  0.0738 -0.3026 -0.0784
22290W        W41144   4.332   8.143   3.868 -0.1599  0.1765  0.1588
22291W        W41145   5.223  14.608   0.170 -0.0730 -0.1228 -0.2418
22292W        W41146  16.096   0.750   2.782  0.4661  0.3002  0.1515
22293W        W41147  15.232   9.429  12.893 -0.2663 -0.0229 -0.0222
22294W        W41148  11.333   6.869  13.422  0.0719 -0.0156  0.1927
22295W        W41149   3.950   9.930  14.610 -0.0770 -0.0987  0.1698
22296W        W41150  15.726   1.867   0.090  0.0228  0.1905  0.1501
22297W        W41151  14.415  12.725   4.354 -0.1206 -0.3818  0.2404
22298W        W41152   7.990  16.964   3.987  0.5127  0.0605  0.2249
22299W        W41153   5.960   8.343  16.328 -0.0299  0.0796 -0.2876
22300W        W41154  10.352   4.649  16.603  0.1816 -0.0561 -0.0687
22301W        W41155   7.623  10.381   3.767 -0.0403  0.1477 -0.2102
22302W        W41156   0.275   3.943   1.603  0.0152  0.0791 -0.1389
22303W        W41157   4.660   9.813   4.384  0.2109 -0.0237 -0.0067
22304W        W41158   5.380  11.988   2.028 -0.1731  0.0133  0.1893
22305W        W41159  11.269  13.297  12.233  0.1287 -0.2867 -0.3108
22306W        W41160  11.492  13.435   2.658  0.2662 -0.2032  0.1047
22307W        W41161   0.282   5.724  17.147 -0.0460 -0.1020 -0.1573
22308W        W41162  12.388   4.229  12.327 -0.1636  0.0191  0.1608
22309W        W41163  12.157   1.391  15.658 -0.0952 -0.0367  0.2571
22310W        W41164  15.616  16.323   4.179  0.0304 -0.1964 -0.0904
22311W        W41165  15.986   9.772   3.557  0.1736  0.0383 -0.3354
22312W        W41166   0.663   9.869  15.575 -0.3608 -0.4622 -0.2250
22313W        W41167  16.138  11.553   3.816 -0.0551 -0.0899 -0.2130
22314W        W41168   8.421   7.649  17.321 -0.2575  0.1390  0.1751
22315W        W41169  12.285   2.225  15.552  0.1222  0.1248  0.0412
22316W        W41170   3.124   0.183   1.486 -0.1191  0.0124  0.0131
22317W        W41171  12.651   4.531  17.025 -0.0421  0.2743  0.1083
22318W        W41172   5.722   1.571   4.110 -0.1707 -0.2189 -0.0241
22319W        W41173  14.496   2.235  17.161 -0.0299 -0.1113  0.1933
22320W        W41174  15.480  12.183   2.154 -0.0185 -0.0387 -0.0826
22321W        W41175   6.056  13.482   5.335  0.0349  0.0509  0.3491
22322W        W41176  16.057  15.327   1.996 -0.1607  0.0402  0.0506
22323W        W41177  11.510   1.251   3.218  0.1539 -0.1999 -0.2553
22324W        W41178   0.627   9.103   2.749 -0.1254  0.2598  0.1955
22325W        W41179  11.512  11.176  17.123 -0.1362 -0.1054 -0.1257
22326W        W41180   6.314  14.227   1.391 -0.1901 -0.2024 -0.1970
22327W        W41181   7.166  11.022  14.816 -0.3007 -0.0228 -0.1334
22328W        W41182   7.139   4.158   2.379 -0.0878  0.1943  0.1010
22329W        W41183   5.387   8.589  15.449  0.3247  0.0666 -0.4328
22330W        W41184   7.963   1.869   0.739 -0.1710 -0.1597  0.0591
22331W        W41185   6.778   3.859  16.596 -0.0891  0.0316  0.0589
22332W        W41186  11.212   9.334  16.637 -0.0960  0.4061 -0.0935
22333W        W41187  16.949  11.866  14.203  0.2537  0.1531 -0.0398
22334W        W41188   4.874   3.536   2.278  0.0160 -0.2877 -0.0800
22335W        W41189   0.076   8.060  14.455 -0.0752 -0.0879  0.0180
22336W        W41190  11.474  11.112  16.303  0.1025 -0.1883  0.1006
22337W        W41191   2.623   0.174   0.949 -0.1805  0.1484 -0.0243
22338W        W41192  14.546   7.147  16.705  0.0906  0.1883 -0.0841
22339W        W41193  14.367  16.100   1.871  0.0220  0.1606  0.2036
22340W        W41194   2.660   5.708   0.787  0.1231  0.3442 -0.2010
22341W        W41195  13.541   8.126  16.018 -0.1017  0.3633 -0.1960
22342W        W41196   5.233   7.797   0.415  0.1027 -0.1090  0.0663
22343W        W41197   3.898   7.001   2.335 -0.0075  0.2670  0.0387
22344W        W41198   4.493   0.832  16.310  0.0141  0.3316  0.2073
22345W        W41199   8.812   1.852  17.452 -0.0881 -0.2755 -0.0781
22346W        W41200   7.678   1.744   2.263  0.0848  0.1730  0.1149
22347W        W41201   6.198  10.616  12.356  0.3259  0.0708  0.0446
22348W        W41202   4.780   4.880  13.633 -0.2293  0.0191 -0.0445
22349W        W41203  11.982   4.856  12.619  0.1924  0.1027  0.0842
22350W        W41204  16.498  15.359  14.293 -0.1409  0.4219 -0.1648
22351W        W41205  15.963   1.930  16.224  0.1135  0.2790 -0.2393
22352W        W41206  10.875   0.124   4.281  0.3455 -0.1041  0.0206
22353W        W41207   7.125  16.899  16.055 -0.0496 -0.0649 -0.1073
22354W        W41208  15.717   5.466  15.837 -0.0561 -0.2108 -0.0917
22355W        W41209   7.344  16.240  15.081  0.1053 -0.3542 -0.1999
22356W        W41210   6.043  11.250   1.377  0.1497  0.0064 -0.0695
22357W        W41211  14.906   3.865  15.804  0.0508  0.2729 -0.3721
22358W        W41212   6.755   7.987  15.965 -0.1397  0.0262 -0.0981
22359W        W41213   8.615  16.927  16.059  0.0212 -0.1848 -0.2585
22360W        W41214   2.163   5.610  12.349  0.0831  0.0696 -0.1096
22361W        W41215   3.919   1.351  14.699 -0.1023 -0.0404  0.1232
22362W        W41216  14.309   1.641  17.416 -0.4252 -0.0837  0.4047
22363W        W41217  16.018  10.999   2.536  0.3441  0.1215  0.0627
22364W        W41218   4.252   6.428  12.699  0.1077  0.0836 -0.0780
22365W        W41219   5.927   5.933   4.957  0.0344 -0.0319 -0.0580
22366W        W41220   0.641  14.785   3.415 -0.0991  0.0171  0.0237
22367W        W41221   9.601   6.864   4.962 -0.2266 -0.0328 -0.1389
22368W        W41222  15.269   8.667   3.592  0.4057 -0.2137  0.0711
22369W        W41223  13.912  16.811  14.770  0.0043 -0.0934 -0.0290
22370W        W41224   9.981   7.543  15.419  0.1212  0.0583 -0.0437
22371W        W41225  12.555   2.293   1.376  0.3179  0.3899 -0.0455
22372W        W41226  11.744  13.538  17.261  0.0941  0.0754  0.2553
22373W        W41227  12.215  14.060  16.443 -0.0323 -0.0775  0.1898
22374W        W41228   3.303   9.830   3.806  0.1793  0.0044  0.0848
22375W        W41229  12.119   2.639   5.052 -0.1552  0.0213 -0.1115
22376W        W41230   6.983   6.073   4.950  0.0553  0.1547  0.2279
22377W        W41231   7.358   4.319  17.362  0.0395  0.0227  0.1567
22378W        W41232   1.880   7.920   4.265 -0.0975  0.1974 -0.1583
22379W        W41233   2.660  14.811   4.382  0.0962  0.0283  0.0476
22380W        W41234   6.285  15.521   4.093  0.0110  0.3329 -0.1093
22381W        W41235  11.913   5.361  12.675 -0.0448  0.1954 -0.0544
22382W        W41236  12.266   6.037   2.403 -0.1827 -0.2730  0.1933
22383W        W41237  10.521   8.993   2.040 -0.1220 -0.2015  0.2901
22384W        W41238  13.836   4.134   4.846 -0.1959  0.2470 -0.0638
22385W        W41239   5.640  11.861   2.452  0.0382 -0.0087  0.3321
22386W        W41240   4.875  12.490   3.840  0.1209 -0.0498  0.0699
22387W        W41241  14.367  16.882   4.549 -0.0720  0.1378  0.1474
22388W        W41242  16.766  10.393   4.483  0.0012 -0.0541  0.1464
22389W        W41243  13.105   4.318   4.308 -0.2028  0.0144 -0.1276
22390W        W41244   2.887  13.465  12.504  0.0259 -0.4453  0.0509
22391W        W41245  15.735  13.010   2.858  0.0739 -0.1147 -0.0425
22392W        W41246  12.585   2.920  15.465 -0.0516  0.1095 -0.1669
22393W        W41247  15.377  13.227  12.954 -0.2113  0.1712  0.0766
22394W        W41248   7.009  10.614  14.582  0.1055  0.0426  0.1317
22395W        W41249  14.041   3.163   4.705  0.4156 -0.1501 -0.2013
22396W        W41250   1.913  11.144  15.143  0.0696  0.1109 -0.0843
22397W        W41251   8.319   4.111  14.800 -0.0067  0.2756  0.1458
22398W        W41252  11.353  12.237   0.028 -0.2356 -0.1004 -0.1525
22399W        W41253  10.310   1.341   3.433  0.0338 -0.0187  0.0301
22400W        W41254  11.765   8.201   0.133 -0.1906  0.0103 -0.0692
22401W        W41255   5.354   6.022  15.692  0.4197  0.4199  0.0040
22402W        W41256   1.880  16.142  16.760 -0.1604  0.3489 -0.0722
22403W        W41257   0.597   5.970  11.830  0.0171 -0.3193 -0.1425
22404W        W41258   1.592  15.929   3.234  0.2040  0.0771 -0.1398
22405W        W41259   2.720   2.466   2.877  0.0647 -0.1587 -0.1910
22406W        W41260   0.344   0.749   5.259 -0.0477 -0.2108 -0.0899
22407W        W41261   4.671   4.600   0.255 -0.2602  0.1847 -0.0611
22408W        W41262  10.918   8.847   3.791  0.1709  0.2213  0.0710
22409W        W41263  15.433   4.954  14.280 -0.0915  0.0005  0.0947
22410W        W41264   0.423   4.637   3.872 -0.1233 -0.0898  0.2431
22411W        W41265  15.019  16.478  16.404  0.0135 -0.0299 -0.2072
22412W        W41266   5.387   4.944  14.095  0.2300 -0.1863  0.3912
22413W        W41267   0.173   1.932   0.044  0.1430  0.0826  0.0918
22414W        W41268   5.589   2.076   4.322  0.2760 -0.0083  0.0663
22415W        W41269   2.937   6.630   1.522  0.0841  0.0427  0.0216
22416W        W41270  16.047   1.854   4.364 -0.2058 -0.0181 -0.2052
22417W        W41271  14.335  16.884  12.615  0.2418 -0.0985  0.0158
22418W        W41272   8.377   7.131   1.787 -0.1757  0.1270 -0.2699
22419W        W41273  11.308   5.397  14.495 -0.4012 -0.1405  0.4051
22420W        W41274  11.913   0.054  15.924  0.0326  0.3231  0.0018
22421W        W41275   8.166   4.028  12.116  0.0475 -0.1786 -0.1111
22422W        W41276  15.146  10.946   0.576  0.0751  0.3073 -0.3944
22423W        W41277  13.102   7.096   2.999 -0.3089  0.0483  0.1882
22424W        W41278   5.899   2.156  12.842  0.0592  0.0032  0.0536
22425W        W41279  13.910  16.014   4.754  0.2214 -0.0180 -0.1339
22426W        W41280   4.616   7.670   1.103 -0.1679 -0.0536  0.1047
22427W        W41281  14.717  10.731   4.236 -0.2663 -0.1474  0.0765
22428W        W41282  16.560   5.101   0.899 -0.1751 -0.0922 -0.3462
22429W        W41283   5.178  16.979   3.623 -0.2397  0.4018 -0.0285
22430W        W41284  14.610   5.794   3.384 -0.1944 -0.0397  0.1672
22431W        W41285  15.269  16.805  13.623  0.0978 -0.2789 -0.3004
22432W        W41286   1.640   2.620   2.507  0.2574  0.2559 -0.0618
22433W        W41287   1.434  11.828  14.785  0.1859  0.0204 -0.1112
22434W        W41288   0.367   8.378  15.452  0.0874  0.1390  0.4174
22435W        W41289   2.629  12.872   2.293  0.1495  0.1288  0.1008
22436W        W41290  12.339  11.704  14.551  0.2268  0.2389  0.1090
22437W        W41291  14.825  15.757   0.009  0.2380 -0.0289  0.0393
22438W        W41292   4.172   3.147   5.323 -0.3017 -0.1863  0.1490
22439W        W41293   6.532   8.778   1.695 -0.1754 -0.0185  0.1689
22440W        W41294  16.608   6.514   2.683 -0.4379  0.1666  0.0311
22441W        W41295  11.778   7.712   0.865  0.0853  0.1782 -0.0543
22442W        W41296   0.422   6.670   4.767 -0.0897  0.0128 -0.2465
22443W        W41297  14.215  12.348   4.195 -0.0967 -0.0937  0.2946
22444W        W41298   3.912  12.914   3.081  0.0152 -0.1110  0.1204
22445W        W41299   6.331  16.018   2.363  0.2746  0.0028  0.0668
22446W        W41300   3.794   0.059  16.140 -0.0941  0.0338 -0.1729
22447W        W41301   5.550   1.587  16.651 -0.0194  0.2209 -0.2354
22448W        W41302   7.249  12.614   2.613 -0.2775  0.1541 -0.1327
22449W        W41303  14.513   7.781  14.202  0.1179  0.3519 -0.1184
22450W        W41304   4.043   1.960   3.679 -0.0759 -0.0988  0.1905
22451W        W41305  11.183   7.997  13.849  0.1595 -0.0791  0.0681
22452W        W41306   3.176  12.649  13.796  0.0739 -0.0398 -0.2414
22453W        W41307  13.164  13.532  15.196 -0.0372  0.0259  0.0001
22454W        W41308  16.581   2.601  13.428  0.1101 -0.1098  0.1316
22455W        W41309   2.080   7.645  15.896 -0.0174  0.0361  0.4019
22456W        W41310  10.347   3.219  15.951 -0.0594 -0.0867  0.3452
22457W        W41311   6.533   4.064   2.119  0.0246 -0.3238  0.2185
22458W        W41312   8.836   5.308  16.889  0.0155  0.2318  0.0279
22459W        W41313   1.696  10.042   5.406  0.2478 -0.0773 -0.1418
22460W        W41314  12.666  14.679  13.481  0.4755 -0.1055  0.1379
22461W        W41315   3.688   9.687  14.954  0.1411 -0.2662  0.3889
22462W        W41316   1.311   1.176  12.460  0.3246 -0.0062 -0.2149
22463W        W41317  12.539   9.427   1.555 -0.3603  0.1124  0.0289
22464W        W41318  12.751   7.128   1.528  0.2772  0.1051  0.1908
22465W        W41319   8.364  11.350  14.535 -0.0540  0.0411 -0.0521
22466W        W41320  15.354   5.835  15.823  0.2823 -0.0597 -0.1359
22467W        W41321   0.098  12.577   2.949  0.2353 -0.3545 -0.0940
22468W        W41322   4.903  11.870   1.909 -0.4051  0.0279 -0.2368
22469W        W41323   0.392   6.533  15.232  0.1187 -0.0034 -0.0668
22470W        W41324   1.592  17.010  12.782  0.1159  0.0129  0.0343
22471W        W41325   5.482  13.022  13.119 -0.0369  0.2611 -0.0900
22472W        W41326  11.453  13.687   3.897  0.0123  0.1520 -0.2669
22473W        W41327   0.564   2.722   1.565 -0.1914  0.0917 -0.0675
22474W        W41328   7.760  11.605   3.019 -0.0134  0.2400 -0.1510
22475W        W41329  15.661   8.835   0.677  0.0871  0.0115 -0.1146
22476W        W41330  17.250   0.675   0.941 -0.0995 -0.0207  0.1137
22477W        W41331   6.957   4.317  13.924  0.1709  0.1452  0.2888
22478W        W41332  10.865   2.429   2.693 -0.3749 -0.1615  0.0261
22479W        W41333  15.237   1.097  13.646  0.3375 -0.0398 -0.0137
22480W        W41334   7.779  11.781   3.478  0.2935 -0.0089  0.2101
22481W        W41335  11.476   9.435  17.061  0.2013 -0.1451 -0.2562
22482W        W41336   8.029   4.565   4.171  0.0493  0.0700  0.2389
22483W        W41337  16.586  16.097  16.086  0.2476  0.1540 -0.0563
22484W        W41338   9.966   5.480  16.284 -0.0249  0.0657  0.0399
22485W        W41339  16.814  10.516  13.001 -0.0820 -0.1265  0.1279
22486W        W41340   5.066  16.548  12.273  0.0712  0.0680  0.1234
22487W        W41341  14.870  16.022   4.761 -0.1614  0.0801  0.1358
22488W        W41342   6.158   9.584  16.645  0.1160 -0.0329  0.1522
22489W        W41343   3.335   1.648   4.792  0.3352  0.1359 -0.1164
22490W        W41344   6.748   1.458  15.423  0.1050  0.0106 -0.0313
22491W        W41345   2.905  10.620   1.079  0.0702  0.0396  0.1655
22492W        W41346   4.938  10.210  12.810  0.2336 -0.1474  0.2503
22493W        W41347   4.341  11.249  14.561 -0.0715 -0.0841  0.2970
22494W        W41348  12.221   9.531  12.734  0.2073  0.2125  0.0742
22495W        W41349   6.954  11.701  17.303 -0.1393 -0.3161 -0.3069
22496W        W41350   5.827  16.836  13.799  0.1155  0.0564  0.1806
22497W        W41351  10.584   5.319   1.892  0.1582 -0.2827 -0.0864
22498W        W41352  12.501   6.851  12.165 -0.2567  0.4708 -0.0255
22499W        W41353  15.543  14.032   0.780 -0.1515  0.0201  0.0331
22500W        W41354  12.519  14.750  17.366  0.0816  0.0230 -0.0651
22501W        W41355  15.151  10.226  13.611  0.2608 -0.0102 -0.0429
22502W        W41356   3.097   6.720  17.229  0.3564  0.0612 -0.2474
22503W        W41357   5.820   4.500   4.379  0.0498  0.0669  0.2782
22504W        W41358   8.524   3.488  17.047  0.2505 -0.0031  0.0191
22505W        W41359   7.642   6.837  14.315 -0.0265  0.1623  0.2429
22506W        W41360   4.732   1.705  12.866  0.0085 -0.1315 -0.1716
22507W        W41361  15.296   4.974  16.323 -0.0877  0.1997  0.2101
22508W        W41362  12.069   9.492  14.526 -0.0290 -0.3307  0.0804
22509W        W41363  13.138  10.876  16.783  0.1286  0.1516 -0.2687
22510W        W41364   9.819   9.296  16.832 -0.0762  0.3265  0.2198
22511W        W41365   5.275   3.165   6.020 -0.0970  0.1718  0.0840
22512W        W41366  16.065   3.419   0.188 -0.1258  0.2260  0.3241
22513W        W41367   3.754  16.912   3.781  0.1519 -0.2324  0.2309
22514W        W41368  17.101   7.919   3.085 -0.0284 -0.1823  0.1989
22515W        W41369   0.651   0.719  12.447  0.0002  0.0515 -0.2598
22516W        W41370  16.456  13.201  16.316  0.3402 -0.0349 -0.1451
22517W        W41371   0.170  16.013   4.339  0.1694 -0.0415 -0.0978
22518W        W41372   9.608  11.756   0.360 -0.0821  0.1244 -0.0093
22519W        W41373   5.410   9.560  15.477 -0.3587  0.0569 -0.2809
22520W        W41374   9.947   0.610  15.826  0.1420  0.1461 -0.0713
22521W        W41375  14.673  14.865  16.212 -0.1415 -0.2253 -0.2029
22522W        W41376   7.624   9.247  15.658 -0.1663  0.0936  0.3090
22523W        W41377   0.591   2.521   0.728  0.0720 -0.2090  0.3905
22524W        W41378   9.025   0.258   1.248  0.0338  0.1751 -0.0677
22525W        W41379   5.460   0.378  15.348  0.1263 -0.1259 -0.0746
22526W        W41380  12.398   9.667   2.099  0.2199  0.0348  0.0527
22527W        W41381  12.632   2.796   3.148  0.0571 -0.1108 -0.2440
22528W        W41382   3.418  13.259  13.044  0.2149  0.1414  0.0232
22529W        W41383  15.599   1.002  14.854  0.3056  0.2456  0.2008
22530W        W41384   5.176   3.463   5.302 -0.2942  0.1599 -0.0106
22531W        W41385   2.472   0.672   5.183  0.1701 -0.1656 -0.0416
22532W        W41386  13.442   6.789  13.709  0.3409 -0.0469  0.0047
22533W        W41387   7.729   9.417   3.904  0.4003  0.2250  0.1486
22534W        W41388   7.000   6.810  11.292 -0.1138 -0.0647  0.1281
22535W        W41389   2.355   0.115  13.648  0.1149  0.2819  0.0324
22536W        W41390  10.653   9.540  15.051  0.0658  0.1887 -0.3147
22537W        W41391  10.395   1.929  13.795 -0.0297  0.3517 -0.1828
22538W        W41392   8.953  14.080  16.098 -0.1517 -0.2035 -0.0268
22539W        W41393   6.630   8.387   1.300  0.0069 -0.0366 -0.0348
22540W        W41394   1.728  12.670   3.341  0.1292 -0.2508  0.2911
22541W        W41395  12.516  14.838   5.200  0.1026 -0.0061  0.2056
22542W        W41396  15.625   6.724   1.700 -0.0256  0.2973  0.0567
22543W        W41397  11.871  10.880   4.393  0.0364  0.1542 -0.0683
22544W        W41398  16.367  10.309  16.308 -0.1379  0.2057  0.1095
22545W        W41399  12.916  15.024   1.671  0.1262 -0.1425  0.1262
22546W        W41400   1.121   0.314  12.961 -0.1070 -0.2331 -0.0037
22547W        W41401  14.665   0.072   3.753 -0.1110  0.0608  0.0612
22548W        W41402  14.872  17.094  16.086 -0.1028 -0.0849  0.0753
22549W        W41403  14.651   6.546  14.799 -0.0844  0.3755 -0.1169
22550W        W41404  17.085   4.114  11.257 -0.1157 -0.2525  0.1980
22551W        W41405  16.549   2.686   1.161 -0.1935  0.0115  0.2207
22552W        W41406  14.269   5.579   0.993 -0.2642 -0.1598 -0.1153
22553W        W41407   3.321   6.235  14.003  0.1020  0.0302 -0.1484
22554W        W41408  10.804  12.327  13.985 -0.1026 -0.0920 -0.1355
22555W        W41409   1.057   6.112   4.302  0.0809 -0.1898  0.0665
22556W        W41410  13.822   8.720   1.878 -0.1641  0.0542  0.1556
22557W        W41411   6.731  15.891   1.172  0.0835 -0.1160  0.1163
22558W        W41412   6.351   4.345   3.575 -0.0432  0.2440  0.0418
22559W        W41413   5.402   1.969   0.542 -0.0247 -0.0401 -0.2748
22560W        W41414  12.877  13.014  13.945 -0.2143  0.0203 -0.1813
22561W        W41415  15.282   7.967   2.013 -0.0004  0.1153  0.0710
22562W        W41416   1.515   7.946  16.440 -0.1143  0.0835  0.0136
22563W        W41417  17.337   9.884  15.590 -0.0627  0.0361  0.0388
22564W        W41418   1.587  13.180  13.734  0.1760 -0.1529 -0.1344
22565W        W41419   6.191  16.631  17.104 -0.0806  0.0252  0.1855
22566W        W41420   9.372   3.254   3.151 -0.2932 -0.1877  0.1571
22567W        W41421  11.133   0.513  15.884  0.1493 -0.0639  0.0981
22568W        W41422  12.076   1.529  14.300 -0.2104  0.0744  0.0756
22569W        W41423   4.249  16.087  14.440 -0.0310 -0.1174  0.1120
22570W        W41424  13.534  10.752  12.535  0.0603 -0.0314 -0.2495
22571W        W41425  13.022   3.338  12.275  0.0273 -0.1247  0.1147
22572W        W41426   5.271   2.459   6.901 -0.0370  0.0611 -0.0902
22573W        W41427   1.364   4.018   3.585  0.0245 -0.0801  0.2343
22574W        W41428   5.921  15.747   4.310 -0.0696  0.0525  0.0084
22575W        W41429   0.619  11.037  14.717  0.0772  0.0095  0.2847
22576W        W41430  15.145  14.598   2.515  0.0412 -0.0314 -0.2206
22577W        W41431  11.697  17.163   1.362 -0.2279 -0.0432 -0.0073
22578W        W41432   5.141   6.509   5.143  0.0471 -0.0331  0.0851
22579W        W41433   5.555   9.392   5.422  0.1444  0.3310  0.1979
22580W        W41434   6.836   8.356   2.638 -0.0724  0.0097  0.1280
22581W        W41435   1.505   3.543  12.970 -0.0126  0.1907  0.0893
22582W        W41436  12.600   0.498   2.831 -0.2060 -0.0647  0.2420
22583W        W41437   1.759   0.471   0.583 -0.1189 -0.0654 -0.1167
22584W        W41438   5.928  16.313  13.041  0.1345 -0.1984  0.2036
22585W        W41439  10.319   8.709   2.928 -0.1750  0.1196 -0.3259
22586W        W41440  14.871   3.334  14.049 -0.0749  0.1592  0.0744
22587W        W41441  10.048   1.071  17.178  0.1314  0.0195  0.0559
22588W        W41442   6.146  14.688  13.102  0.0759  0.3640  0.0651
22589W        W41443   0.626  17.114   3.997 -0.0010  0.4706  0.0845
22590W        W41444   9.262  11.269   3.153  0.2282 -0.3516  0.1557
22591W        W41445  10.618   9.856   3.225  0.2092  0.0951 -0.0616
22592W        W41446   8.225   1.610   1.148  0.0092  0.0610  0.3424
22593W        W41447   4.560   5.762   0.600  0.2371  0.1907 -0.3178
22594W        W41448   2.632  13.133   3.731  0.0677 -0.5173  0.3221
22595W        W41449   7.325  10.893   3.157  0.0884 -0.0528  0.3243
22596W        W41450   0.272   3.649  13.921  0.0851  0.1416  0.0107
22597W        W41451  13.083  12.214  14.882  0.1065  0.2959 -0.0082
22598W        W41452   5.762  12.322   2.074  0.1811 -0.1807 -0.2346
22599W        W41453  11.284   5.939   3.932 -0.0340  0.0499  0.2107
22600W        W41454  12.344   8.259   0.208 -0.1233  0.2148 -0.1080
22601W        W41455   8.159   9.654   0.702 -0.1599  0.3278  0.2238
22602W        W41456   2.829  16.331   1.790  0.2316  0.2477 -0.5424
22603W        W41457  10.415   5.882   2.773 -0.0337 -0.0995 -0.3441
22604W        W41458   1.450  16.368  14.869 -0.1980  0.0481 -0.3105
22605W        W41459  16.405  10.026   0.872  0.0001 -0.1550 -0.1244
22606W        W41460  10.894   3.041   3.488 -0.1205  0.1557  0.3866
22607W        W41461   1.748   8.681   0.602 -0.2539 -0.0976  0.0796
22608W        W41462  15.957  11.350   2.181  0.2069 -0.0681 -0.1545
22609W        W41463  15.472   1.631   3.590 -0.0334 -0.0371  0.2070
22610W        W41464   8.645   6.864   0.783  0.0716  0.1998 -0.2762
22611W        W41465   2.456   4.648   2.913 -0.1638  0.0172  0.1229
22612W        W41466  11.853  15.883  16.877  0.0685 -0.2232  0.0417
22613W        W41467   8.001   0.344   0.656  0.0440 -0.1853  0.1418
22614W        W41468   2.188   4.118  11.425 -0.2072  0.3099 -0.0060
22615W        W41469  15.731   6.869   4.254 -0.0199 -0.0737  0.0589
22616W        W41470   5.850   0.134  17.292  0.2463 -0.0257  0.1805
22617W        W41471  16.649  13.122   1.349 -0.1093  0.1084 -0.1302
22618W        W41472   8.311  14.963  17.048  0.1382  0.0317  0.0807
22619W        W41473   0.981   5.936   2.631  0.0793  0.2035 -0.0822
22620W        W41474  10.961   8.737  17.088 -0.1981  0.3838 -0.2533
22621W        W41475   9.596   3.182   2.712  0.1734  0.2790  0.0897
22622W        W41476  13.383   3.031  13.186 -0.0838 -0.0375  0.1098
22623W        W41477   3.274   0.807  15.793 -0.3307 -0.0121 -0.2083
22624W        W41478   5.689  14.947  12.927  0.4033  0.1816 -0.2102
22625W        W41479  13.819   2.756   3.805  0.0818 -0.0830  0.2079
22626W        W41480   6.160   3.142   1.008 -0.1962  0.0070  0.2438
22627W        W41481  14.382  11.651  13.060 -0.0432 -0.2312 -0.2506
22628W        W41482   8.118   8.079   3.864 -0.1186 -0.0221  0.0311
22629W        W41483   5.967  16.495   2.544 -0.3358  0.1343  0.1212
22630W        W41484   8.899  16.760  16.458  0.0644 -0.2218 -0.0000
22631W        W41485  10.273   3.128  14.342  0.0747  0.2436  0.0735
22632W        W41486   6.728  13.021   1.352 -0.0169  0.0419 -0.2039
22633W        W41487   6.102  12.800   1.221 -0.1887  0.1440 -0.0401
22634W        W41488  13.674   6.871   1.872  0.2166  0.1045  0.2603
22635W        W41489  14.078  16.427   3.204  0.0696 -0.2090  0.1404
22636W        W41490  17.306  17.335  15.984 -0.2632 -0.0243 -0.2065
22637W        W41491   5.471  13.026  16.624  0.0967 -0.0263  0.0468
22638W        W41492   1.131   2.228  17.261  0.2340  0.0000 -0.2091
22639W        W41493  10.198   9.226   2.891  0.1298 -0.0330  0.1825
22640W        W41494  14.841   0.735   2.173  0.2497  0.1080  0.0228
22641W        W41495   4.507  11.990   4.391 -0.0341  0.1521  0.1758
22642W        W41496  10.712  14.964   1.249  0.0886 -0.0813  0.1298
22643W        W41497  10.724   4.867  16.130  0.2254 -0.3552  0.0121
22644W        W41498  16.097   3.132   2.763  0.0228 -0.2448  0.0321
22645W        W41499   6.837   0.146  11.949 -0.1148 -0.0031  0.0751
22646W        W41500  17.256   0.736   0.394 -0.1703  0.3230 -0.3014
22647W        W41501  16.437   9.253   0.666  0.2855  0.0199  0.2692
22648W        W41502  14.600   0.752  16.363 -0.2545 -0.1645 -0.1019
22649W        W41503  12.246   9.198   0.246  0.1945  0.2080 -0.0819
22650W        W41504  14.473   5.327  14.417 -0.1061  0.0626 -0.0543
22651W        W41505   4.971  13.318  17.144 -0.3901 -0.2356  0.0440
22652W        W41506  13.817  16.095  15.537 -0.1372  0.4382  0.1671
22653W        W41507   2.061  16.534  15.120 -0.2042 -0.0000  0.1368
22654W        W41508   0.451  11.338  15.212  0.0014  0.3612 -0.0659
22655W        W41509   8.373  16.098  12.072 -0.1849 -0.0954 -0.1350
22656W        W41510   0.493   9.075  15.777  0.1607  0.3400  0.2070
22657W        W41511   7.148   4.200   3.194  0.0769  0.1619  0.0850
22658W        W41512   3.462  15.829   0.457  0.0527 -0.1104 -0.0968
22659W        W41513  17.237   9.024   1.173 -0.2039 -0.1511  0.1482
22660W        W41514  16.762   9.828   0.676 -0.2990  0.2625  0.1600
22661W        W41515  16.441  14.183  14.778  0.2906 -0.0786  0.0492
22662W        W41516  14.579   0.841   2.610 -0.2964  0.1267  0.0001
22663W        W41517   2.346   1.556  13.870 -0.0940 -0.0814 -0.2172
22664W        W41518   7.878   9.834  13.464 -0.3170 -0.0902 -0.2355
22665W        W41519   8.207  14.851  14.817  0.1051 -0.1668  0.2536
22666W        W41520   7.196   8.672  12.757  0.0829 -0.1248 -0.0360
22667W        W41521   2.664  12.536  16.561 -0.0449 -0.1940  0.0397
22668W        W41522  12.168  14.064   4.471  0.0157  0.2549 -0.3108
22669W        W41523  10.810   3.004   1.360  0.0818 -0.0690  0.1506
22670W        W41524   6.174   5.881   1.552  0.2652  0.3388 -0.0729
22671W        W41525  10.336  10.574  14.044 -0.0150 -0.2039 -0.2282
22672W        W41526  12.977  14.495   2.339  0.2528 -0.1730  0.1158
22673W        W41527  15.137   4.626   3.251  0.0957  0.3708  0.4735
22674W        W41528   0.066   5.973  13.376 -0.0270 -0.1429  0.2416
22675W        W41529   6.660  13.892  14.407  0.0632 -0.2614  0.1436
22676W        W41530   8.210   3.073  13.550  0.2630 -0.1305  0.0799
22677W        W41531  15.133   5.887   2.636 -0.0744 -0.2416  0.0553
22678W        W41532  15.000   2.817  15.035  0.0038 -0.0214 -0.1339
22679W        W41533   7.179   6.292  14.308  0.0995 -0.1504 -0.1277
22680W        W41534   4.297  13.351  15.024  0.3801  0.0220  0.0863
22681W        W41535   3.224   0.009   2.984  0.0554 -0.2603 -0.0158
22682W        W41536   9.697   6.266   1.071  0.0651 -0.1687  0.2985
22683W        W41537  11.103  14.960   0.900  0.0883  0.0841  0.0127
22684W        W41538  16.843   0.315  14.050  0.1602  0.1994 -0.2363
22685W        W41539   7.053  12.576  13.388 -0.2330  0.0656 -0.1507
22686W        W41540   2.630  10.046   2.771 -0.1477  0.0738 -0.0921
22687W        W41541   5.639   4.257   1.434  0.2164 -0.2388  0.0830
22688W        W41542  12.351  13.830   3.069 -0.1852  0.0593 -0.0372
22689W        W41543   4.967  12.271  16.311  0.2667  0.3019  0.1756
22690W        W41544   0.270  12.856  14.121  0.0384  0.1897 -0.1658
22691W        W41545  11.399  16.186   3.246 -0.0884  0.0235  0.0129
22692W        W41546   1.656  12.804   5.185  0.0868 -0.1445  0.1965
22693W        W41547  15.864  15.008   4.666 -0.5644 -0.0589  0.2071
22694W        W41548   2.279   8.070  16.713 -0.0036 -0.0297  0.3022
22695W        W41549   7.565  16.158   4.995 -0.1495  0.4331 -0.1252
22696W        W41550  16.514   8.998   3.755 -0.1303 -0.1584 -0.1099
22697W        W41551  12.537  14.472   3.767  0.0236 -0.2290 -0.0550
22698W        W41552  15.101  10.391   4.311 -0.2092  0.1297 -0.1900
22699W        W41553   4.544   6.339   2.380 -0.1944  0.1582 -0.0081
22700W        W41554   6.953  16.762   1.344 -0.1008  0.0332 -0.2510
22701W        W41555  11.688   0.936  17.163  0.1729 -0.2010 -0.0635
22702W        W41556  13.422  10.099   5.022  0.0043  0.1892 -0.0294
22703W        W41557   5.853  12.262   0.362 -0.2058  0.0854 -0.2671
22704W        W41558   0.584   8.086  12.552 -0.3414  0.0032 -0.0295
22705W        W41559   2.172   0.088   2.152 -0.0038  0.2333  0.1296
22706W        W41560  11.703   3.297   4.403  0.2470 -0.0938 -0.1769
22707W        W41561  10.708   6.462  15.203 -0.1796 -0.1742  0.0014
22708W        W41562   4.958   3.543   3.285 -0.1830 -0.0396  0.0694
22709W        W41563  15.453   7.390  13.840  0.0585 -0.2958  0.0257
22710W        W41564   5.867   4.604  15.427 -0.1662 -0.0783 -0.1530
22711W        W41565  12.141  10.806  14.799  0.1981  0.1632  0.0425
22712W        W41566  13.031  12.316   0.179 -0.1833 -0.1252 -0.1264
22713W        W41567   0.186  11.104   3.946 -0.0417  0.1725 -0.0088
22714W        W41568  10.111  11.268  12.349  0.0086 -0.1025  0.3281
22715W        W41569   0.763   0.757  15.457 -0.2343 -0.0559  0.1144
22716W        W41570   6.775   1.954  15.510 -0.4198  0.0701 -0.0357
22717W        W41571   3.987  12.111  14.595 -0.2093 -0.1167 -0.1223
22718W        W41572  14.812   0.964   1.746  0.0031  0.0005  0.2239
22719W        W41573   5.065  17.010  17.406 -0.2439 -0.0196 -0.2504
22720W        W41574   4.695  14.724  14.384  0.1200  0.0645  0.1288
22721W        W41575  12.490   3.775   1.709 -0.1454  0.0883 -0.1772
22722W        W41576  15.229   4.799  15.306 -0.2174  0.0790  0.3336
22723W        W41577   5.523  16.401   0.700  0.1948 -0.4170 -0.1318
22724W        W41578   6.981  11.441   1.929  0.0792  0.0091 -0.0086
22725W        W41579   7.847   0.731  12.274 -0.2175  0.2443 -0.1494
22726W        W41580   0.240  16.593  14.690  0.1425  0.2984 -0.0526
22727W        W41581   3.856  14.558  17.400 -0.2307 -0.0892  0.0301
22728W        W41582   1.867   2.679  12.762 -0.1816 -0.0904 -0.0237
22729W        W41583   9.954   4.437   1.965  0.0239  0.1549  0.0226
22730W        W41584  13.938   5.904  11.750  0.0719  0.0773 -0.2155
22731W        W41585  16.231  13.860   4.081 -0.1976 -0.0502 -0.1666
22732W        W41586  10.335   5.024   4.675 -0.0525 -0.4737  0.2698
22733W        W41587  13.792   6.042  14.046 -0.1388 -0.0188 -0.0815
22734W        W41588  10.371   5.792   4.844  0.2452 -0.1562 -0.1430
22735W        W41589  16.365  13.230  15.140 -0.1825  0.1970  0.1723
22736W        W41590  11.164  14.414   0.039 -0.1145  0.2320 -0.0868
22737W        W41591  14.796   3.016  16.472 -0.0498  0.0387  0.1388
22738W        W41592  14.414  12.647   4.869 -0.1412 -0.1238 -0.2928
22739W        W41593   6.901   8.643  15.260  0.2807 -0.3445  0.1665
22740W        W41594  14.520  10.581  14.772 -0.1717 -0.0567 -0.0742
22741W        W41595  10.719   8.648  15.398 -0.1096  0.2054  0.0088
22742W        W41596   7.791   7.065   0.821  0.0167 -0.0969  0.1755
22743W        W41597  13.324  10.507  15.967  0.0109  0.1702  0.0501
22744W        W41598  15.391  12.164  15.284  0.1190  0.0106 -0.2242
22745W        W41599   9.343   6.525   2.676 -0.0054 -0.3101  0.4606
22746W        W41600   4.898   3.755  13.517  0.0010  0.0007  0.1477
22747W        W41601  12.837   4.066  14.449 -0.2999 -0.0273 -0.1453
22748W        W41602   1.664   1.934   1.586 -0.4178 -0.2288 -0.0324
22749W        W41603   2.828   1.448   4.995  0.0440 -0.2783 -0.1248
22750W        W41604   9.971   3.881   1.841 -0.0820 -0.2360 -0.0613
22751W        W41605   2.576  16.875  16.470  0.1416  0.4396 -0.3445
22752W        W41606   6.123  12.478  13.345  0.1654 -0.0398  0.5820
22753W        W41607   3.463   3.101  17.254 -0.1734 -0.1412  0.5153
22754W        W41608  13.479  11.491   0.349  0.0180  0.2161  0.0233
22755W        W41609  10.997   6.888   2.081 -0.5008 -0.0655 -0.1336
22756W        W41610   6.955   4.834   1.724  0.1532  0.2525  0.1054
22757W        W41611   5.473   3.224  13.047  0.0536 -0.0309  0.0657
22758W        W41612   1.900   4.630   0.235 -0.3311 -0.1486 -0.0464
22759W        W41613   8.919   9.745  14.857 -0.0380 -0.0944 -0.0087
22760W        W41614   3.743   7.011  14.922 -0.0990  0.2397 -0.0449
22761W        W41615   5.562   1.930   1.365 -0.2343 -0.0646  0.1461
22762W        W41616   8.326   1.515  17.401 -0.0521 -0.2014  0.1958
22763W        W41617   0.449  14.753   1.607  0.0602 -0.2074 -0.2252
22764W        W41618   1.020  16.772  15.021  0.1554  0.1357  0.0325
22765W        W41619   2.931  12.875  17.374 -0.3825 -0.2160 -0.1423
22766W        W41620  13.283  14.204  13.976 -0.1431  0.1322 -0.2611
22767W        W41621  17.341   8.133   0.539  0.2165 -0.3104 -0.1020
22768W        W41622   8.761   8.680   5.396 -0.2369 -0.2475 -0.1277
22769W        W41623   5.367  12.438  17.267 -0.1090 -0.2934 -0.1140
22770W        W41624   5.014  15.406   5.366 -0.1188 -0.0466 -0.1243
22771W        W41625  11.866  12.923  12.120  0.1119 -0.1548  0.1331
22772W        W41626   0.433   6.824   4.252 -0.2412  0.0881  0.0725
22773W        W41627  13.994  15.420  15.976 -0.1111 -0.0240  0.2639
22774W        W41628  11.717   4.697  16.743  0.1121 -0.0761 -0.2185
22775W        W41629   1.895  16.573  16.040  0.0948 -0.2353  0.2027
22776W        W41630   8.201  13.917  17.311  0.0967 -0.0728 -0.0161
22777W        W41631  14.930  12.473  14.851 -0.1216  0.0103  0.1226
22778W        W41632  10.964   1.477  15.453 -0.0946  0.0660 -0.1670
22779W        W41633   0.081   7.657  14.016 -0.2926  0.0447 -0.0294
22780W        W41634  16.258   7.013   3.799  0.1118 -0.2105  0.2526
22781W        W41635   1.238  12.783  15.921  0.3094  0.2007  0.4365
22782W        W41636  14.127  12.210  14.900 -0.1681 -0.1007 -0.3989
22783W        W41637   4.392  14.149   4.056  0.0675 -0.0125  0.0036
22784W        W41638   1.653   6.424  13.020  0.2084 -0.1044 -0.0095
22785W        W41639  10.653   1.287  16.294  0.1177 -0.2356 -0.1147
22786W        W41640   5.165  13.522  14.955 -0.4976  0.0230 -0.1183
22787W        W41641  16.481   9.578   1.031  0.0128  0.3568 -0.4055
22788W        W41642   9.636  11.286   1.155  0.1273 -0.0171  0.1215
22789W        W41643  10.981   4.810  15.600  0.0026  0.0237 -0.1770
22790W        W41644   9.299   8.189   0.607 -0.2515  0.2502  0.3148
22791W        W41645  11.370   5.599   0.037  0.0580  0.0200 -0.0813
22792W        W41646   6.771   0.293  14.741  0.0086 -0.0088 -0.0596
22793W        W41647  10.999  16.962   3.702 -0.1567 -0.1482 -0.0151
22794W        W41648   0.003  10.232   1.761  0.0855  0.1028  0.1813
22795W        W41649  13.324   7.413   5.216  0.1521 -0.1987 -0.3036
22796W        W41650  12.413   3.860  15.330 -0.2042 -0.2075 -0.1712
22797W        W41651   2.870   9.403  13.917 -0.0534  0.1102 -0.1054
22798W        W41652  12.944   0.983  14.900 -0.1420 -0.0356  0.2245
22799W        W41653   8.263   7.081  15.799 -0.0609  0.2069  0.0435
22800W        W41654   7.839   3.424   3.967  0.1838  0.2614 -0.0366
22801W        W41655  13.028   5.696   1.563 -0.1286  0.1149  0.3881
22802W        W41656   9.797   7.947   2.834  0.1614  0.2547  0.0680
22803W        W41657   1.732   2.605  15.664  0.1615  0.0544  0.0177
22804W        W41658  10.808  12.983   2.311  0.1976 -0.0747 -0.2334
22805W        W41659   3.533  15.213  14.903 -0.2716 -0.2642  0.0445
22806W        W41660  14.303   3.168   3.092  0.0805 -0.1047 -0.0140
22807W        W41661   6.488   2.071  16.579 -0.0366  0.0111  0.2119
22808W        W41662   6.534  12.795   0.915  0.2427 -0.0481 -0.1555
22809W        W41663  14.134   2.817  12.600 -0.0590  0.0752 -0.0411
22810W        W41664  12.814  15.063  13.746  0.2512 -0.1126 -0.0571
22811W        W41665  16.658   0.940   2.434 -0.1369  0.2664  0.1343
22812W        W41666   0.054   0.343  13.227 -0.2708  0.4035 -0.0885
22813W        W41667   1.988  11.977  15.591 -0.0998 -0.1102 -0.2553
22814W        W41668   9.649   0.442  16.705 -0.1973 -0.2406  0.1612
22815W        W41669   5.212   8.644   1.496  0.4856  0.0519 -0.1606
22816W        W41670  16.483   9.408  12.744  0.0815 -0.0750 -0.0379
22817W        W41671   1.984   8.893   3.773  0.1045 -0.1887  0.3174
22818W        W41672  11.335   1.107  14.741  0.2216  0.1931 -0.0150
22819W        W41673  12.719  10.041   4.733  0.1601  0.2016  0.0172
22820W        W41674   8.449   8.252   3.107  0.0604 -0.3039  0.0271
22821W        W41675  16.736  15.124   0.727 -0.0661  0.0082 -0.3917
22822W        W41676   0.264   7.956   3.280 -0.2874 -0.1363  0.2307
22823W        W41677   1.169   2.901  13.168 -0.0092  0.5695 -0.1732
22824W        W41678  16.150   9.858  17.258 -0.0868 -0.2818 -0.2528
22825W        W41679   3.300   6.150   3.869  0.5331  0.3305  0.0953
22826W        W41680   4.144  15.195   1.730 -0.1479  0.1075  0.1457
22827W        W41681  14.889   0.431  14.763 -0.2343  0.1453  0.1483
22828W        W41682   2.432  16.202  16.591  0.0679  0.0094 -0.0724
22829W        W41683   3.452   8.614   4.886  0.1067 -0.1420 -0.1975
22830W        W41684   9.839  14.686   1.277 -0.1689 -0.0863 -0.2732
22831W        W41685   0.414   5.817   1.310 -0.2056  0.1439 -0.0042
22832W        W41686   3.232   5.142  15.182 -0.0131 -0.1058  0.0371
22833W        W41687  12.712  16.944  15.171 -0.2133 -0.0401 -0.0899
22834W        W41688  14.898  10.567  15.297  0.1191  0.1873  0.1655
22835W        W41689  12.580   6.793  14.390  0.3310  0.1479  0.1289
22836W        W41690   8.340  15.034   5.294 -0.4553  0.2352 -0.0623
22837W        W41691  16.761   4.050   1.704 -0.1749 -0.2090  0.1381
22838W        W41692   1.864   3.063  14.917  0.0317 -0.1599 -0.2451
22839W        W41693   1.677   3.190  14.456 -0.0594 -0.0252  0.1847
22840W        W41694  17.303  16.095   1.626 -0.0152  0.1115 -0.1052
22841W        W41695  12.724  15.935  13.780  0.0142  0.0215 -0.2197
22842W        W41696  13.726  16.330  12.932  0.0865 -0.0239  0.0061
22843W        W41697  13.963  17.104   1.842  0.3449  0.1964  0.1388
22844W        W41698  11.500  11.392  14.212 -0.0736 -0.0221 -0.1807
22845W        W41699  13.704   8.205  14.703 -0.0162  0.0322 -0.2277
22846W        W41700   8.296   1.241   4.995  0.0978 -0.3096  0.0512
22847W        W41701   6.118  14.112   4.808  0.0905 -0.0780 -0.1517
22848W        W41702  13.599  13.433  13.841  0.0948 -0.0574 -0.0555
22849W        W41703   5.710   1.273  15.624  0.2528 -0.1340  0.1123
22850W        W41704   6.573   2.494  16.140 -0.1687  0.0588 -0.1203
22851W        W41705   1.399   9.161  14.384 -0.1470  0.4090  0.1567
22852W        W41706   2.328   1.944  11.302 -0.0168 -0.0191 -0.2011
22853W        W41707  15.214  14.883  13.083 -0.4021  0.0004 -0.0148
22854W        W41708   7.663   8.366   0.454 -0.0044 -0.1845 -0.1578
22855W        W41709   5.526   3.119  16.121  0.0872 -0.1117 -0.2382
22856W        W41710   2.883   2.728  12.422 -0.1166 -0.1869  0.1045
22857W        W41711  11.879   9.499  11.337 -0.1286 -0.0125 -0.0898
22858W        W41712  10.392  16.592  17.196  0.2804  0.0985  0.1749
22859W        W41713   4.446   6.962   2.596  0.2017 -0.2476  0.0049
22860W        W41714  11.779   5.592   2.306 -0.0941  0.1502 -0.3170
22861W        W41715  17.313   7.241  14.292  0.2302 -0.1387  0.1212
22862W        W41716  17.052  14.655   0.062  0.1005  0.2931  0.3670
22863W        W41717   2.444   4.392  14.454 -0.0379 -0.1379 -0.0446
22864W        W41718  15.349   6.430   5.236  0.0562 -0.4553 -0.0478
22865W        W41719   8.104   6.855   3.259  0.2223  0.1883  0.0554
22866W        W41720  17.259   9.741  12.646 -0.1002 -0.1444  0.1834
22867W        W41721   7.411  11.721   1.080  0.0925  0.0609  0.0583
22868W        W41722  11.798  11.593  16.344 -0.1579 -0.0235 -0.0905
22869W        W41723   4.862  13.954  13.100 -0.2683 -0.1117  0.0477
22870W        W41724   2.404   9.320   3.202  0.2173  0.1124 -0.2551
22871W        W41725   3.776   0.039   2.843  0.1341 -0.0559  0.3216
22872W        W41726   8.297  16.432  13.274 -0.1167  0.1361  0.1349
22873W        W41727   8.830   9.351   4.567 -0.1601  0.1442 -0.0851
22874W        W41728   3.692  11.021   4.400 -0.1709  0.1751 -0.0275
22875W        W41729  16.438   6.272  13.389  0.3054 -0.1430  0.2549
22876W        W41730   7.743   5.760   1.357  0.2144  0.0642  0.2828
22877W        W41731  14.314   1.188  13.802 -0.1695 -0.0364  0.0741
22878W        W41732   2.562   5.065   3.966  0.0975 -0.1800  0.4038
22879W        W41733  11.689   6.412  13.545  0.2996 -0.2119 -0.2612
22880W        W41734   1.987   4.351  14.378  0.1022  0.1148  0.0562
22881W        W41735   6.002  10.375  15.760  0.3580 -0.1836 -0.1603
22882W        W41736   2.093  12.939  15.737 -0.0565  0.1325  0.1768
22883W        W41737   6.789   4.433  13.374 -0.2101  0.0514 -0.1987
22884W        W41738  14.677  14.789   1.879  0.1260 -0.2262  0.1126
22885W        W41739  10.009   5.610   4.390 -0.1885 -0.2241 -0.0717
22886W        W41740   4.180  11.383   2.393 -0.1003 -0.1168 -0.2250
22887W        W41741  16.981   6.947   1.103  0.0170 -0.3202  0.1416
22888W        W41742  10.179  10.977   0.146 -0.1560 -0.1603 -0.0238
22889W        W41743  10.080   1.977  17.419  0.0451 -0.0608 -0.0717
22890W        W41744   3.558   0.613   0.148  0.0626 -0.1995  0.1152
22891W        W41745   8.892   2.344  16.644 -0.0463 -0.4714  0.0904
22892W        W41746  14.992   0.462   1.603 -0.0234  0.0282  0.2065
22893W        W41747   8.916   5.165  12.701  0.0316 -0.3132  0.0603
22894W        W41748  14.508  11.440  15.551 -0.3111 -0.2518  0.0905
22895W        W41749   2.431   7.353  13.750 -0.3306  0.2745 -0.0221
22896W        W41750  16.424   0.537   0.292 -0.0656  0.0648 -0.3508
22897W        W41751   9.834  13.200   1.552 -0.0593  0.2169 -0.0979
22898W        W41752  14.731  15.888   4.301 -0.0039  0.1545  0.1227
22899W        W41753   4.582  12.417   4.753  0.2072 -0.0442 -0.1908
22900W        W41754   9.476   1.167  17.171  0.1045  0.0542  0.1030
22901W        W41755   8.374   5.181  15.448  0.1478  0.3146 -0.1927
22902W        W41756  15.352  15.382   4.196 -0.1355  0.0541  0.1934
22903W        W41757   0.514   5.904   1.799 -0.0221 -0.0944  0.2961
22904W        W41758   2.344   5.086   4.533 -0.1094 -0.3496  0.1085
22905W        W41759   0.776   3.946  13.759  0.2794  0.0782 -0.2168
22906W        W41760  14.653   1.636  16.024 -0.1103  0.0094 -0.2376
22907W        W41761  15.392  11.008  17.224  0.1749 -0.1656  0.0586
22908W        W41762  14.549  15.151  15.282  0.1210 -0.0214  0.0934
22909W        W41763   6.949  11.178  15.665  0.1293  0.0163  0.3035
22910W        W41764  15.877   2.345  12.050  0.1275  0.1551  0.0036
22911W        W41765  12.044  17.281   4.222  0.3555  0.2251  0.3513
22912W        W41766   2.902   1.671   1.827  0.2398  0.0446  0.0473
22913W        W41767  12.448  13.500  17.231  0.1383  0.0782 -0.1090
22914W        W41768   6.081   5.806  16.928  0.2472  0.1659  0.2463
22915W        W41769   0.910  14.499  13.557 -0.0841  0.0823  0.0871
22916W        W41770   1.636  10.889  14.678  0.0084  0.0725 -0.1936
22917W        W41771  11.583   1.341  12.683 -0.3778  0.0416 -0.0073
22918W        W41772  17.238   8.266  15.555  0.0299  0.0037 -0.0295
22919W        W41773   2.473  13.818  12.546 -0.0613 -0.0755 -0.0112
22920W        W41774  16.036  14.307  14.500  0.0500  0.0279  0.0097
22921W        W41775  10.200   7.520  13.318  0.1524  0.0162 -0.0883
22922W        W41776   7.886   9.038  14.254  0.4924 -0.4916 -0.1579
22923W        W41777  10.124   6.929  17.259  0.0994  0.0470  0.1867
22924W        W41778   8.687  15.360   2.432  0.2025  0.1121 -0.2071
22925W        W41779   4.020   8.131  13.149  0.3432  0.0550 -0.0334
22926W        W41780   6.728  16.946  14.370  0.0550  0.0351  0.0720
22927W        W41781   9.662   7.249   5.274  0.0910  0.2977 -0.1567
22928W        W41782  13.000   8.684  17.144  0.1030  0.0497  0.2067
22929W        W41783   3.564   7.939   5.110 -0.0822 -0.0561  0.2880
22930W        W41784  12.499   9.859   3.016 -0.0277  0.2691  0.0449
22931W        W41785  12.916   0.438   2.339  0.0260  0.4028  0.0702
22932W        W41786  13.430   7.816  13.773 -0.1205 -0.2154  0.0611
22933W        W41787  16.572  15.926  12.349 -0.2411 -0.2250  0.0616
22934W        W41788  12.784  11.962  14.519 -0.0538  0.0166  0.3846
22935W        W41789  16.343   6.425  12.917 -0.4172 -0.0207  0.0302
22936W        W41790   8.268  10.453   3.166  0.2555 -0.1767 -0.0367
22937W        W41791  13.384   5.697   3.419 -0.2295  0.2246  0.0825
22938W        W41792  12.943  14.140  13.388  0.1293 -0.3187 -0.0418
22939W        W41793  10.276   2.887   5.110  0.1614  0.0187  0.4711
22940W        W41794   9.624   1.836   4.112 -0.0232 -0.2249  0.0153
22941W        W41795   4.675  13.071  17.458  0.1162 -0.1386 -0.1685
22942W        W41796   3.405  12.629  17.259 -0.2402 -0.0748  0.0528
22943W        W41797   4.557   5.782  12.570  0.3804 -0.0179  0.0005
22944W        W41798   0.936  16.372  17.079 -0.0963  0.0316  0.2602
22945W        W41799   8.805   9.975  14.413 -0.1718 -0.1530  0.1071
22946W        W41800  15.753   6.177   3.488  0.0511  0.1936 -0.5517
22947W        W41801   5.924  10.837   3.169 -0.1597  0.0410 -0.0675
22948W        W41802  11.900  15.913  14.189 -0.1003 -0.2609 -0.0909
22949W        W41803   1.581  15.627  12.378 -0.0091 -0.2285  0.0322
22950W        W41804   5.737   6.755  15.458  0.2733  0.0335 -0.0891
22951W        W41805   8.048  15.767  15.864 -0.0529  0.1100  0.1466
22952W        W41806  13.552   0.415   5.046  0.1984 -0.0000 -0.1624
22953W        W41807   9.760  16.600   0.421  0.0599 -0.1755  0.0516
22954W        W41808  10.091   6.212  16.817  0.1935  0.1192  0.4890
22955W        W41809  13.370   5.043   0.500 -0.3363 -0.0848 -0.2135
22956W        W41810  10.752   4.735  16.943 -0.1506  0.1102 -0.3011
22957W        W41811   0.126   0.144   1.402 -0.1435  0.0364 -0.2028
22958W        W41812  10.352   8.986   2.512  0.0182 -0.0053  0.3062
22959W        W41813   5.693  12.058  15.627 -0.1308  0.0525 -0.0024
22960W        W41814   3.649  11.676  14.322 -0.0451  0.3935  0.0117
22961W        W41815   7.275  13.228  15.923 -0.0306 -0.0311  0.0462
22962W        W41816   7.834  11.641   2.476  0.2891 -0.0322  0.1511
22963W        W41817   1.565  17.028   4.566  0.0889 -0.0343  0.0046
22964W        W41818   2.086   8.722   4.901  0.1896  0.2201  0.1856
22965W        W41819   6.069  17.324   2.134  0.1049 -0.2967  0.0890
22966W        W41820  12.886   0.935   0.303 -0.2186 -0.0764 -0.0268
22967W        W41821  13.168  13.288  14.739  0.3366  0.1888  0.1061
22968W        W41822   9.251   8.494   1.710 -0.0101 -0.1093 -0.3045
22969W        W41823   0.840   2.779  13.950 -0.0441 -0.1070 -0.0048
22970W        W41824  16.596   4.675  13.253  0.0920 -0.0712 -0.2954
22971W        W41825  15.723  11.441  15.843  0.0990 -0.3017 -0.1075
22972W        W41826  11.310   2.480   2.918  0.1438  0.1575  0.2406
22973W        W41827   9.510  12.547   3.014  0.0730  0.2218 -0.0014
22974W        W41828   1.027   8.539  12.874 -0.2696  0.1994 -0.1598
22975W        W41829  12.276  15.753   5.029  0.2146 -0.0174 -0.1514
22976W        W41830   9.205  13.405   4.956  0.1501  0.0093 -0.0207
22977W        W41831   6.083   6.124   4.551  0.2931  0.1854  0.2004
22978W        W41832  11.312   3.480  13.439  0.2131 -0.1415  0.2262
22979W        W41833   8.267  16.198   3.036  0.0771 -0.1438 -0.2224
22980W        W41834  15.000   8.570   4.642  0.0501  0.0549 -0.2763
22981W        W41835   7.036   8.286   4.657 -0.3101 -0.3366  0.1016
22982W        W41836  15.069   3.108  12.153 -0.0492 -0.0626  0.0234
22983W        W41837  12.397   3.585  14.432  0.0698  0.1614 -0.1494
22984W        W41838  11.018  13.896   1.865  0.0140  0.0240  0.0868
22985W        W41839   7.987   6.765  14.873 -0.0483 -0.0599  0.0991
22986W        W41840  16.332   3.757  15.722  0.0409  0.2268  0.4173
22987W        W41841  12.687   2.658  16.246  0.1872 -0.0846 -0.1560
22988W        W41842   0.904   8.856   2.463  0.1262 -0.1013  0.1501
22989W        W41843  16.788   5.516  12.977  0.1567  0.1223  0.0891
22990W        W41844  10.361   4.528   4.007 -0.1895  0.0544 -0.0641
22991W        W41845   2.815   1.446  15.315 -0.2758 -0.0576  0.4109
22992W        W41846   5.674   8.962   6.263 -0.1387 -0.2484 -0.1819
22993W        W41847   4.437   3.846   5.061 -0.0515 -0.0146 -0.3603
22994W        W41848   7.584  11.044   5.312 -0.1683  0.1688 -0.2481
22995W        W41849  10.468   7.699   4.852 -0.0202 -0.1006  0.1516
22996W        W41850   9.972   4.856   3.917 -0.0962  0.1545 -0.0633
22997W        W41851   2.151   0.729  13.356 -0.1950  0.1438  0.3185
22998W        W41852  13.024  15.558  15.959  0.1017 -0.0992 -0.0326
22999W        W41853  10.857   1.814  13.199 -0.3839  0.1907 -0.1973
23000W        W41854  10.674   7.367  13.207 -0.1693 -0.3285 -0.2287
23001W        W41855   4.455   5.365  13.877 -0.0270  0.0816  0.0961
23002W        W41856   4.324   5.464   1.304  0.0252 -0.1230 -0.1140
23003W        W41857   1.372  16.245  11.687  0.1847  0.0164  0.0364
23004W        W41858  15.644  10.384  14.045  0.3182 -0.0210 -0.0243
23005W        W41859  15.405   9.419   4.475 -0.0343 -0.1187  0.0146
23006W        W41860  13.208  13.718   3.477  0.1296  0.0125 -0.1162
23007W        W41861  10.487   7.590   0.072  0.2328 -0.1327  0.1972
23008W        W41862  11.423  16.007   2.619 -0.1668 -0.0213 -0.1902
23009W        W41863  13.751  16.464  14.344  0.0728 -0.0140  0.0286
23010W        W41864  11.606  13.355   2.145 -0.0990  0.1590 -0.0521
23011W        W41865   4.696  13.385  16.280 -0.0599 -0.1541  0.0584
23012W        W41866   2.416   4.136  16.506  0.0242  0.2059  0.2225
23013W        W41867   8.561   3.136   5.071 -0.1049 -0.0698 -0.1646
23014W        W41868  16.105   6.291  15.292 -0.0493  0.1022 -0.0190
23015W        W41869   3.462  11.392  13.333 -0.0506  0.0276  0.1599
23016W        W41870   8.827   2.011  14.201 -0.1242  0.0902 -0.1424
23017W        W41871  15.877  15.596   1.124 -0.0846  0.0284 -0.3339
23018W        W41872  11.362  10.844   4.654  0.1815 -0.2933 -0.1680
23019W        W41873  15.081  13.033   2.187 -0.1463  0.0768  0.0369
23020W        W41874   0.698   4.379  15.997  0.1290  0.0216  0.0580
23021W        W41875  16.217  15.180  17.384  0.0104  0.0547 -0.2125
23022W        W41876  10.850  13.438   4.902 -0.0990 -0.2458 -0.0965
23023W        W41877  10.211   6.276  15.076  0.0235 -0.0439 -0.2397
23024W        W41878  10.519  12.297  16.001  0.1524 -0.0463  0.1593
23025W        W41879   5.704   2.793   2.410 -0.0656 -0.1957  0.3342
23026W        W41880   5.291   9.092  11.511  0.3045  0.0034  0.1407
23027W        W41881   7.420   4.376  15.235 -0.1784 -0.1321  0.0263
23028W        W41882   8.422   4.633  16.753  0.1631 -0.0422 -0.0622
23029W        W41883   7.539   8.721  16.860 -0.0031 -0.1361 -0.2172
23030W        W41884   9.778   9.862  16.349 -0.1510 -0.1711 -0.0316
23031W        W41885  10.735  17.242   1.745  0.0015  0.1531  0.3955
23032W        W41886  16.799  14.023  13.036  0.1133  0.1878 -0.1430
23033W        W41887   1.029  10.549  13.600 -0.1497  0.0461 -0.1930
23034W        W41888  10.525  14.481  14.279 -0.0751  0.0885  0.1493
23035W        W41889  15.852  15.334  15.469  0.0055  0.1444 -0.0487
23036W        W41890   5.102   0.979  13.474  0.3611 -0.1611  0.0686
23037W        W41891   5.534   4.577   3.951  0.0402  0.1377 -0.2330
23038W        W41892   6.540   2.708   3.912 -0.2166  0.0299 -0.2177
23039W        W41893  15.752   2.336   0.480  0.2456  0.2678 -0.0352
23040W        W41894  15.572  11.240   1.589  0.1697 -0.0192 -0.0781
23041W        W41895   2.164  10.469   0.509  0.0947 -0.0777 -0.3446
23042W        W41896  12.157   9.985  16.176 -0.3029  0.0969 -0.1087
23043W        W41897   8.609   7.219   3.177 -0.1615  0.0939 -0.0983
23044W        W41898  11.926  12.414  16.739 -0.0124  0.4359  0.0537
23045W        W41899  12.477   9.788   1.026 -0.1506 -0.0425 -0.0186
23046W        W41900  11.886   2.837  11.396 -0.0362 -0.1351 -0.0027
23047W        W41901   2.604  13.981   3.654  0.1948 -0.2329 -0.1831
23048W        W41902   1.826   1.060   2.739 -0.0134  0.0577  0.2844
23049W        W41903  14.740   3.753   4.659 -0.2518  0.0681  0.1708
23050W        W41904  13.410   1.085  12.868  0.0853  0.0212  0.0459
23051W        W41905   6.488  15.253  17.036  0.1870  0.2076 -0.1234
23052W        W41906  10.614   9.689  13.685 -0.0772 -0.3517 -0.1282
23053W        W41907   0.417   4.491   4.384 -0.0681 -0.1149 -0.2833
23054W        W41908   0.599   1.367   1.724  0.2413  0.1354  0.1569
23055W        W41909   9.571  15.457   2.461  0.0569  0.1149 -0.3310
23056W        W41910  13.440   4.901   0.012 -0.0179 -0.3442  0.2550
23057W        W41911  14.959  11.337   5.387  0.0320 -0.2611 -0.0026
23058W        W41912   3.413  14.140  16.156 -0.0597 -0.4477 -0.3120
23059W        W41913  16.674  11.299   5.266  0.2591 -0.2077  0.0104
23060W        W41914  11.778  12.504  14.462 -0.1493  0.0841  0.2044
23061W        W41915  14.276   1.474  13.216  0.1291 -0.0250  0.2720
23062W        W41916  10.138  13.489  15.249  0.0437  0.0236 -0.1784
23063W        W41917   3.871   6.469  16.896 -0.0083 -0.0550 -0.1489
23064W        W41918   1.112   5.464  15.230  0.0938 -0.2134 -0.1692
23065W        W41919   2.315   0.360  17.207  0.2031  0.1173 -0.4473
23066W        W41920  12.605  13.070  12.621  0.1661 -0.1919  0.0749
23067W        W41921  10.695  12.118   2.972  0.1910  0.4122  0.0570
23068W        W41922  13.109  10.947  12.837  0.1550 -0.0664 -0.0923
23069W        W41923  16.330   2.244   1.732  0.2287 -0.0718  0.0171
23070W        W41924   6.905   7.294   2.761  0.2556  0.2153 -0.0673
23071W        W41925   1.636   1.154   4.931 -0.1962 -0.3226  0.3168
23072W        W41926   2.683  13.016   1.748 -0.1056  0.0114 -0.1470
23073W        W41927  10.313  11.594  13.644 -0.1450  0.1629  0.0284
23074W        W41928   1.657  13.698   0.023  0.0784  0.1356 -0.2670
23075W        W41929   1.582   1.279  16.457 -0.0586  0.0210 -0.2517
23076W        W41930   7.967   8.410   1.218  0.1471 -0.0135  0.1784
23077W        W41931  16.130  16.702  13.123  0.0743 -0.0894  0.0480
23078W        W41932   5.671   0.957  13.370  0.1229  0.0134 -0.1293
23079W        W41933  13.331  13.287   0.994  0.1346 -0.0701 -0.3474
23080W        W41934  16.959   9.718  17.063  0.1215  0.1204  0.1368
23081W        W41935  17.163  14.304   4.608  0.2983  0.1915  0.0945
23082W        W41936  13.547   0.190  13.799  0.1662  0.0535 -0.1081
23083W        W41937  10.770   7.263  17.275 -0.0330 -0.0290  0.0179
23084W        W41938   8.334   0.569  12.564 -0.0747  0.2601  0.0329
23085W        W41939   8.568   5.185   2.568 -0.1411 -0.0466 -0.1971
23086W        W41940  15.402  14.165   2.350  0.0658 -0.2671  0.2098
23087W        W41941  17.228   6.119  12.526  0.3357  0.1002  0.0483
23088W        W41942  14.151   5.076  15.890 -0.2407  0.1805  0.0570
23089W        W41943   9.043  10.792  12.528  0.0009 -0.0278 -0.0498
23090W        W41944   9.451   5.522   4.343  0.0647 -0.0379  0.0042
23091W        W41945   0.374  15.463  16.377  0.0062  0.0679 -0.2483
23092W        W41946  15.611  13.883  15.237  0.1954  0.0847  0.1485
23093W        W41947   1.550  16.017   2.231  0.0332  0.0213 -0.2377
23094W        W41948   9.360   7.607  13.889  0.1521  0.1917  0.3613
23095W        W41949   5.779   5.719   1.251 -0.2269  0.2497 -0.0279
23096W        W41950   4.036  16.987   0.270 -0.0609  0.1912 -0.1015
23097W        W41951   6.144   3.786  16.089 -0.3168 -0.4077  0.1808
23098W        W41952  14.698   4.794  17.292  0.0704 -0.0340 -0.2313
23099W        W41953  13.886   8.586  11.187 -0.3482  0.0604  0.0143
23100W        W41954   2.547   6.926  12.345 -0.1382  0.1919 -0.1280
23101W        W41955  16.900   1.261  15.268  0.1335 -0.0542 -0.1814
23102W        W41956   8.850  14.333   0.444 -0.1439 -0.0951 -0.0348
23103W        W41957  12.034   5.579  14.467  0.0083 -0.1135  0.3874
23104W        W41958   2.640   7.142  14.637  0.0192 -0.1463  0.2407
23105W        W41959   5.232  12.006  17.114 -0.1662  0.0108 -0.1724
23106W        W41960   6.186   9.969   4.766 -0.1189  0.0834  0.0085
23107W        W41961   7.665   1.712   5.104  0.1451 -0.2289  0.2473
23108W        W41962   7.217  17.185   5.215  0.1918  0.1539 -0.0197
23109W        W41963   3.224   5.902  13.603  0.0989 -0.2608  0.0172
23110W        W41964   6.719   0.191   5.320  0.0668  0.1054  0.0260
23111W        W41965   9.475   6.252   3.258 -0.0985 -0.0009  0.3329
23112W        W41966   6.133  15.695   4.775 -0.1082  0.1807  0.0782
23113W        W41967  15.825  15.310  16.533  0.1869  0.0418  0.0862
23114W        W41968  14.211   8.734   1.480  0.0596 -0.0218  0.1453
23115W        W41969   9.663   8.870   0.974  0.1315  0.0150 -0.0762
23116W        W41970  12.385   7.428  15.164  0.0024  0.0224 -0.0922
23117W        W41971   0.952  13.349  16.391 -0.0101  0.0263 -0.0155
23118W        W41972  16.581  10.615  16.579 -0.3555 -0.2005  0.0821
23119W        W41973  13.517  11.830   3.406  0.0275 -0.0430  0.1223
23120W        W41974  16.648   5.313   2.269  0.0035 -0.2121 -0.0265
23121W        W41975   6.332   3.762  14.518  0.3296  0.0411 -0.0916
23122W        W41976   5.981   4.820  16.932 -0.4152  0.0381  0.0137
23123W        W41977   8.703  12.793   0.674 -0.0708 -0.0208 -0.0792
23124W        W41978  13.322  12.022   3.849  0.0202 -0.0085  0.1759
23125W        W41979   5.797   2.433  17.314 -0.0363 -0.2260  0.1594
23126W        W41980   6.792  14.587  15.057  0.1686 -0.2380  0.2654
23127W        W41981  13.064  13.476   3.020  0.5495 -0.0137  0.0265
23128W        W41982  11.326   1.561   1.889 -0.1795  0.0660 -0.1368
23129W        W41983  13.060   6.897  16.569  0.1177 -0.0808  0.2869
23130W        W41984  14.069  13.706  12.097 -0.2021  0.0261  0.0974
23131W        W41985  10.222   1.821  15.909 -0.1130  0.1342  0.0917
23132W        W41986  14.379  10.499   4.605  0.3329  0.1712  0.1278
23133W        W41987  14.502  12.330  14.566 -0.2441 -0.1482  0.0370
23134W        W41988   1.321   2.475  14.565 -0.2465 -0.0125 -0.0772
23135W        W41989  12.254   3.894  14.006 -0.1083 -0.0649  0.2145
23136W        W41990   1.440   7.244  12.824 -0.0214 -0.2948  0.2301
23137W        W41991   3.598   1.932   3.309  0.0347  0.1320  0.0908
23138W        W41992   5.000  14.867   2.268  0.0739  0.1736 -0.0096
23139W        W41993   1.024   2.942  12.560 -0.2256 -0.0574 -0.0945
23140W        W41994  13.856  17.138   2.688  0.1203  0.1193  0.0856
23141W        W41995   1.378  15.369  14.374  0.1818 -0.0588 -0.2981
23142W        W41996  16.785   1.072  17.167 -0.0337 -0.2622 -0.0846
23143W        W41997  12.495   3.628   2.869 -0.1468 -0.1043  0.1156
23144W        W41998   2.072  10.150   1.402  0.2048 -0.2937 -0.4341
23145W        W41999   5.238   9.375   4.936 -0.1117 -0.0581 -0.0262
23146W        W42000   2.547   6.704  15.854  0.0159 -0.1317 -0.1166
23147W        W42001  13.101  15.439   1.509  0.0657  0.1636  0.0853
23148W        W42002  14.703   1.982  14.053 -0.3293 -0.0847 -0.2026
23149W        W42003   1.747  14.471   4.812  0.2382  0.0583 -0.0695
23150W        W42004  12.592   6.001   0.242 -0.1057 -0.1280 -0.3033
23151W        W42005   0.189  11.138  14.016  0.4192 -0.0901 -0.2993
23152W        W42006  16.772  15.974   1.560 -0.3462  0.2625 -0.0013
23153W        W42007  16.319  15.705  16.007  0.0193  0.0433  0.0604
23154W        W42008   0.269  13.981   4.428  0.1822 -0.3294  0.0324
23155W        W42009  12.755  11.774   0.240 -0.0226 -0.3005 -0.0148
23156W        W42010  15.516   2.806  14.858 -0.2478 -0.1888  0.6344
23157W        W42011   2.069  17.121   4.663  0.1433 -0.0877  0.1206
23158W        W42012   3.574  14.624   2.527 -0.2464 -0.0539  0.0717
23159W        W42013  14.908   8.145   3.069 -0.2092  0.2780 -0.1218
23160W        W42014  15.399  12.145  13.632 -0.2078  0.1885  0.1252
23161W        W42015   1.282   9.667  12.682  0.0587 -0.0268  0.1366
23162W        W42016   1.272  10.985  13.508 -0.0376 -0.3534 -0.0069
23163W        W42017  11.460  17.183   2.276 -0.0812  0.0253 -0.2051
23164W        W42018   4.833  16.916  13.140 -0.2269  0.0516 -0.3192
23165W        W42019  10.584  15.558   0.347  0.1816  0.0144  0.0327
23166W        W42020   0.136  16.555   3.804 -0.1879 -0.1390 -0.2098
23167W        W42021  13.139  16.512   1.529 -0.1870 -0.0711 -0.0203
23168W        W42022  12.583   8.682  13.925 -0.1112 -0.0045 -0.2237
23169W        W42023   5.624  16.939  14.243 -0.2096 -0.0013 -0.1579
23170W        W42024   2.003   3.578   2.519  0.0443 -0.0896 -0.3008
23171W        W42025  13.208  16.532  15.159 -0.0121  0.0030  0.0287
23172W        W42026   2.872   7.656   1.982 -0.0257 -0.2132 -0.0322
23173W        W42027  14.545  16.359  16.659  0.1487 -0.0061  0.5156
23174W        W42028  16.543  14.159  15.295 -0.0946  0.2263  0.0904
23175W        W42029  13.525   5.536   0.557  0.0370  0.1453  0.2477
23176W        W42030   9.043   1.992  13.709 -0.4309 -0.0358 -0.0297
23177W        W42031   5.953   0.167   2.708  0.1434 -0.1096  0.1398
23178W        W42032   4.421   8.552   4.293  0.1356 -0.1150  0.2846
23179W        W42033  14.249   7.527   2.787  0.0426 -0.1152  0.0955
23180W        W42034  14.854  10.478   4.802  0.0202  0.2543 -0.0857
23181W        W42035   2.979   1.407  13.904  0.0724 -0.4178 -0.0662
23182W        W42036   3.362  13.474   4.736  0.1960 -0.2270  0.0462
23183W        W42037   1.290   8.484   0.379 -0.3123  0.1457 -0.0666
23184W        W42038   9.617  16.005   1.688 -0.2522 -0.3294  0.0311
23185W        W42039  16.042   0.700  13.492  0.1873  0.2538 -0.1537
23186W        W42040   8.257   0.941  15.489  0.1268  0.0409  0.0509
23187W        W42041  14.586   4.333   1.588  0.0825 -0.2349  0.1571
23188W        W42042   9.816  10.857  13.989 -0.0905 -0.0112  0.0202
23189W        W42043  11.891   9.329   5.747 -0.2210  0.0853  0.1040
23190W        W42044   4.130   2.075   4.686 -0.0851 -0.1485 -0.2236
23191W        W42045  11.775  16.107  12.552  0.1085 -0.0480  0.0488
23192W        W42046   8.687  13.213  16.128  0.2257  0.2204  0.0987
23193W        W42047  10.710   4.476  13.177  0.4826  0.0525 -0.3003
23194W        W42048  17.139  14.353   3.707  0.2240  0.1568  0.3553
23195W        W42049   2.575   4.786  14.895 -0.1153  0.0251  0.2173
23196W        W42050   3.341  15.998  17.107  0.0564  0.3354  0.0603
23197W        W42051   0.901   5.894  15.365  0.0550  0.1605 -0.1106
23198W        W42052   1.295   4.892   1.484  0.0228 -0.0459  0.0212
23199W        W42053   5.709  12.946  15.698 -0.2010 -0.1796 -0.0028
23200W        W42054   9.942  12.073   1.996 -0.1983  0.0253 -0.0185
23201W        W42055  10.771  10.386   3.425  0.1294 -0.2648 -0.4251
23202W        W42056   3.525  15.371   4.638  0.0732 -0.1913  0.2415
23203W        W42057   1.235   4.318   3.232 -0.0546 -0.1600  0.0383
23204W        W42058   7.439   3.773   4.080 -0.0019  0.0532 -0.1497
23205W        W42059  12.277   8.582  12.988 -0.0598 -0.3898 -0.1442
23206W        W42060   3.206  12.450   1.500 -0.0847  0.1414 -0.0575
23207W        W42061  14.378   4.202  17.459  0.1474 -0.4519 -0.0207
23208W        W42062   9.283   6.199   5.447 -0.0865  0.3302 -0.0375
23209W        W42063  13.858  12.134  13.802  0.0190  0.3474  0.1880
23210W        W42064   2.696   9.495   4.933 -0.1558  0.1694 -0.0345
23211W        W42065   6.826   6.067   4.034  0.1726  0.1848  0.0832
23212W        W42066  11.746  16.972   2.740 -0.0391  0.4138 -0.0873
23213W        W42067   0.480   5.699  15.644  0.0563 -0.2754  0.0766
23214W        W42068  14.449  14.644  15.260 -0.1519  0.0197 -0.0593
23215W        W42069   3.348  16.595  12.595 -0.1780  0.1922  0.1392
23216W        W42070   1.653   2.399  13.731 -0.0892  0.1213 -0.3213
23217W        W42071   2.538  15.640  12.809  0.2155 -0.0457 -0.0489
23218W        W42072   8.579  10.625  12.196 -0.2011  0.0270 -0.1096
23219W        W42073  16.960  16.433  16.946  0.0574 -0.2203  0.0014
23220W        W42074   1.532   6.924   0.316 -0.0991 -0.1441 -0.0188
23221W        W42075   3.081  12.185   3.984  0.0197  0.1531 -0.0561
23222W        W42076  14.442   3.746  13.262 -0.0643 -0.0335 -0.0197
23223W        W42077  17.330  14.998   1.579 -0.1047  0.0044 -0.1684
23224W        W42078   5.643  13.622   2.590  0.0830  0.0331  0.0513
23225W        W42079   5.657   2.109  12.287 -0.1769  0.0501  0.0664
23226W        W42080  16.607   2.145  16.413  0.3439  0.1128  0.0793
23227W        W42081   4.952  15.130  14.715  0.0226  0.4616  0.0554
23228W        W42082  15.003   8.487   1.014 -0.0484  0.3044 -0.0099
23229W        W42083   2.431   4.526   5.087 -0.2887 -0.0536 -0.1336
23230W        W42084  15.969   4.669  15.432 -0.0186  0.4197 -0.1183
23231W        W42085   5.440   2.857   1.130 -0.0202 -0.0440  0.0727
23232W        W42086  11.511  15.919  12.993 -0.0382  0.1794  0.1821
23233W        W42087  15.587   0.701  13.824  0.0277  0.0926 -0.1835
23234W        W42088   3.776   3.210   4.970  0.1542 -0.0386  0.2580
23235W        W42089   6.771  11.833   2.231  0.1048  0.2249  0.1100
23236W        W42090   2.956   4.317   1.748  0.2755  0.1493  0.0308
23237W        W42091   2.557  15.946   3.436 -0.0920  0.1071 -0.0424
23238W        W42092  11.696  14.337   3.426 -0.3662  0.0600 -0.0447
23239W        W42093   6.965  15.259   0.499 -0.0224  0.4104 -0.0123
23240W        W42094   5.159  16.167  15.993 -0.1978 -0.0812 -0.4131
23241W        W42095   5.289  14.779  14.446  0.0040 -0.1173 -0.1622
23242W        W42096  11.961  16.185   0.775 -0.0610  0.0599 -0.1616
23243W        W42097   3.950   2.079  15.695 -0.1476  0.0045 -0.1986
23244W        W42098   4.392  15.666   0.484  0.1076  0.0029  0.0327
23245W        W42099  11.313  16.548  14.809  0.0484  0.0406  0.2176
23246W        W42100   1.346   8.649  13.465  0.2269 -0.1008  0.1037
23247W        W42101   3.788   8.250   4.711 -0.0326  0.0362  0.0035
23248W        W42102   8.509   5.073   0.379 -0.5600 -0.0342  0.1407
23249W        W42103   4.660   8.086   5.031 -0.2273  0.0203  0.2018
23250W        W42104  13.963   7.158   0.124  0.1552  0.0557  0.2168
23251W        W42105   0.429  11.509  12.940  0.0333  0.1097 -0.0327
23252W        W42106   2.625   1.401  12.885  0.3330  0.1502  0.0303
23253W        W42107  11.277   1.143  15.295  0.1064  0.0028 -0.1856
23254W        W42108   1.699   4.063  16.110 -0.0358 -0.0653 -0.0305
23255W        W42109   7.668  14.820   4.759 -0.0223 -0.2196  0.0211
23256W        W42110  17.276  16.770  12.225  0.0255 -0.0163 -0.0204
23257W        W42111   0.864   6.966  17.382  0.1365  0.0764 -0.3044
23258W        W42112  13.038  10.589   3.471  0.2115 -0.2101 -0.0624
23259W        W42113   4.604   3.842   4.513  0.0363 -0.0410  0.2613
23260W        W42114  10.057  14.062   1.887 -0.1047 -0.2936 -0.0433
23261W        W42115   2.987  10.386   1.636 -0.0037 -0.0885  0.4176
23262W        W42116   4.898   1.642   4.644  0.0416  0.1451 -0.1913
23263W        W42117   3.321   7.760  15.871 -0.3933  0.2259 -0.1442
23264W        W42118  16.869   8.678   4.653  0.1881 -0.2223 -0.1504
23265W        W42119   1.979   4.835   0.716  0.0443  0.0628 -0.2282
23266W        W42120   7.180  14.787   4.766 -0.2046  0.0393 -0.2046
23267W        W42121   3.031   7.162  12.438  0.1731 -0.3296  0.0081
23268W        W42122   5.303   0.861   2.980  0.2446 -0.0839  0.1913
23269W        W42123   4.240  17.141  14.306  0.1786 -0.2235 -0.1259
23270W        W42124  13.753   5.132  16.380  0.3165 -0.0265 -0.1806
23271W        W42125   4.893  13.471   4.041 -0.2039  0.3279 -0.1244
23272W        W42126  16.205   2.578   0.345  0.2958  0.2351  0.3914
23273W        W42127   6.214   4.087   2.778 -0.2181 -0.0605  0.2135
23274W        W42128  12.621   1.921   0.896 -0.0929  0.1080  0.0931
23275W        W42129  14.175  15.745   3.625 -0.0545 -0.2445 -0.1018
23276W        W42130   4.356   4.971   1.473 -0.1549  0.1278 -0.1697
23277W        W42131   4.908   7.362   3.872 -0.0344  0.0861 -0.1015
23278W        W42132   4.243   8.438   1.763 -0.1524 -0.1258 -0.0443
23279W        W42133   4.640  12.075   2.342  0.1559  0.0851  0.1405
23280W        W42134   0.369   0.922   4.396 -0.0105  0.0062  0.2314
23281W        W42135  15.717   2.193   1.839  0.2351  0.0708 -0.0900
23282W        W42136  13.086  12.721   1.294  0.1955  0.1152 -0.0404
23283W        W42137   5.883  13.085   5.091  0.2436 -0.1919 -0.1451
23284W        W42138   8.209   7.933  14.360  0.2963 -0.0546 -0.2650
23285W        W42139   0.022   5.283   4.874  0.0354 -0.2894 -0.0542
23286W        W42140  14.279  12.247  13.520 -0.1499  0.2973 -0.0560
23287W        W42141   5.061   4.276   0.290  0.0485 -0.0699 -0.1188
23288W        W42142  15.301  10.400   0.555  0.1158 -0.0321 -0.0688
23289W        W42143   3.418  10.338   2.655  0.0807 -0.0799 -0.0342
23290W        W42144  13.307   2.840   4.214 -0.1039 -0.0095 -0.1022
23291W        W42145   9.636   5.856  14.915  0.1356 -0.1833  0.0723
23292W        W42146  14.513  16.543  15.418  0.0300  0.1334  0.3401
23293W        W42147  12.407   4.234  14.960  0.0841 -0.0335  0.2459
23294W        W42148  16.906  10.948   3.401  0.1503 -0.0845  0.0400
23295W        W42149   4.205  15.557  14.487  0.0760 -0.0800  0.0028
23296W        W42150   3.299  14.708   6.253  0.4646  0.2299 -0.0180
23297W        W42151  10.169  11.479   2.071  0.1974  0.2066 -0.1679
23298W        W42152   6.651  13.100  17.041 -0.0809 -0.0966 -0.0932
23299W        W42153  11.843   2.520  16.610 -0.1247  0.1627 -0.0413
23300W        W42154   7.196   0.654  15.511  0.1265 -0.1793 -0.0886
23301W        W42155  16.046   0.243  12.146  0.1302  0.5613 -0.1597
23302W        W42156   5.421  14.452  15.345 -0.1049  0.1214 -0.2191
23303W        W42157  15.039   1.097  13.102  0.1376  0.3781  0.0823
23304W        W42158   2.223   0.387   0.759  0.1027 -0.1696 -0.1306
23305W        W42159  17.155   5.961  17.303 -0.0626  0.4720  0.2547
23306W        W42160   4.901   5.533   3.964 -0.1421  0.1301 -0.2860
23307W        W42161   7.594  15.168  13.675 -0.0532  0.1343 -0.1836
23308W        W42162   2.525   5.174   1.654  0.0946  0.1449  0.0896
23309W        W42163  10.296  12.587   0.125 -0.0054  0.0405  0.0897
23310W        W42164   6.879  12.645  15.513  0.1556  0.0916 -0.0973
23311W        W42165  16.162  13.478  15.533 -0.0359 -0.2452 -0.1946
23312W        W42166  16.911   3.075  16.244  0.0810 -0.1115  0.2102
23313W        W42167   6.132  11.479   4.970 -0.1914 -0.1562 -0.3068
23314W        W42168   1.133   7.749   3.615  0.1250  0.1081 -0.1051
23315W        W42169  15.752  10.549   0.922 -0.1154 -0.3194 -0.0921
23316W        W42170  16.906  10.532  12.269 -0.1340  0.2803 -0.0072
23317W        W42171  16.729  15.770   2.412 -0.0245 -0.0810 -0.1989
23318W        W42172  16.982   4.656  16.488 -0.0438  0.1500 -0.1557
23319W        W42173  12.609   8.862  15.543  0.2335 -0.3427 -0.0631
23320W        W42174   2.444  17.178  13.246  0.3524  0.1458 -0.0767
23321W        W42175   5.382   8.778   4.996 -0.0555 -0.2648 -0.0881
23322W        W42176   5.667   0.712   0.383 -0.2177 -0.1164 -0.0439
23323W        W42177  13.394   8.589  15.084 -0.1056  0.2128  0.0440
23324W        W42178  16.719  14.048  16.372  0.2900 -0.0437 -0.0924
23325W        W42179  13.436  13.189   0.513  0.2504  0.1787  0.0266
23326W        W42180   0.914  12.674  14.185 -0.2150  0.0300 -0.0216
23327W        W42181   7.101   6.532  17.325 -0.1999  0.0269  0.0426
23328W        W42182   8.397   6.376  17.177  0.2011 -0.0033  0.1709
23329W        W42183  11.111   1.925  16.842  0.1349 -0.1408 -0.0412
23330W        W42184   0.588  14.840   2.300 -0.2260  0.0713  0.0364
23331W        W42185   2.151   5.200  15.291  0.0297 -0.0585 -0.1416
23332W        W42186   9.480   9.248   0.190  0.1004 -0.4310  0.1873
23333W        W42187  14.378   1.755  12.669  0.0393  0.1000  0.1349
23334W        W42188   1.804  14.466  15.223  0.0579  0.0237 -0.1929
23335W        W42189  11.780  10.197  16.394  0.0350 -0.2686  0.2726
23336W        W42190   7.615   4.640  14.721  0.1408 -0.0251 -0.1897
23337W        W42191   8.505   1.209   3.992 -0.0911 -0.1454 -0.1845
23338W        W42192   5.882  14.274   2.095  0.2392  0.2079  0.1264
23339W        W42193  11.691  13.371  13.427  0.0311 -0.2098 -0.0483
23340W        W42194   4.318   6.383  14.832 -0.1519  0.1757  0.3039
23341W        W42195   4.511  14.235   2.143  0.0692 -0.3889  0.4252
23342W        W42196  15.959  12.999  16.254 -0.0610 -0.2772 -0.1039
23343W        W42197  17.147   7.772  15.686 -0.0522 -0.1590  0.1788
23344W        W42198   5.360   0.565   3.817 -0.0836  0.1196 -0.0257
23345W        W42199   8.056   5.894  13.960  0.0710 -0.1089 -0.1418
23346W        W42200  10.440   7.609  17.071  0.3203  0.1240  0.2272
23347W        W42201  10.558   2.517   1.413 -0.2056  0.2354  0.1117
23348W        W42202  11.859  15.193   2.526  0.1218  0.1403  0.0008
23349W        W42203   6.748   7.560  17.433 -0.0955  0.2203 -0.2354
23350W        W42204  14.247   1.666   3.048 -0.1398 -0.0211 -0.1793
23351W        W42205   5.802   7.633  13.765 -0.0285  0.1823 -0.1253
23352W        W42206   5.295  10.930  14.235 -0.2596  0.1133 -0.0855
23353W        W42207  13.857   8.316  16.773  0.0672  0.2656 -0.1086
23354W        W42208  10.682   3.717  17.048  0.1024  0.0723 -0.0157
23355W        W42209   0.032   1.607   3.851 -0.2215  0.1757  0.3107
23356W        W42210  12.010  13.364   2.591  0.4257 -0.1174 -0.0403
23357W        W42211  15.638  16.866   1.176  0.2672 -0.1178  0.0831
23358W        W42212  14.515   9.478   1.250 -0.2557 -0.1881 -0.2068
23359W        W42213   7.604   1.923  17.009 -0.0194  0.2404 -0.0094
23360W        W42214   6.980   2.866   2.805  0.0348 -0.0236 -0.1246
23361W        W42215   3.958  10.436  15.664  0.0081  0.0333 -0.0197
23362W        W42216   2.831   6.383   4.535 -0.1418 -0.0504 -0.2600
23363W        W42217   8.200  11.665   0.272 -0.2837 -0.1752  0.0083
23364W        W42218   4.936   3.826  15.165 -0.0580  0.1955  0.1747
23365W        W42219   9.568   9.341   4.960 -0.0246 -0.1195  0.0063
23366W        W42220   1.581  14.445   4.283 -0.0807 -0.0625 -0.0879
23367W        W42221   5.215  11.078  11.463  0.0915 -0.1637  0.0338
23368W        W42222  11.072  12.059  12.648 -0.0092  0.0096 -0.0398
23369W        W42223   1.015  12.628   1.979  0.1960  0.2741 -0.0300
23370W        W42224   0.439  11.992   0.798  0.1425 -0.0971 -0.0519
23371W        W42225  15.616  14.976  12.739 -0.3445 -0.1611  0.0970
23372W        W42226   0.256  16.238   0.916  0.1020 -0.0561 -0.3676
23373W        W42227   6.038   0.850   5.181  0.2218 -0.0460  0.1709
23374W        W42228   7.496   6.892   3.987 -0.0374  0.1994 -0.1951
23375W        W42229  13.313   5.227  16.657 -0.2554 -0.1083 -0.2376
23376W        W42230  17.089  17.185   0.623  0.1552  0.2294 -0.0270
23377W        W42231  10.206   9.583  15.924 -0.0271  0.1205  0.0292
23378W        W42232   0.863   8.536  12.381  0.1749 -0.0022  0.0939
23379W        W42233   9.488  14.771  15.950  0.0570  0.0850  0.0238
23380W        W42234  13.346  14.858   0.224  0.0839  0.2214 -0.1737
23381W        W42235   2.607   9.483  17.173  0.0947 -0.1754  0.1836
23382W        W42236  11.764   7.964  13.405  0.0348  0.1152  0.0698
23383W        W42237  15.266   8.174  15.829 -0.1864  0.2197  0.0319
23384W        W42238   9.986   5.407  13.762  0.0373 -0.1854  0.2682
23385W        W42239   0.824   7.861   1.031 -0.0329  0.0382 -0.1729
23386W        W42240  14.113  12.399  15.444  0.0782  0.1087 -0.0124
23387W        W42241   3.893  10.147  13.462  0.1882 -0.0017 -0.1958
23388W        W42242  14.611   5.202  16.016  0.1395 -0.2163  0.0777
23389W        W42243  17.185  11.408   1.250  0.0929 -0.2089 -0.2246
23390W        W42244  10.460   7.083  16.956  0.0618 -0.0136  0.0883
23391W        W42245   1.810   0.880  14.241 -0.2133  0.0820  0.0135
23392W        W42246   5.250  13.392   2.778 -0.1421 -0.0799  0.0677
23393W        W42247   6.618  12.922   4.663 -0.2365 -0.1510 -0.0882
23394W        W42248   3.220   1.587   3.310 -0.0647 -0.0660 -0.4184
23395W        W42249   6.257   1.354  17.134  0.0259  0.0725  0.0187
23396W        W42250  14.389   2.385   1.145  0.0841  0.0754  0.1011
23397W        W42251   4.699   1.189   4.587  0.2089  0.0474  0.1592
23398W        W42252   6.883   3.813  13.846 -0.0689 -0.3136  0.0672
23399W        W42253   1.467   7.338   0.667 -0.3577  0.1055  0.0315
23400W        W42254   7.536   8.070   3.772  0.0187  0.0183  0.0172
23401W        W42255  10.862   8.456   2.942  0.1871 -0.1428 -0.2277
23402W        W42256   1.414  15.502   2.356  0.1889  0.0792 -0.1136
23403W        W42257   3.540   8.707   4.355  0.1141  0.1286  0.2196
23404W        W42258   4.322   3.642   0.748  0.1090  0.5367  0.1024
23405W        W42259  17.326   9.736   2.944  0.1158 -0.2889 -0.0106
23406W        W42260   6.160  16.683   4.575  0.0923 -0.0498 -0.0669
23407W        W42261   3.770   7.462  17.410 -0.1123  0.3456  0.0649
23408W        W42262   5.956   7.308   1.960 -0.1195 -0.2447 -0.0484
23409W        W42263   5.214   2.361  15.291 -0.1511 -0.1428  0.1406
23410W        W42264   8.745  12.483  12.555 -0.1003  0.0893  0.1955
23411W        W42265   8.662   0.984  14.409  0.2278  0.1563 -0.1433
23412W        W42266  13.806   1.151  15.910 -0.0104 -0.3711 -0.2331
23413W        W42267   3.793   7.198  16.578 -0.1491  0.0235  0.2024
23414W        W42268   2.192  12.729  16.768  0.1252  0.2106 -0.0920
23415W        W42269   9.895   8.254   2.339  0.1321  0.0143  0.1934
23416W        W42270   2.027   6.254   3.294 -0.0326 -0.0297 -0.0206
23417W        W42271   3.921   9.237   2.447 -0.1567 -0.0790 -0.0358
23418W        W42272   2.809  16.518   2.437 -0.2126 -0.3118  0.5451
23419W        W42273  11.333  14.139  16.036 -0.3275 -0.1450 -0.1544
23420W        W42274   8.682   3.990  16.117 -0.0833 -0.1194 -0.1266
23421W        W42275  10.516  13.407   1.089  0.0698 -0.3016  0.4471
23422W        W42276   1.237   9.873   4.224  0.1167  0.0255 -0.1504
23423W        W42277   0.733   9.408   2.301  0.3699  0.3837 -0.0141
23424W        W42278  12.385  14.791   3.252 -0.1436  0.1406  0.2865
23425W        W42279   2.855  15.928  17.293  0.1105 -0.2623  0.0432
23426W        W42280  10.157   2.432   2.624  0.0011 -0.1166 -0.1126
23427W        W42281  13.846   7.539   1.100  0.1626 -0.1990 -0.0551
23428W        W42282   6.654   8.684   2.233  0.0276 -0.1453 -0.3723
23429W        W42283   6.256   8.312   0.410 -0.0954  0.2793 -0.0138
23430W        W42284  10.378  10.586   3.790  0.1672 -0.1696  0.0940
23431W        W42285   6.718   4.296   1.010 -0.2042 -0.1097  0.0178
23432W        W42286  14.917  11.038  12.491 -0.1119  0.2053 -0.1026
23433W        W42287   1.987  16.206  14.150 -0.0020 -0.1402  0.0095
23434W        W42288  13.278   8.738  13.953 -0.1119 -0.0054 -0.2739
23435W        W42289  15.861  15.474  17.141  0.1236 -0.3032  0.1452
23436W        W42290  13.327   6.529  14.811 -0.2312 -0.2302  0.1535
23437W        W42291   0.214  12.410   0.571 -0.0121 -0.0546  0.1510
23438W        W42292  13.204   8.672  14.565 -0.3819 -0.1056 -0.0394
23439W        W42293   8.451   1.276  14.038  0.1522 -0.0599  0.3710
23440W        W42294   5.829   6.420  12.992 -0.0684  0.0240  0.1130
23441W        W42295  16.838   0.506   3.800  0.2928  0.1131  0.0108
23442W        W42296   7.004  15.980  14.200  0.2030  0.0912  0.1663
23443W        W42297   8.935   1.966  12.348  0.2420  0.1426 -0.0240
23444W        W42298   4.949  10.260   4.200 -0.0390  0.0294  0.2413
23445W        W42299   8.595  14.996  13.438  0.0615  0.0293  0.1492
23446W        W42300   4.907  14.590  12.194  0.2564 -0.1237 -0.1060
23447W        W42301  14.663   3.920  13.724 -0.1402 -0.1179 -0.2434
23448W        W42302  10.145   7.918   0.175 -0.1634 -0.2184 -0.3382
23449W        W42303   4.713   4.213   1.849  0.0981  0.0187 -0.1547
23450W        W42304   6.990  12.808   3.004 -0.0364 -0.2094  0.3504
23451W        W42305  16.917  11.037  13.813 -0.1390 -0.2235  0.0531
23452W        W42306  11.674   5.179  17.433 -0.0906  0.1334  0.0472
23453W        W42307  15.838  13.019  17.372 -0.1985  0.3957  0.0275
23454W        W42308   9.901  10.656  14.418 -0.0659  0.0537  0.0880
23455W        W42309  12.433  12.599   4.636 -0.1063  0.1116  0.1040
23456W        W42310  15.427  12.527  14.904  0.2196  0.1231 -0.3317
23457W        W42311   5.134  12.862  12.675  0.1504  0.1161 -0.0020
23458W        W42312  14.272  12.652  17.410 -0.2780 -0.3242  0.0616
23459W        W42313   7.919   2.493   1.821 -0.2291  0.0914 -0.3571
23460W        W42314   2.283   6.006  14.495  0.2876 -0.0853 -0.2412
23461W        W42315  10.475   2.945  16.641  0.1307 -0.0131  0.2292
23462W        W42316  14.310   5.844   1.886  0.0510  0.1601  0.1083
23463W        W42317  14.423  10.519   2.197  0.0269 -0.0337 -0.1596
23464W        W42318  11.755   9.903   4.267 -0.1554 -0.2804 -0.3137
23465W        W42319   5.377  16.317  15.518 -0.1603  0.1177  0.2151
23466W        W42320   9.074  14.168   0.010  0.2658 -0.1547  0.1207
23467W        W42321  15.049  12.858  13.228 -0.1619  0.2595  0.1340
23468W        W42322   7.296   1.732  12.283 -0.0463  0.0109  0.1412
23469W        W42323   2.968  14.153   4.690 -0.1510 -0.1358  0.3212
23470W        W42324  15.990   4.256  13.731 -0.0447  0.2270 -0.1900
23471W        W42325  10.260   9.864  13.386  0.1830  0.0418 -0.0874
23472W        W42326   3.425  13.807  14.893  0.0032  0.4230 -0.1502
23473W        W42327   4.606   5.277   4.334 -0.1111 -0.0528  0.0748
23474W        W42328  13.845   9.414   0.404  0.1572 -0.6110 -0.0934
23475W        W42329  11.118  11.465  15.141  0.2582 -0.2240 -0.1743
23476W        W42330   7.843   2.708  16.137 -0.2714  0.0399 -0.0782
23477W        W42331   9.520   5.879   5.751 -0.2844 -0.1549  0.1098
23478W        W42332  10.113  16.968   3.045 -0.0722 -0.0689 -0.0074
23479W        W42333   8.967   4.772   1.733 -0.1957  0.1423 -0.0172
23480W        W42334  15.409  12.364   4.578 -0.3183  0.0041  0.2820
23481W        W42335   9.533  15.923  16.993 -0.0871 -0.0135 -0.1061
23482W        W42336  12.656   2.605   2.667 -0.0062  0.0223 -0.1145
23483W        W42337  11.901   3.472  16.113 -0.0766  0.1499 -0.0853
23484W        W42338   5.128  14.991  12.319 -0.1959 -0.0489 -0.0646
23485W        W42339   1.964   4.198  12.643  0.1631  0.0173  0.0705
23486W        W42340  11.636  11.382   0.258 -0.0395  0.0989  0.0552
23487W        W42341  16.391  13.201   2.872 -0.1185 -0.0742  0.0289
23488W        W42342   4.422   4.951  12.761  0.2339 -0.1240  0.1711
23489W        W42343   6.855   4.565   3.462  0.3816 -0.1965 -0.0138
23490W        W42344  13.208  12.061  13.349 -0.1383  0.0542 -0.0110
23491W        W42345  16.519   2.161   1.130 -0.2059 -0.1382  0.1500
23492W        W42346  12.103   0.604  17.356  0.1043 -0.0924  0.3018
23493W        W42347  14.396  16.733  11.975  0.0035  0.0989  0.1754
23494W        W42348   8.766   8.989   5.033 -0.0067 -0.2884  0.2613
23495W        W42349  13.031   0.125   0.916 -0.1227 -0.1824  0.0708
23496W        W42350   0.849   1.967  16.947  0.0675  0.1586 -0.0005
23497W        W42351  12.840   9.650  13.964  0.1195 -0.0653  0.2500
23498W        W42352   5.228   7.061   2.475 -0.0867  0.2448 -0.0577
23499W        W42353   2.867  14.134  12.723 -0.0276 -0.0096  0.0435
23500W        W42354  14.772   6.064  14.826  0.3199  0.2897  0.0652
23501W        W42355  14.370   7.459  15.015  0.0268 -0.0169 -0.1001
23502W        W42356   6.126   7.126  15.477  0.0150 -0.1109  0.0899
23503W        W42357   6.666   5.598   4.962 -0.2641 -0.0598 -0.0435
23504W        W42358   0.079  11.001  14.952 -0.0003 -0.0780 -0.2094
23505W        W42359  13.095   3.590  16.969 -0.0606  0.0605 -0.3147
23506W        W42360  15.697   1.662  17.069 -0.1485  0.4186  0.1100
23507W        W42361   7.970   7.666   1.529  0.1241 -0.0290  0.0127
23508W        W42362  13.712   7.521   3.655 -0.2365  0.0066 -0.1234
23509W        W42363  10.406   9.456  14.187  0.0284 -0.0295 -0.3414
23510W        W42364   3.532   8.224   0.534  0.0086 -0.0044 -0.0558
23511W        W42365   7.202   6.874   3.558  0.1085 -0.1333  0.0729
23512W        W42366   1.196   5.441  16.836 -0.0374 -0.0000  0.1371
23513W        W42367  15.702   8.788   3.179  0.2038  0.2394 -0.0623
23514W        W42368   1.964   9.674   4.356 -0.0089  0.0353  0.0259
23515W        W42369  13.922   2.981  14.884  0.1852  0.0688  0.1091
23516W        W42370  14.703   7.548   2.572  0.0992 -0.1603  0.1349
23517W        W42371  10.266   3.085  15.389 -0.3773 -0.0663 -0.0470
23518W        W42372   2.259  16.294   3.103 -0.2220  0.0846  0.1230
23519W        W42373   0.583   0.653   2.547 -0.0904  0.0032  0.2292
23520W        W42374  16.136  14.715   1.723  0.4174  0.0874 -0.0170
23521W        W42375   9.732   2.953   0.819  0.2928 -0.0419 -0.4037
23522W        W42376   6.689  17.297  16.029  0.1790 -0.0220 -0.3018
23523W        W42377   4.214  14.108   0.773 -0.0542 -0.1228 -0.0245
23524W        W42378   6.384   4.920   4.364 -0.2534  0.1695  0.0825
23525W        W42379   9.410   9.723   0.222  0.2570  0.0346  0.4551
23526W        W42380  17.274   7.994  11.872 -0.2215  0.1515 -0.0848
23527W        W42381  13.601   7.832  17.464  0.0997  0.0856  0.2414
23528W        W42382   6.620  13.930  12.919 -0.1323  0.0484 -0.1585
23529W        W42383  14.621   6.642  15.976  0.0536 -0.2365  0.1415
23530W        W42384  14.829   7.298   2.179 -0.2196 -0.0936 -0.2249
23531W        W42385   5.665  16.694   4.436  0.2105 -0.0473  0.1438
23532W        W42386  10.822  14.109  15.069 -0.0765  0.1129  0.1353
23533W        W42387  17.226  14.953   0.629 -0.1503 -0.1083  0.2791
23534W        W42388   9.362   8.849  12.980 -0.0778 -0.0967 -0.0627
23535W        W42389  10.541   6.812   0.019 -0.1098  0.0522  0.1449
23536W        W42390   9.264   0.441   5.159 -0.0529  0.1003  0.1191
23537W        W42391  10.666  16.685  16.777 -0.1527  0.1429  0.1998
23538W        W42392  16.321   8.585   5.081  0.1517 -0.2332  0.0374
23539W        W42393   6.215   0.419   2.333  0.0094  0.1521  0.0211
23540W        W42394   0.547  14.265  14.658  0.2236  0.2153  0.1648
23541W        W42395  12.588  13.575  15.157 -0.3621 -0.1492 -0.1491
23542W        W42396   7.456   7.727   5.218  0.4095 -0.3211 -0.1667
23543W        W42397  14.717   7.775   2.143 -0.2719 -0.0291  0.1076
23544W        W42398   2.526  13.990  16.602 -0.2340  0.0567  0.0738
23545W        W42399   1.045   0.081  14.161 -0.2377  0.3083 -0.1574
23546W        W42400   8.743   7.817  13.001 -0.1966  0.3920 -0.0619
23547W        W42401   3.434  12.229  13.732  0.2375  0.0506  0.2796
23548W        W42402   3.209   3.794  16.559 -0.1950 -0.1343  0.0895
23549W        W42403   8.813  14.489   2.970  0.0160  0.0338 -0.0225
23550W        W42404  16.090   2.022  15.160 -0.0852 -0.1085 -0.1278
23551W        W42405  16.020  16.044  12.458 -0.1170 -0.0536  0.0049
23552W        W42406   6.340  10.417   4.565 -0.1061  0.1127 -0.2179
23553W        W42407  16.711   4.356   0.397 -0.2455 -0.0177 -0.0963
23554W        W42408  11.094   1.768   1.463  0.1277  0.0152  0.1291
23555W        W42409  10.334   0.034  13.351 -0.3201 -0.0014 -0.0604
23556W        W42410   2.317  12.675  12.117  0.1495  0.0654  0.0302
23557W        W42411   3.881   3.263   1.520 -0.1978  0.0162 -0.0320
23558W        W42412   9.675  15.802  15.956 -0.1860 -0.1835 -0.0704
23559W        W42413   6.212  15.543  16.256 -0.1361  0.1717 -0.0232
23560W        W42414   6.410   2.260   3.790 -0.0252 -0.0090 -0.1201
23561W        W42415  11.569  15.211   0.442  0.0607  0.2551 -0.4153
23562W        W42416   1.906   2.029  13.435 -0.3348  0.5048 -0.1512
23563W        W42417   9.092  14.107   0.763 -0.0144 -0.0329 -0.1847
23564W        W42418   2.163  11.868   1.893  0.2110  0.0640  0.2370
23565W        W42419   1.647  15.167   3.578 -0.0062 -0.1105 -0.1458
23566W        W42420  15.960  12.492   2.622 -0.0885  0.1249 -0.1837
23567W        W42421   4.799  12.791   3.417 -0.2961 -0.0271  0.2729
23568W        W42422  17.335  16.932   5.351 -0.1282 -0.2703 -0.2698
23569W        W42423  15.592  16.768  15.401 -0.4654 -0.1449 -0.1819
23570W        W42424   9.158  14.720  13.221 -0.0708 -0.0001 -0.3370
23571W        W42425   4.875   4.727   1.914  0.0306  0.0448 -0.0506
23572W        W42426   6.931  14.025   3.052 -0.0264 -0.0611  0.0640
23573W        W42427   3.264  16.714   1.839  0.2866 -0.1654 -0.2281
23574W        W42428   5.310  14.980   6.012  0.0177  0.0011 -0.0410
23575W        W42429   7.245   3.655   2.346  0.2656  0.1618 -0.0734
23576W        W42430  17.288   1.226  13.468 -0.2505 -0.0739  0.1522
23577W        W42431   2.876   5.277  16.150 -0.1823  0.1914 -0.2458
23578W        W42432   4.168   4.694   4.230 -0.1021 -0.1194  0.0720
23579W        W42433  10.716   3.430   4.392  0.0125  0.0594 -0.0176
23580W        W42434  15.478   9.367   1.432  0.0420  0.0997  0.0153
23581W        W42435   5.061   6.166   2.694 -0.0599  0.0703  0.0803
23582W        W42436  15.065   4.986  16.814  0.0942 -0.2546  0.1688
23583W        W42437   5.366   0.384   0.891 -0.0621 -0.3102 -0.1143
23584W        W42438  15.800   9.025   1.253 -0.2793 -0.0678 -0.2944
23585W        W42439  15.459   0.263   4.679  0.0009  0.1338  0.2791
23586W        W42440  14.665   3.155   2.361 -0.3098  0.1724  0.0653
23587W        W42441  15.538  15.881   2.376  0.0496  0.2002  0.0586
23588W        W42442   4.709   7.005  17.441 -0.0007 -0.4605  0.0479
23589W        W42443   1.411   3.757  14.479  0.0341 -0.0831  0.0596
23590W        W42444   2.326  12.899   3.253 -0.1465  0.0227 -0.3168
23591W        W42445  10.065   5.968  14.561 -0.1022 -0.2954 -0.1496
23592W        W42446  15.378  17.222   5.795  0.2147 -0.1917 -0.0440
23593W        W42447   3.930   4.503   0.897  0.0875  0.1415  0.0564
23594W        W42448  16.997  15.981   2.019  0.0495  0.0908  0.0601
23595W        W42449  11.304   4.136   0.954 -0.0353 -0.0435  0.1260
23596W        W42450   9.405   2.228  15.330  0.5238  0.2145  0.0802
23597W        W42451   3.841   6.743   1.167 -0.2917  0.2824  0.1206
23598W        W42452  10.027  10.947   2.814  0.1291 -0.0092  0.0470
23599W        W42453  10.348   6.800  15.393  0.0517  0.1290  0.0997
23600W        W42454  14.950   6.760   5.334 -0.0198 -0.2581  0.3027
23601W        W42455   0.565   8.075  14.570 -0.1176  0.0642 -0.0564
23602W        W42456  16.947  13.108  16.560  0.1622  0.0099  0.0916
23603W        W42457   5.374   2.412  16.742 -0.1040  0.2750  0.3538
23604W        W42458   1.806  16.603   0.712  0.2492  0.2324 -0.2512
23605W        W42459   5.203  15.805   0.722 -0.0985 -0.0999  0.0698
23606W        W42460   3.706   6.059   0.464 -0.0635  0.3634  0.0908
23607W        W42461  15.577  12.736   2.279 -0.1189  0.0210  0.3190
23608W        W42462  10.475   0.460  14.894 -0.0746 -0.0159 -0.2690
23609W        W42463  16.874   9.342   0.398 -0.2436  0.0458  0.2068
23610W        W42464   5.391   0.644   5.940 -0.1986  0.0447 -0.0620
23611W        W42465   4.655  10.435   1.713  0.1558  0.4139 -0.2109
23612W        W42466   4.033  14.087   1.844 -0.2273  0.0853  0.2350
23613W        W42467   4.597   4.501   2.374  0.3846  0.2232 -0.0297
23614W        W42468   6.363  14.677  17.158 -0.0935  0.0097 -0.0844
23615W        W42469   8.081   5.036   2.491 -0.1026 -0.1411 -0.1024
23616W        W42470   8.430   6.936  14.694 -0.2955 -0.3112  0.0311
23617W        W42471  10.417  12.323  17.214 -0.0111  0.1455  0.0352
23618W        W42472   1.265   1.783  17.409  0.0328  0.1311 -0.1100
23619W        W42473  13.075  12.546  14.152 -0.1215  0.0818  0.0878
23620W        W42474   6.252  13.011  14.485 -0.1621  0.0790  0.0480
23621W        W42475  14.395   6.108   2.605 -0.1318 -0.2557 -0.1526
23622W        W42476  15.815  10.222  15.607 -0.1481 -0.0313  0.1264
23623W        W42477   3.246   6.873  14.106  0.1764  0.0117  0.0486
23624W        W42478  14.952  15.503  15.497 -0.0884 -0.2308  0.2680
23625W        W42479  13.521   0.670   3.581 -0.1246  0.1762  0.0410
23626W        W42480   7.235  14.447  13.966  0.0209 -0.0981 -0.0578
23627W        W42481  13.833  12.725   0.197  0.2955 -0.1119 -0.1072
23628W        W42482  11.226   6.493  16.494 -0.0049  0.2005 -0.2519
23629W        W42483   0.074  12.745  16.377 -0.0826  0.1715 -0.1179
23630W        W42484   9.733  15.667  16.503  0.0922 -0.2751  0.1043
23631W        W42485  11.685  15.134  13.669 -0.0081  0.3193  0.3232
23632W        W42486   3.475  13.370  15.799  0.2062  0.1549 -0.3202
23633W        W42487   1.659   3.507  14.825  0.4022  0.1622 -0.0863
23634W        W42488   9.444  13.203   1.217 -0.0859 -0.2238 -0.2818
23635W        W42489   5.166  15.421  13.742  0.1980  0.2051  0.0180
23636W        W42490   7.853  13.644  17.449  0.1520  0.1603 -0.0183
23637W        W42491   5.666   7.561  14.244  0.1872 -0.0178 -0.2329
23638W        W42492   0.413  11.272   1.986 -0.0648  0.0971 -0.3353
23639W        W42493  16.819   5.611  16.511 -0.2396  0.0241 -0.1082
23640W        W42494   0.455   2.539  14.561 -0.0399  0.2436 -0.0046
23641W        W42495   8.650  16.413  12.353 -0.2158  0.1782  0.5644
23642W        W42496  11.494   0.263  15.267 -0.0337  0.1187  0.1490
23643W        W42497   5.802  15.031   1.931 -0.0533  0.0402  0.4993
23644W        W42498   0.103   7.390   5.113 -0.0472  0.2652 -0.1093
23645W        W42499   6.014   9.403   0.564 -0.4601  0.3598  0.2553
23646W        W42500  13.388   8.271  14.269  0.0527  0.1641 -0.0608
23647W        W42501   4.141   1.034   1.648  0.0743  0.1893  0.1625
23648W        W42502   6.515   4.166  17.170 -0.4267 -0.2944  0.0018
23649W        W42503   5.389   6.063   0.294 -0.0426 -0.1128  0.3902
23650W        W42504   3.679   7.764   0.670 -0.2148  0.1558  0.2443
23651W        W42505   4.348   3.626  15.810 -0.1739  0.2356  0.1913
23652W        W42506  13.572   7.820   5.303  0.3086 -0.0680 -0.3038
23653W        W42507  12.465   4.961  16.977  0.0592 -0.0595 -0.0812
23654W        W42508   0.613   3.122   1.991 -0.2907 -0.0220 -0.0512
23655W        W42509  15.633  16.809   2.583 -0.1215  0.0254  0.1673
23656W        W42510  13.932  16.690  12.348  0.1321  0.0009  0.0799
23657W        W42511   1.231   2.332  15.251 -0.0235  0.0612 -0.0238
23658W        W42512  16.502   4.361   4.676 -0.0327  0.1641  0.0031
23659W        W42513  13.702   6.285  16.301  0.2431  0.5053 -0.4384
23660W        W42514   7.418  13.549  14.234 -0.0383 -0.0681  0.0594
23661W        W42515  12.648  12.790  13.423 -0.1764 -0.1063  0.1552
23662W        W42516  11.338   9.654  12.821 -0.0666  0.0595  0.1696
23663W        W42517  13.931   8.577   3.777  0.1797  0.0555  0.1702
23664W        W42518   3.458   2.463   5.986 -0.2684 -0.0585  0.2403
23665W        W42519  11.032   5.159   0.777 -0.2910  0.1205  0.0284
23666W        W42520   0.877   7.655   3.215 -0.2005  0.0648  0.2485
23667W        W42521   1.141   6.951   0.841 -0.0689  0.1002  0.1343
23668W        W42522  16.372   3.673   1.988 -0.2425 -0.3705  0.1966
23669W        W42523   7.513   2.497   3.539 -0.3220  0.1350 -0.0486
23670W        W42524  11.442   6.680  16.007  0.0089  0.2131  0.1633
23671W        W42525  15.773   6.557   5.442  0.4059 -0.0711  0.1674
23672W        W42526   7.643   6.474  15.119  0.0625  0.0381  0.0349
23673W        W42527  17.281   8.657   1.556  0.3840  0.1346 -0.0921
23674W        W42528  14.177  10.128   5.341  0.4033 -0.1314 -0.1977
23675W        W42529   3.445   1.524   0.433 -0.2769  0.0993 -0.2684
23676W        W42530   0.621   6.649  12.429 -0.0084  0.0597  0.0472
23677W        W42531   0.469  13.719   1.026 -0.1204 -0.0579 -0.1975
23678W        W42532   7.938  11.621  11.014  0.2371 -0.0956 -0.3973
23679W        W42533   6.627   1.391   1.722 -0.2715  0.0224  0.1073
23680W        W42534  14.977   6.186   3.471 -0.1996  0.0191 -0.0696
23681W        W42535   5.425   3.071  17.367  0.0142 -0.2064 -0.1433
23682W        W42536   3.728   8.422   1.892 -0.1592  0.1361 -0.0572
23683W        W42537   7.966   6.209  17.339 -0.1905 -0.1598 -0.1354
23684W        W42538  13.920  11.751  12.744 -0.2855  0.1509 -0.0408
23685W        W42539   7.445   9.109   5.739  0.0443 -0.0894 -0.1437
23686W        W42540   6.674   3.185   4.281 -0.0259 -0.2589  0.1411
23687W        W42541  14.873  14.344  17.087  0.1440 -0.2251 -0.0285
23688W        W42542   4.164  14.052  17.414 -0.0669  0.2885  0.0874
23689W        W42543   4.488   7.638  12.545 -0.1973 -0.0672  0.0603
23690W        W42544  12.980   1.470  14.629 -0.1468  0.2169 -0.2202
23691W        W42545  14.891  15.240   0.222  0.1361  0.1713 -0.2896
23692W        W42546  10.374   6.060  13.227 -0.2724 -0.0347 -0.0765
23693W        W42547   7.150  11.191   4.382  0.2418  0.0131 -0.0694
23694W        W42548   8.718  15.954   5.045  0.1743  0.0339  0.0545
23695W        W42549   4.025   8.938  12.626 -0.0639 -0.0745 -0.1439
23696W        W42550   9.033   5.275   3.757 -0.0999 -0.2649 -0.1961
23697W        W42551   2.287   6.777   0.570  0.0230  0.0273 -0.0248
23698W        W42552   5.746   6.632   4.374 -0.2422 -0.2187  0.1206
23699W        W42553  11.852   3.840   2.240  0.0541  0.3295 -0.2077
23700W        W42554   3.079  10.202   5.228  0.0752  0.0858 -0.1793
23701W        W42555  16.533   6.955  14.729  0.0598  0.2772  0.2036
23702W        W42556   2.297  16.182   1.532  0.2823  0.0499 -0.0796
23703W        W42557  10.510   4.664   2.341 -0.1745 -0.1244 -0.2536
23704W        W42558   0.761  13.521  14.314  0.0562 -0.3351 -0.1771
23705W        W42559   6.656   6.785  16.277 -0.1898  0.1371 -0.3492
23706W        W42560  10.908   3.257  15.170  0.1807  0.3246 -0.2886
23707W        W42561   2.680   2.179  16.668  0.1542  0.0782  0.0064
23708W        W42562  13.979   3.556  13.103 -0.2393 -0.2259  0.1299
23709W        W42563  12.216   6.894   4.031  0.0072  0.0695  0.3732
23710W        W42564   6.845   6.157   0.159  0.1045  0.0206 -0.2391
23711W        W42565  11.344   5.502   5.144  0.0531 -0.1772  0.2143
23712W        W42566  13.884   2.536   6.163 -0.0306  0.1006  0.4362
23713W        W42567  12.103  15.056   1.702 -0.1513  0.2410 -0.2298
23714W        W42568   2.456  14.292   0.066  0.3319 -0.0064  0.1414
23715W        W42569   1.675   2.262  14.237  0.1120  0.3094  0.3383
23716W        W42570   6.172  10.851   3.712 -0.1236 -0.2634  0.0499
23717W        W42571   2.406   9.102  16.879  0.2290 -0.0251 -0.0724
23718W        W42572   3.165   4.684   0.422  0.0742  0.0216 -0.0095
23719W        W42573   2.213   3.401  14.838  0.1508 -0.2117 -0.1114
23720W        W42574  11.693  10.337   4.549  0.1040 -0.1356 -0.3550
23721W        W42575   3.250   3.675   2.994  0.1288  0.0892 -0.0330
23722W        W42576   5.160  11.074   3.280  0.1807 -0.0057  0.0732
23723W        W42577   5.939  10.556   2.306 -0.2086 -0.1094  0.2035
23724W        W42578  14.289  12.785   2.615  0.0180  0.0190 -0.3084
23725W        W42579   7.994   7.693   0.913 -0.1243 -0.1195  0.0085
23726W        W42580  10.288   0.097   4.816  0.0188 -0.1254  0.1593
23727W        W42581  10.667  11.975  12.910  0.3265  0.3004 -0.0569
23728W        W42582  10.100  15.940  14.345  0.0800 -0.0875 -0.0696
23729W        W42583  16.590   5.905  14.433  0.0747  0.2233 -0.1610
23730W        W42584   1.895  16.683   1.677 -0.1924 -0.1125  0.0704
23731W        W42585   7.530  11.786  13.758 -0.0277 -0.3285  0.2522
23732W        W42586  11.064   8.294  15.107 -0.0372  0.0006 -0.1554
23733W        W42587  11.776  15.290  12.057 -0.1909 -0.1090  0.0203
23734W        W42588  10.571  14.252  15.444 -0.1249 -0.3337  0.0062
23735W        W42589   6.821  10.729  13.243  0.1762  0.0567 -0.0384
23736W        W42590   4.699   2.402   5.498  0.2655  0.0949  0.0275
23737W        W42591   4.253  13.550  16.361  0.0514 -0.2566 -0.0717
23738W        W42592   1.810   2.158  16.956 -0.0005 -0.1155  0.0706
23739W        W42593   4.305   6.671   0.826 -0.0206 -0.0319  0.5107
23740W        W42594   9.504  15.916  15.012 -0.0940 -0.1658 -0.1847
23741W        W42595   3.206   3.557   4.649 -0.0058  0.1152 -0.1345
23742W        W42596  11.661   2.433   1.025  0.1873 -0.0145 -0.0485
23743W        W42597  14.092   9.959  12.336 -0.0510 -0.2850 -0.3121
23744W        W42598   9.092   8.578   4.352  0.1633  0.3166  0.0611
23745W        W42599  13.992   8.084   0.278 -0.0864 -0.1460  0.0574
23746W        W42600   3.529   9.924   0.158  0.2394  0.0943  0.1366
23747W        W42601  15.600  15.817   4.812 -0.0028  0.0835  0.1056
23748W        W42602  15.789  13.726  13.776  0.1030 -0.4674 -0.1302
23749W        W42603   8.313   4.196   5.119 -0.1552  0.1014  0.0095
23750W        W42604  12.859  10.968   1.936  0.5059 -0.1407 -0.1893
23751W        W42605  13.484  10.152   4.487  0.0599  0.2143  0.2732
23752W        W42606   2.260  10.465  16.186  0.2528 -0.1584  0.0614
23753W        W42607  13.698   6.367   0.424  0.0527  0.0141  0.0893
23754W        W42608   0.857   2.200   5.472 -0.0181 -0.1665 -0.3532
23755W        W42609   9.400   3.775  16.932  0.0189  0.1327  0.0551
23756W        W42610  15.314   4.841  12.255  0.3086  0.0507  0.2587
23757W        W42611  12.845  15.426   3.763  0.1128  0.2967 -0.1870
23758W        W42612   8.081   6.470   4.730  0.1695 -0.1514 -0.0541
23759W        W42613  14.426  12.124  17.334 -0.1623 -0.1277  0.1022
23760W        W42614   0.064  17.138   1.066  0.0211  0.1334  0.2375
23761W        W42615  16.575   2.294   5.201  0.1940  0.2287  0.1569
23762W        W42616   4.180  16.662   4.342 -0.0125  0.0761  0.0675
23763W        W42617  10.244   4.155   1.051 -0.1051 -0.3209  0.1044
23764W        W42618  14.520   3.615   2.865 -0.0754 -0.3638 -0.1010
23765W        W42619  11.364   6.225   0.786  0.1053 -0.3759 -0.1711
23766W        W42620  14.738   0.266   2.033 -0.0031  0.1874  0.3861
23767W        W42621   1.288   4.173  13.536  0.0660  0.1457  0.0373
23768W        W42622  14.914  16.400   0.803 -0.3453 -0.1739 -0.1259
23769W        W42623   2.974   2.389  14.755  0.2322  0.2333  0.2038
23770W        W42624  11.732   1.781  12.907  0.1865 -0.0961  0.0510
23771W        W42625  10.086   6.852   1.986 -0.1413  0.1583 -0.1785
23772W        W42626  16.276   6.729  17.059  0.0603 -0.1770  0.1553
23773W        W42627  10.805  16.391  14.038 -0.0439 -0.2070 -0.0550
23774W        W42628   6.311   3.065  12.397 -0.3334 -0.0461  0.0921
23775W        W42629   7.306  11.289   3.923 -0.0447  0.1751 -0.1619
23776W        W42630   2.992   6.704  15.515 -0.0210 -0.0712 -0.2962
23777W        W42631   6.436  11.685   1.854  0.0195 -0.3876 -0.1974
23778W        W42632  12.325  12.082   0.344  0.0951  0.1248 -0.1564
23779W        W42633   4.568   3.153  15.708  0.0419 -0.2555  0.1532
23780W        W42634  10.805   6.495   4.600 -0.2027  0.0931 -0.1150
23781W        W42635   2.862  12.958  12.700  0.0210 -0.2179  0.3256
23782W        W42636  16.771  13.218   3.969 -0.1496 -0.0962  0.1717
23783W        W42637   2.542  14.046  15.011  0.1105  0.3837  0.2908
23784W        W42638  15.280  12.560   5.063  0.2507  0.3096 -0.0926
23785W        W42639   9.014  14.894  14.935 -0.1467  0.0312 -0.1890
23786W        W42640  17.112   5.118  16.558 -0.2432  0.1190 -0.2425
23787W        W42641   9.749   9.880  15.791 -0.2995 -0.0231  0.0132
23788W        W42642   2.656  11.567   3.595  0.0245 -0.3628  0.1754
23789W        W42643   6.677  16.548  16.194  0.0924  0.4074 -0.1902
23790W        W42644   9.623  11.543   5.307 -0.0383 -0.0129  0.0578
23791W        W42645   6.613  15.703  13.265  0.1929 -0.0646  0.2540
23792W        W42646  14.296   0.289   3.467 -0.0090 -0.0979 -0.2825
23793W        W42647  12.709  13.544   0.264 -0.1605 -0.1179 -0.2465
23794W        W42648   5.045   5.007  15.118  0.0033 -0.0209 -0.1051
23795W        W42649   7.435  14.398  16.872  0.3166 -0.3190  0.2502
23796W        W42650  15.500   4.514  16.231  0.1205  0.2858 -0.1139
23797W        W42651  17.113  14.960  12.421 -0.1926 -0.1678 -0.1212
23798W        W42652  12.889   8.473   0.162 -0.2591  0.0047 -0.1707
23799W        W42653  16.796   1.160   2.038 -0.0843 -0.2091 -0.0184
23800W        W42654   0.233   7.116  16.562  0.1601  0.3422  0.1260
23801W        W42655  11.169   4.017   1.447 -0.0808  0.0962  0.2068
23802W        W42656   8.538  10.757  15.698  0.0795 -0.0350 -0.0992
23803W        W42657   3.870  10.981   3.948 -0.3614  0.1840 -0.1898
23804W        W42658   5.464  10.172  16.985  0.0375  0.0494  0.2392
23805W        W42659  14.900   7.096  15.802  0.2155  0.3467  0.0135
23806W        W42660  12.571   5.906   4.670  0.3376  0.3731  0.0963
23807W        W42661   4.440  16.552   3.085 -0.5239  0.2371  0.1401
23808W        W42662  14.028  16.902   4.964 -0.0327 -0.2024 -0.3123
23809W        W42663  11.118   4.685   1.726 -0.0844 -0.0205  0.2318
23810W        W42664   9.375   0.985  13.358 -0.2055 -0.1587 -0.2952
23811W        W42665  14.508  16.216   0.029  0.0304  0.0979 -0.1102
23812W        W42666   2.602   0.201  15.048 -0.0660  0.2908  0.1897
23813W        W42667  16.710   7.642  17.294 -0.1371  0.1978 -0.2215
23814W        W42668   0.358   4.473   0.268 -0.0435 -0.2861 -0.1291
23815W        W42669   2.605  16.493   3.438 -0.0932 -0.3815  0.1158
23816W        W42670   2.993  10.623   2.839 -0.1458 -0.0134  0.0509
23817W        W42671  10.100   5.913   2.320  0.0933  0.0041 -0.1593
23818W        W42672   1.384  17.121  15.225 -0.1927  0.1823 -0.4005
23819W        W42673   6.324  17.206  15.029  0.0366 -0.1363 -0.1095
23820W        W42674  16.646   6.548   1.114  0.1154  0.4455  0.0303
23821W        W42675  11.485  15.857  13.745 -0.1892  0.0680  0.0396
23822W        W42676   6.914  16.611  12.397  0.1250 -0.0108  0.0586
23823W        W42677  12.591   2.316   3.220  0.2343  0.0302 -0.0045
23824W        W42678  13.977   6.067  13.559  0.0827  0.0793 -0.1470
23825W        W42679   9.283   0.365   5.653  0.0544  0.1676  0.0348
23826W        W42680   3.043   5.906   1.017 -0.2639  0.1332 -0.0782
23827W        W42681  13.998   9.708  15.104 -0.1946  0.2553  0.0156
23828W        W42682   3.065   9.848   5.609  0.0296 -0.1013 -0.0789
23829W        W42683   3.364   1.416  14.981  0.2271 -0.0458 -0.0456
23830W        W42684  14.909  12.407   1.599 -0.2729  0.2635 -0.1540
23831W        W42685   5.663  14.199  16.446 -0.0534 -0.1525  0.1947
23832W        W42686  10.483   7.006   3.632  0.0877 -0.2029  0.1195
23833W        W42687  15.435  14.947   0.630  0.0497  0.1094 -0.0552
23834W        W42688   6.657  16.423   4.730  0.0866  0.0209 -0.0372
23835W        W42689   2.496   3.219  16.938 -0.0914 -0.2328  0.1274
23836W        W42690   5.092   9.761   2.276  0.1184  0.1249 -0.0450
23837W        W42691   2.685   4.398   1.263  0.0012 -0.2831  0.1477
23838W        W42692  11.343   1.669   5.056 -0.1236  0.0227  0.0506
23839W        W42693   4.336   8.949   2.445  0.1248 -0.0044  0.2967
23840W        W42694   5.178  11.536  17.386 -0.0751 -0.1774 -0.1266
23841W        W42695  12.117   5.818   4.926 -0.3885 -0.0444 -0.1229
23842W        W42696   4.602  13.988   1.070 -0.4048 -0.0778 -0.1518
23843W        W42697   2.958   0.886  17.287  0.1484 -0.0823 -0.0778
23844W        W42698   1.882  12.917   0.307  0.0809  0.2813 -0.0825
23845W        W42699   5.113   2.403   4.348  0.0541  0.0815 -0.0695
23846W        W42700  12.145   3.876  17.033  0.1112  0.0476 -0.1668
23847W        W42701   8.074   3.130  17.342  0.3610 -0.1406 -0.0995
23848W        W42702   2.020  15.629  12.619 -0.1656  0.3037 -0.1263
23849W        W42703   2.672   5.175  12.808 -0.4301  0.0043  0.0410
23850W        W42704  15.497   2.931  17.272 -0.3564 -0.2531 -0.3897
23851W        W42705  12.044  15.008  12.754 -0.0599 -0.0115  0.1536
23852W        W42706   9.155   5.791   3.374 -0.1638 -0.1622 -0.0856
23853W        W42707   4.533  14.502   1.070  0.2174  0.0919 -0.0725
23854W        W42708  12.049   7.279   4.526 -0.1286 -0.0118 -0.0230
23855W        W42709  12.391  12.950   0.577  0.1026 -0.0347 -0.1237
23856W        W42710   0.935   8.342   1.183 -0.4778  0.0914 -0.2557
23857W        W42711  10.009   7.874   4.897  0.1039 -0.1267  0.0488
23858W        W42712   9.454   3.406   0.652 -0.2455  0.3454  0.0083
23859W        W42713   6.191   4.238  14.631  0.2217  0.4318 -0.0803
23860W        W42714  16.663   5.066  15.039 -0.2232  0.0308  0.0432
23861W        W42715   9.941   2.103   2.098  0.3225 -0.0684  0.0024
23862W        W42716  10.244   5.157   4.215  0.1576  0.3027 -0.0846
23863W        W42717  13.105   5.706  12.878 -0.0542 -0.5404  0.0533
23864W        W42718  15.930   4.361   2.203 -0.0479 -0.4194 -0.1051
23865W        W42719   8.494   0.154   0.375 -0.1302 -0.0060  0.0213
23866W        W42720   9.458  11.240  15.313  0.0441 -0.1443 -0.2671
23867W        W42721   5.583   5.043   2.393  0.0400 -0.1313  0.2519
23868W        W42722  10.495   2.701  15.680 -0.0654 -0.2565  0.0392
23869W        W42723   1.549   6.417   1.309 -0.4241  0.0255  0.0841
23870W        W42724  11.559   0.917  12.379  0.0538 -0.3566  0.3368
23871W        W42725   5.276  11.815   2.896 -0.2176 -0.1433 -0.2727
23872W        W42726   7.015   5.481  14.537  0.2591 -0.1993 -0.0017
23873W        W42727   8.767   7.961  13.877  0.0606  0.0489 -0.0086
23874W        W42728   5.729  16.419   4.853 -0.0366  0.0213 -0.1314
23875W        W42729  12.558   4.574   3.940  0.1190  0.1195  0.0180
23876W        W42730  17.317   5.696  15.748  0.1970 -0.1317 -0.1573
23877W        W42731   6.492  10.647  14.598  0.1828  0.1468  0.0693
23878W        W42732   7.156  15.409   1.870 -0.1141 -0.0434  0.0508
23879W        W42733   6.437  13.232   2.957  0.1741  0.1126 -0.1020
23880W        W42734   5.949  13.971   0.024 -0.2759  0.1043 -0.1789
23881W        W42735  13.579   2.278   2.633 -0.1148  0.1545 -0.0525
23882W        W42736   7.330   0.995  17.016 -0.0825  0.0866 -0.0941
23883W        W42737   6.955  16.530   2.304 -0.1078  0.0823 -0.3700
23884W        W42738   3.315   4.993   3.275  0.0107  0.1577 -0.0318
23885W        W42739  17.113  13.681  13.771 -0.2152  0.1117 -0.1271
23886W        W42740  10.002  11.194  16.082 -0.0075 -0.1429 -0.3694
23887W        W42741  13.494   0.861  15.223 -0.1563  0.1674 -0.0452
23888W        W42742  11.419  13.927   2.921 -0.2104  0.2483 -0.4410
23889W        W42743   2.324  11.821   4.387  0.0159  0.3492  0.0183
23890W        W42744  14.882  16.342   1.281 -0.0670 -0.4890 -0.3081
23891W        W42745  11.697   5.921  13.187 -0.0926  0.0323  0.1634
23892W        W42746   2.428  12.731  12.618  0.0348  0.2011  0.0318
23893W        W42747  16.771  17.178   4.052  0.0934  0.0579 -0.1967
23894W        W42748  14.833   0.489  16.784  0.0894  0.0901 -0.0486
23895W        W42749  12.861  14.908   0.303  0.2327 -0.2768 -0.2493
23896W        W42750  10.395   7.680  15.846 -0.1420 -0.0165  0.2037
23897W        W42751  12.928  14.052   2.090  0.0971  0.1089 -0.2808
23898W        W42752   5.247   1.472   0.550  0.1618 -0.2351 -0.0829
23899W        W42753   0.401   1.261  13.383  0.0438  0.2718 -0.1935
23900W        W42754   0.729   1.669  14.918  0.2740 -0.0326 -0.2001
23901W        W42755   5.383   2.784   4.317  0.2336  0.1732  0.1754
23902W        W42756   1.561   4.863   0.469 -0.1755  0.1905 -0.0075
23903W        W42757  16.865   4.782  15.492  0.1396  0.1629  0.1978
23904W        W42758   1.099  13.227   0.168  0.2150  0.1215 -0.0191
23905W        W42759  11.527  17.198   5.346 -0.0846  0.1657 -0.0236
23906W        W42760   0.604   8.171   5.627 -0.1497  0.1558  0.0574
23907W        W42761  11.004   2.102   5.086 -0.1982  0.3375  0.3196
23908W        W42762   7.317  12.755   5.338 -0.0167 -0.0035 -0.1238
23909W        W42763   1.681   0.028   5.006  0.0133 -0.1068 -0.0606
23910W        W42764  14.485   5.451   1.468 -0.0100  0.1081  0.2303
23911W        W42765  16.762   7.252  12.902  0.0277  0.0492  0.1336
23912W        W42766   3.063  16.599   1.389 -0.0220 -0.0053  0.2118
23913W        W42767   5.459   4.787   4.477 -0.3411  0.1162 -0.1381
23914W        W42768  13.935   5.290   0.217  0.1299 -0.1214  0.3301
23915W        W42769  12.078  12.495   2.477  0.2697  0.0608 -0.0491
23916W        W42770   9.842  13.166  12.930  0.0740 -0.0245  0.0135
23917W        W42771   9.485   2.440   3.250 -0.0392  0.2056  0.2587
23918W        W42772   7.514   7.419   0.122 -0.1486  0.1917 -0.3381
23919W        W42773  15.924  10.314   1.956  0.1568 -0.1138  0.1173
23920W        W42774   6.042  10.897   0.954  0.0915 -0.1240 -0.2152
23921W        W42775  11.768   4.389   0.681  0.1733  0.1112 -0.0816
23922W        W42776  13.962  13.165   0.427 -0.0921 -0.0498  0.0055
23923W        W42777   4.858  10.928  16.147  0.1656 -0.0504  0.0384
23924W        W42778   2.017  10.414   0.985  0.4359 -0.1253 -0.2521
23925W        W42779   5.299   3.014  14.399 -0.1064 -0.0230 -0.3332
23926W        W42780  14.941   6.356  17.333 -0.0095  0.0515  0.0919
23927W        W42781   2.232   9.882   4.808 -0.2949 -0.0263  0.2300
23928W        W42782   8.270   2.708   4.913  0.0310 -0.1997 -0.1404
23929W        W42783   4.356  17.287   2.607 -0.1611  0.0516  0.1085
23930W        W42784  10.417  15.088  13.387 -0.2116  0.0390 -0.2696
23931W        W42785   8.961   9.257  14.081 -0.0485 -0.0918  0.1683
23932W        W42786   6.690   4.174   2.611  0.0529 -0.1108  0.0976
23933W        W42787  14.646  13.016  15.753 -0.3269  0.1037  0.2184
23934W        W42788  16.465   2.117  13.520 -0.0807 -0.0699  0.1516
23935W        W42789   7.028   6.563  16.757  0.0614 -0.0805 -0.0417
23936W        W42790   1.501   1.851  13.662 -0.0723  0.1489  0.2142
23937W        W42791  16.008   2.257   4.643  0.1112 -0.4174 -0.0020
23938W        W42792   2.643  12.640   4.686  0.2964  0.3738  0.0615
23939W        W42793  10.199   5.443  12.547  0.1996  0.0777  0.0561
23940W        W42794  10.221   4.055   4.861  0.0706  0.2501  0.2194
23941W        W42795   5.251  12.608   0.820 -0.0225 -0.0439 -0.1735
23942W        W42796   9.321   9.154   3.451 -0.0961  0.0339  0.0915
23943W        W42797  14.525  10.268   1.604 -0.1981 -0.1215  0.1900
23944W        W42798   1.901  16.130   1.852 -0.2631 -0.1737  0.0783
23945W        W42799  11.632   7.311  13.362  0.2284  0.0577 -0.4509
23946W        W42800  11.521  10.102   3.850  0.2875  0.0400 -0.2556
23947W        W42801  12.949   6.791  13.530  0.3650 -0.1301  0.0814
23948W        W42802   2.093   3.166  12.698 -0.0361 -0.0501 -0.4025
23949W        W42803   8.647  16.763  14.464  0.0762 -0.2492  0.2955
23950W        W42804  11.708   6.610  16.486  0.1417  0.0761 -0.0664
23951W        W42805   0.107   3.383   3.443 -0.4605 -0.0222  0.0940
23952W        W42806   3.143   6.990   0.199  0.0615  0.3339  0.0303
23953W        W42807  12.610   5.702  13.162 -0.0510  0.0255  0.0164
23954W        W42808   1.394   7.723   2.390  0.1623 -0.1866 -0.0608
23955W        W42809  14.581  12.253  13.899 -0.2449  0.0000  0.1136
23956W        W42810   0.471  16.125  15.906  0.3549  0.0950  0.1762
23957W        W42811  17.241   6.984  15.253  0.0276  0.3844 -0.0665
23958W        W42812   4.989   4.128  15.527  0.0201  0.0095 -0.1741
23959W        W42813  16.193  10.530   1.145 -0.1492 -0.1665 -0.0910
23960W        W42814  16.958   8.365  16.637 -0.1595  0.0883  0.2011
23961W        W42815   1.917   6.003   4.750 -0.2607 -0.1009  0.0453
23962W        W42816   7.725  10.325  13.017  0.1732 -0.1975 -0.2394
23963W        W42817   0.256  10.301   5.186 -0.0046 -0.0542 -0.0967
23964W        W42818  15.403   2.039  17.222 -0.4142  0.1395  0.2172
23965W        W42819  13.113   6.285  15.329 -0.0489 -0.0894  0.2759
23966W        W42820   7.386   1.505  15.396 -0.0199 -0.0402 -0.4044
23967W        W42821  15.939   9.418   4.409 -0.1274  0.2403  0.3513
23968W        W42822   6.619  15.609   0.426  0.0011  0.0615 -0.1104
23969W        W42823   8.256   4.232   4.604 -0.0158 -0.0451 -0.0263
23970W        W42824  10.764   0.305   4.775 -0.1176  0.0063  0.0857
23971W        W42825   1.764   3.203   3.222 -0.1987 -0.1800  0.0649
23972W        W42826  15.209  10.662  12.650  0.2000 -0.3547 -0.1912
23973W        W42827   7.988  16.693  16.609  0.0840 -0.0624 -0.2468
23974W        W42828   7.407  12.044   4.715  0.0129 -0.0842 -0.0034
23975W        W42829   1.218  13.697  14.422  0.0277  0.0636  0.1641
23976W        W42830   3.446   5.893  12.897  0.1515 -0.3077  0.0893
23977W        W42831  13.026   9.011  12.849  0.1008  0.1271 -0.1413
23978W        W42832  11.236  16.408   1.518  0.1447 -0.0679  0.0173
23979W        W42833   4.538  13.522  13.873  0.1897  0.2988 -0.1206
23980W        W42834  15.151  10.015  13.151 -0.0289 -0.2165 -0.0209
23981W        W42835  12.256  13.818   2.562  0.1801 -0.0089 -0.2065
23982W        W42836   2.378   3.700  16.843  0.3030 -0.4363  0.1235
23983W        W42837  16.350  13.384  14.135  0.3544  0.2721 -0.1894
23984W        W42838  16.132   6.781  15.452  0.0199  0.0209  0.2873
23985W        W42839   3.049   1.822   5.236 -0.0378  0.1804  0.0978
23986W        W42840  14.279   4.872   0.637 -0.1101 -0.2951  0.0613
23987W        W42841   6.477   7.179  17.466  0.1230  0.1600  0.0762
23988W        W42842   3.804   5.890   4.540 -0.0970  0.3263  0.2285
23989W        W42843   9.629  15.380  17.099 -0.3104 -0.1219 -0.0536
23990W        W42844  12.450  13.492  12.894  0.0284 -0.0415  0.3180
23991W        W42845   6.069   4.991   1.332 -0.1424  0.1938  0.1348
23992W        W42846   8.821  13.595  15.289 -0.0176  0.1109 -0.1283
23993W        W42847  14.729   1.124   3.598 -0.1184 -0.1611 -0.0198
23994W        W42848   3.198   2.154   3.033  0.1727 -0.2139  0.1028
23995W        W42849  10.783   2.282  16.987 -0.3118  0.0513 -0.4530
23996W        W42850   7.614   1.995   4.280  0.0855  0.1975 -0.0703
23997W        W42851   1.881   7.575   3.871  0.0304 -0.0229  0.1757
23998W        W42852  15.743   1.320  14.494  0.1066 -0.2475  0.3069
23999W        W42853  12.447   3.343   0.466 -0.2251  0.3525 -0.0825
24000W        W42854  13.177  14.626  16.860  0.1499 -0.0486  0.0731
24001W        W42855  16.424  11.271  15.879  0.0706 -0.2223 -0.1383
24002W        W42856   5.272   5.656  17.326 -0.0247 -0.2895 -0.0518
24003W        W42857  12.695  11.140   2.475 -0.0652  0.1163  0.1520
24004W        W42858  15.400  10.916   2.572 -0.1222 -0.3385 -0.0022
24005W        W42859   2.695  11.036  15.753 -0.0822  0.1147 -0.3055
24006W        W42860   8.067  11.475  15.670 -0.1062 -0.0725  0.0589
24007W        W42861   4.911  15.696  14.118  0.1458 -0.0240  0.1086
24008W        W42862  13.995   2.283   1.601  0.0024  0.0013  0.1966
24009W        W42863   9.191  11.167  12.896  0.0860  0.0308  0.0298
24010W        W42864  14.778  11.902   1.590 -0.3551 -0.3917 -0.1885
24011W        W42865   0.416  13.719   3.503  0.3032  0.0423  0.1708
24012W        W42866   0.275  15.035   3.057 -0.1082  0.3911 -0.2863
24013W        W42867   8.850   2.610   2.651 -0.0526  0.0436  0.0161
24014W        W42868  16.388  10.133   2.621 -0.2014 -0.0775 -0.2022
24015W        W42869   1.424   1.605   4.039 -0.0255  0.0260  0.2854
24016W        W42870  11.125   4.239  12.447 -0.1035  0.0143  0.0512
24017W        W42871   6.923   7.095  13.931 -0.1503 -0.0459  0.0587
24018W        W42872   0.098   3.059  15.789  0.0403  0.0326 -0.0512
24019W        W42873   9.135   3.313   2.074  0.1371  0.1138  0.0478
24020W        W42874   2.987   3.340   2.594  0.0906 -0.1665  0.0020
24021W        W42875   5.480  17.254   2.874  0.1741  0.1161 -0.1248
24022W        W42876  15.067   9.042  13.181  0.0805  0.0706 -0.0427
24023W        W42877  11.902   7.386  17.311  0.1925  0.2558 -0.1388
24024W        W42878   6.105  13.924  15.750 -0.1237 -0.2153  0.0258
24025W        W42879   4.198  13.818  15.159  0.2804  0.1208 -0.0488
24026W        W42880  10.063  16.614  16.829 -0.3235  0.0198  0.2313
24027W        W42881   1.617   7.144   1.313 -0.2297  0.1327 -0.1927
24028W        W42882   9.452   3.343   4.631  0.1995 -0.2511 -0.0212
24029W        W42883   4.478  15.584  17.058  0.2717 -0.0527 -0.1976
24030W        W42884   0.233  10.607  15.573 -0.1486  0.0706  0.1499
24031W        W42885  14.809   2.178   1.973  0.1873  0.4360 -0.0897
24032W        W42886   6.881   3.199  13.212 -0.2423 -0.2346  0.0366
24033W        W42887   2.784   4.367   2.655  0.3042 -0.0450 -0.0359
24034W        W42888  15.734  13.397  12.147 -0.1652  0.0784  0.2546
24035W        W42889   1.788   4.463  17.235 -0.0096 -0.0842  0.1555
24036W        W42890   1.124   7.166   0.388  0.3834  0.1432 -0.1201
24037W        W42891  12.439   6.152  11.530  0.3986 -0.0585  0.0983
24038W        W42892   5.882   7.221   3.614  0.0896  0.3761 -0.0705
24039W        W42893   9.808  13.250   2.595  0.0290 -0.3056  0.1412
24040W        W42894  10.449   8.688  12.748  0.0325  0.0861 -0.1696
24041W        W42895   3.878   0.360  15.741 -0.0613  0.1313 -0.1919
24042W        W42896  13.665   1.419   4.368  0.0560 -0.1405 -0.0478
24043W        W42897   8.557   5.502  13.673  0.0684 -0.0579  0.0929
24044W        W42898   2.956   7.035   4.113  0.0214 -0.0117 -0.1523
24045W        W42899  15.852  11.098  16.812 -0.0698  0.1115  0.1723
24046W        W42900  16.654   2.429   2.638  0.2043  0.1893  0.0196
24047W        W42901  13.683   3.024   3.340 -0.2557 -0.0923 -0.1987
24048W        W42902   0.504  14.288   3.591  0.1464 -0.0271 -0.1801
24049W        W42903   1.805  11.290  14.240 -0.1238  0.2997 -0.0680
24050W        W42904  11.647   8.974   0.718  0.0862  0.1957  0.0996
24051W        W42905   2.227   3.669   4.695 -0.1381 -0.0483  0.3061
24052W        W42906   8.663   9.255   0.234  0.0983 -0.3521  0.0392
24053W        W42907   2.692  11.621  12.587 -0.1698 -0.4274 -0.0454
24054W        W42908   6.500   3.614   5.058  0.1754  0.0952  0.1049
24055W        W42909   5.716  10.485   0.852 -0.0638  0.1617 -0.4441
24056W        W42910  11.841  14.515  16.742 -0.1254  0.4265 -0.1636
24057W        W42911   9.754  16.720  13.036 -0.0502  0.0646  0.0425
24058W        W42912   0.537  13.625   3.015 -0.1288  0.1774  0.5270
24059W        W42913  13.902  11.633   1.731 -0.1075 -0.2747  0.3914
24060W        W42914  17.255   8.176   3.850  0.1871 -0.3149 -0.1589
24061W        W42915   7.854   5.016  14.505  0.3577 -0.1403  0.2570
24062W        W42916   8.050   4.119   1.551  0.1408 -0.1387  0.2222
24063W        W42917   1.129  11.715   4.939  0.0843 -0.0886 -0.0489
24064W        W42918  10.133   8.179   1.434 -0.1909 -0.0293 -0.0368
24065W        W42919  16.485  13.657   3.135  0.0334  0.2658 -0.0212
24066W        W42920  12.062  11.101   4.804  0.1057  0.1455 -0.3053
24067W        W42921   4.904   2.447  16.568  0.3476  0.0839  0.2068
24068W        W42922   0.166   9.115  15.128  0.3117  0.0462 -0.0048
24069W        W42923   6.416   5.954   5.114  0.2544 -0.4654 -0.2713
24070W        W42924   0.326  15.197   4.126 -0.0270  0.1216 -0.1757
24071W        W42925  12.126   0.570  13.740 -0.4041 -0.2624 -0.0778
24072W        W42926   2.364   8.614   2.787 -0.0729 -0.0172  0.3342
24073W        W42927  15.934   7.785   4.164 -0.1189 -0.0857 -0.2432
24074W        W42928   7.874   9.363  13.198 -0.4843  0.1673  0.3949
24075W        W42929  11.858   0.651   1.388  0.0287  0.1312  0.1069
24076W        W42930  14.437   1.434   4.841  0.0051 -0.0034 -0.1154
24077W        W42931  16.438   6.772  13.457 -0.0370 -0.0976 -0.1795
24078W        W42932  11.777   2.860   2.264  0.1996 -0.1922  0.1952
24079W        W42933   7.053   2.227  16.458 -0.0098  0.0300 -0.4042
24080W        W42934   7.795   2.203   4.809 -0.1556 -0.3001 -0.0678
24081W        W42935   4.850  12.799   4.321  0.0190  0.0935 -0.1420
24082W        W42936  13.337  13.431  16.117 -0.0882  0.3014  0.0730
24083W        W42937  13.379   5.626   2.422  0.2399  0.1202 -0.0719
24084W        W42938  10.295  10.359   4.689 -0.2045  0.0168  0.1412
24085W        W42939  14.462  14.278  13.685  0.0203 -0.0362 -0.1151
24086W        W42940  12.520  17.126   4.123  0.2426 -0.2816  0.0417
24087W        W42941   6.110   4.373  12.705  0.0937  0.0187  0.0131
24088W        W42942   8.759   8.529   3.436 -0.0122  0.0218  0.3269
24089W        W42943   3.686   2.210   0.253 -0.0603 -0.1339 -0.3220
24090W        W42944   8.219   4.892  14.068 -0.2973  0.2283  0.0774
24091W        W42945  15.066   1.802   3.252 -0.1001  0.0967  0.0927
24092W        W42946  12.199  16.481  16.379  0.0131 -0.1317  0.2171
24093W        W42947  16.353   2.448  15.131  0.0188  0.3042 -0.1877
24094W        W42948  10.701  13.637  16.408  0.0424 -0.3905 -0.2634
24095W        W42949   1.046   6.896  13.500  0.0202 -0.2110 -0.2086
24096W        W42950   7.663   2.692  13.404 -0.0809  0.1407  0.1364
24097W        W42951   2.588  14.070   1.161  0.1817  0.0564  0.2696
24098W        W42952   8.159   3.414   0.650 -0.3374 -0.2006 -0.3525
24099W        W42953   2.120   4.713  15.150  0.1997  0.1389 -0.0152
24100W        W42954  11.956   2.560  14.380 -0.0536  0.2061  0.0063
24101W        W42955   6.126   7.815   3.892  0.3130  0.0866 -0.1718
24102W        W42956  13.567   2.164  11.962  0.0215 -0.0765 -0.1727
24103W        W42957   0.126   9.815  16.980 -0.2299  0.1995 -0.1689
24104W        W42958   8.810  13.673  13.961  0.1369 -0.0553 -0.1409
24105W        W42959   4.923  13.224  15.287  0.0708  0.0981 -0.0676
24106W        W42960   5.964   8.180   4.338  0.2790  0.0853 -0.1022
24107W        W42961   5.362   5.600  12.913  0.0656 -0.1606 -0.1049
24108W        W42962  12.665   9.031   4.025 -0.3432  0.0533 -0.1681
24109W        W42963   2.682  10.819  12.536 -0.1637 -0.0817  0.1095
24110W        W42964   0.640   6.761  16.501  0.0226  0.2033 -0.1563
24111W        W42965   7.579   8.747  15.805  0.3451 -0.2573 -0.0543
24112W        W42966   7.079   6.451   1.926 -0.0785  0.1073 -0.2026
24113W        W42967   7.633   2.836  14.733 -0.0994 -0.1518  0.1778
24114W        W42968   8.533  13.562  12.847 -0.2277 -0.3326  0.1612
24115W        W42969  17.308   1.645  14.226  0.1482 -0.1383  0.2990
24116W        W42970   3.118   4.187  15.645  0.2382  0.0361 -0.2179
24117W        W42971   0.786  10.353   5.033  0.2361  0.0036 -0.0252
24118W        W42972   8.723   8.730   0.178 -0.0705 -0.0799  0.0908
24119W        W42973  11.988   6.714  16.094 -0.0036 -0.3042  0.2984
24120W        W42974   5.447  11.903   0.139  0.1331 -0.3993  0.0243
24121W        W42975  15.988   4.797   3.824  0.0955  0.2302  0.0559
24122W        W42976  11.877   4.306   1.902 -0.0479 -0.0423  0.1881
24123W        W42977  16.799  14.591   4.711  0.0444  0.1499 -0.1707
24124W        W42978  10.357   3.574  15.555  0.0622  0.1033  0.2080
24125W        W42979  17.139   1.136  15.737  0.0298  0.1561  0.2127
24126W        W42980  12.919  16.287   4.005 -0.0074 -0.1093 -0.0095
24127W        W42981  16.396  12.335  16.728  0.1357  0.2441 -0.0558
24128W        W42982  12.657   6.468  13.273 -0.0679 -0.0282  0.0760
24129W        W42983   1.900  13.196   3.219  0.2272  0.1548  0.0157
24130W        W42984  13.474  15.759   0.056 -0.0643 -0.2535  0.1189
24131W        W42985  12.393  17.168  16.694 -0.3376 -0.1290  0.0714
24132W        W42986   2.815   5.621  13.763 -0.1177  0.3097  0.2875
24133W        W42987   7.950  15.137   4.472  0.1624 -0.1545 -0.2455
24134W        W42988   2.778   3.202   0.821 -0.0637 -0.0805  0.1526
24135W        W42989   0.828   7.512   0.180  0.3114 -0.0683 -0.0957
24136W        W42990  11.893  15.309   1.221 -0.2888 -0.0591 -0.1680
24137W        W42991   4.310   9.495  15.555  0.0629  0.0929  0.1696
24138W        W42992   5.776   4.218   2.369  0.0956 -0.1729 -0.3512
24139W        W42993   3.975  11.837  16.891 -0.3675  0.1332 -0.0974
24140W        W42994   3.357   2.592   0.350 -0.0270 -0.1073 -0.0624
24141W        W42995  12.152   2.747  15.213 -0.1385 -0.2523 -0.0882
24142W        W42996   5.284  10.481   4.659  0.2371 -0.2519  0.0178
24143W        W42997  14.198  11.878   4.667 -0.0339  0.0048 -0.3728
24144W        W42998   4.822   8.665   1.193  0.3709 -0.0244 -0.1388
24145W        W42999  10.835  14.239  13.156  0.0593  0.1627 -0.1420
24146W        W43000   8.777  14.544  16.953  0.1388 -0.1336 -0.1937
24147W        W43001  15.805   4.790  12.459 -0.0396  0.0534 -0.0053
24148W        W43002   0.032   2.522   4.908 -0.1414  0.0825 -0.0514
24149W        W43003  10.927   3.902  12.734 -0.0178 -0.0667 -0.0814
24150W        W43004  14.795  13.523  12.791 -0.0992 -0.0501  0.0405
24151W        W43005   5.496   2.464   4.676 -0.1556 -0.2833 -0.2394
24152W        W43006   6.243  12.231  17.165 -0.1580 -0.4197 -0.4245
24153W        W43007  10.220   1.335   1.759 -0.1882 -0.2134 -0.0326
24154W        W43008  17.291   9.219   3.262  0.1462  0.3577 -0.1651
24155W        W43009   7.346   6.147  14.789 -0.2749 -0.0963  0.0898
24156W        W43010   4.660   5.784   2.650  0.0564 -0.1028 -0.0545
24157W        W43011   8.894   0.197  13.102 -0.1252 -0.1008  0.0843
24158W        W43012  16.801   8.181   4.715  0.2206  0.1723 -0.0452
24159W        W43013  13.377  10.846   2.670  0.1981  0.0219 -0.1466
24160W        W43014   5.955   1.985  17.308  0.2155  0.0515 -0.3769
24161W        W43015   2.303  15.682  17.402 -0.0079  0.0475  0.2501
24162W        W43016  13.955   0.205   0.859  0.2456 -0.0358 -0.4687
24163W        W43017   0.383  13.598   4.090 -0.1715 -0.1138  0.1931
24164W        W43018  16.700   3.043  15.769 -0.0280  0.0675 -0.2399
24165W        W43019  11.971   3.835  14.402  0.1179  0.0723  0.2610
24166W        W43020   1.397  10.210   3.231 -0.0640  0.1392  0.2310
24167W        W43021  14.275   9.982   4.541 -0.1438 -0.1847  0.1858
24168W        W43022   6.086   1.101  13.667 -0.0404  0.1303  0.0702
24169W        W43023   4.700   6.262  13.487 -0.1146 -0.2283 -0.0529
24170W        W43024   3.731   6.920   0.244  0.0424 -0.2750 -0.1095
24171W        W43025   8.211   1.857   2.522 -0.2369  0.1399  0.0621
24172W        W43026   7.287  12.683   1.379  0.0528  0.1169  0.0161
24173W        W43027   6.448  12.015   2.672 -0.0906 -0.1301  0.0859
24174W        W43028   9.374  11.062  11.807 -0.0238 -0.0278  0.0414
24175W        W43029  17.052  16.210  14.059  0.1946 -0.0301  0.0370
24176W        W43030   0.641  15.239  16.031 -0.2679 -0.1168  0.1899
24177W        W43031   2.944   2.822  14.223 -0.2042 -0.2780  0.0767
24178W        W43032   3.927  12.796   2.153  0.0465 -0.0348 -0.2872
24179W        W43033  14.712   9.245   4.037  0.0910 -0.0657 -0.2704
24180W        W43034  14.658  15.582   3.290  0.0725  0.0589  0.0007
24181W        W43035   2.415   0.181   5.366  0.1115 -0.2952  0.0524
24182W        W43036   8.480  16.540   1.759  0.0361 -0.0342  0.2993
24183W        W43037   9.738   9.266   3.036  0.0802  0.0466  0.0747
24184W        W43038   4.918   8.765  15.333 -0.1327 -0.1064 -0.0184
24185W        W43039   9.951   8.450  13.536 -0.1416  0.1458 -0.0957
24186W        W43040   6.563  16.440   1.205 -0.1044 -0.0299  0.2468
24187W        W43041  12.551   8.566   1.950 -0.0391  0.0997  0.2185
24188W        W43042   9.773   2.772   1.293 -0.2286  0.0637 -0.1322
24189W        W43043   0.991   8.488  16.132  0.1848  0.0962 -0.1682
24190W        W43044   0.095  15.377  12.539  0.0254 -0.0383  0.1993
24191W        W43045  10.290   7.401   0.907  0.0121 -0.1078  0.0981
24192W        W43046   5.051  16.544  13.382 -0.0267  0.2312  0.0216
24193W        W43047  12.824  11.946   4.170  0.1298 -0.1466  0.1067
24194W        W43048   8.572  12.514  17.452 -0.1626  0.1039  0.2722
24195W        W43049   9.635   0.904  15.310  0.0799  0.0932 -0.0813
24196W        W43050   5.605  13.129   3.779  0.1398 -0.1327 -0.0813
24197W        W43051  14.730  16.747   1.666  0.1204  0.2846  0.0770
24198W        W43052   3.045  12.160   5.797 -0.0889  0.1413  0.2661
24199W        W43053   4.221   7.736   0.104  0.3036  0.2083 -0.2379
24200W        W43054  13.288   8.128   1.372 -0.0740 -0.0354  0.0005
24201W        W43055  13.590  13.074  13.484 -0.0464 -0.2490  0.2040
24202W        W43056  10.470  16.379  15.018  0.2125  0.2903  0.1062
24203W        W43057   0.767   0.674  12.958 -0.1550 -0.0502 -0.0144
24204W        W43058  13.448  13.428  12.558  0.4316  0.2023  0.0881
24205W        W43059  15.268  14.964   3.948  0.1977  0.0207 -0.1505
24206W        W43060   0.783   9.764   1.913 -0.3524 -0.0054 -0.1050
24207W        W43061   2.576  13.499  16.864  0.0773 -0.1801  0.2136
24208W        W43062  13.951  12.602  12.772 -0.1118  0.1479  0.1988
24209W        W43063   3.507   1.036  14.659 -0.0915 -0.0956 -0.0511
24210W        W43064  14.406   3.816   3.300  0.0821 -0.1133  0.3695
24211W        W43065  15.033   4.157   1.542 -0.2269 -0.0727  0.1897
24212W        W43066   9.637  12.973  13.970 -0.2018  0.1185 -0.0962
24213W        W43067   1.248  16.405  13.483 -0.0510  0.1297  0.0843
24214W        W43068  13.623  10.951  13.022 -0.1184 -0.1984  0.2314
24215W        W43069   8.905   7.196   3.819  0.0695  0.0116 -0.0486
24216W        W43070  11.191  14.737  13.840  0.0630 -0.0970  0.0036
24217W        W43071  12.547   7.806  16.635  0.0442 -0.1708 -0.0191
24218W        W43072   5.915  11.268   4.402  0.0307  0.1493  0.1436
24219W        W43073   0.767   7.460  17.150  0.2162 -0.3868 -0.1949
24220W        W43074  13.190  14.932   2.658  0.0380 -0.0517  0.0386
24221W        W43075  10.311  15.566  12.143 -0.2406  0.2346 -0.0521
24222W        W43076  16.638  10.091  15.505 -0.2099  0.1183  0.2127
24223W        W43077   6.079  16.896   5.491  0.0948 -0.1509  0.0586
24224W        W43078   4.741  12.764   0.953  0.1459 -0.2006 -0.1967
24225W        W43079   6.055   9.283   0.055  0.0670 -0.0937  0.1621
24226W        W43080   8.926  16.776  17.116  0.2536  0.3151 -0.1170
24227W        W43081  11.149  15.510  13.749  0.0659  0.1624  0.2538
24228W        W43082  13.653   3.649   4.812  0.0436  0.1219  0.0383
24229W        W43083   3.695  16.384   0.893 -0.0050 -0.1513 -0.2996
24230W        W43084  16.370   9.896  13.831  0.1524 -0.0467  0.0179
24231W        W43085  10.277  16.134   3.403  0.1459 -0.1022  0.0388
24232W        W43086   4.990  10.769   2.391 -0.4375  0.0287  0.0915
24233W        W43087   8.388   3.290   2.773 -0.0855 -0.5061 -0.1739
24234W        W43088  12.029  14.181   3.778 -0.2207 -0.0667  0.2156
24235W        W43089  10.086  12.242  13.371  0.2459  0.0174  0.1434
24236W        W43090  12.559  10.046  14.845  0.0165  0.0011  0.1471
24237W        W43091  12.773   9.794   1.810  0.0945 -0.2092 -0.0143
24238W        W43092  14.066   0.859  14.563  0.2604  0.1448  0.1014
24239W        W43093  16.304  14.389  16.207  0.2225  0.0017 -0.0831
24240W        W43094   0.678  11.175   5.572 -0.0256  0.3404  0.1131
24241W        W43095   3.842  14.954  15.953  0.0223 -0.1328  0.1587
24242W        W43096  13.605  16.667   1.791  0.0163  0.0281 -0.0588
24243W        W43097   0.817  15.500   1.611  0.2084  0.0663 -0.2650
24244W        W43098  16.455  14.232   3.111 -0.2363 -0.0780  0.0544
24245W        W43099   8.258   7.689   4.277  0.3993  0.1618 -0.1517
24246W        W43100  13.343  12.768   3.434  0.3351 -0.1084 -0.1954
24247W        W43101  15.588  13.675   3.913 -0.3191  0.1697 -0.1936
24248W        W43102  10.707   9.606   3.661  0.0014 -0.3070 -0.1908
24249W        W43103  17.134  17.174   4.885  0.1382 -0.0085 -0.1919
24250W        W43104   9.973  10.470   1.053 -0.3977  0.0915  0.1086
24251W        W43105  13.087  10.455  12.909  0.0233 -0.2365  0.0715
24252W        W43106  17.193  13.153   1.253  0.2578 -0.0844 -0.3246
24253W        W43107  12.327  16.274   3.195  0.2358  0.0838  0.1420
24254W        W43108  14.458  10.733   3.258 -0.0169  0.1635 -0.2813
24255W        W43109   1.268   3.064   3.174 -0.1515  0.0980  0.3792
24256W        W43110   6.524  11.709  13.673 -0.0518  0.0699  0.5421
24257W        W43111   3.979  16.536   2.311  0.0558  0.0216  0.1523
24258W        W43112  10.073  16.532  15.513 -0.0921  0.1687  0.0383
24259W        W43113  11.704  11.776   1.785  0.0689 -0.0846  0.1754
24260W        W43114   5.637  10.742   4.140  0.2439  0.0627 -0.0972
24261W        W43115  13.994   7.273  16.765 -0.1868 -0.0697  0.2551
24262W        W43116  11.858   3.186   3.601  0.2551 -0.2293 -0.0263
24263W        W43117  14.044  13.422  13.548  0.1028  0.0600 -0.1255
24264W        W43118   9.628  12.126  16.921 -0.0308  0.3739  0.1394
24265W        W43119  15.903  14.490   0.547  0.0658 -0.0582 -0.1535
24266W        W43120  12.790   3.055  16.468  0.0977 -0.1394  0.2782
24267W        W43121  10.281  14.164  12.983  0.0107  0.0248  0.2407
24268W        W43122   6.902   5.632   3.667  0.0287 -0.1867 -0.1999
24269W        W43123  17.054  16.514   1.853  0.0799 -0.2012 -0.0724
24270W        W43124  10.418  16.321   1.626 -0.2498  0.0877 -0.0276
24271W        W43125   7.016  17.102   2.134 -0.0600  0.0259  0.1116
24272W        W43126   6.071  12.618  13.826 -0.0417 -0.0743  0.2521
24273W        W43127   0.871   9.401   3.097  0.1627  0.0174  0.2844
24274W        W43128   1.413   4.691   0.009 -0.1245  0.1420  0.0160
24275W        W43129  12.509   8.133  14.201  0.0873 -0.0751 -0.0798
24276W        W43130  11.180   5.631  13.349 -0.3158  0.1471 -0.1715
24277W        W43131   3.335   5.422  13.736  0.1394  0.3504  0.1505
24278W        W43132  17.076  13.531   2.459 -0.1079  0.1709 -0.1691
24279W        W43133  11.865   7.634  14.401 -0.1072  0.3394 -0.0679
24280W        W43134  10.374  15.487  14.452 -0.1083 -0.2078  0.1360
24281W        W43135  12.324   6.847   1.483 -0.3756 -0.0224 -0.1128
24282W        W43136   4.466   4.143   2.719 -0.2348  0.1118 -0.1653
24283W        W43137  14.859   3.995  16.637  0.0566  0.2362  0.0604
24284W        W43138   9.576   2.621   4.260 -0.2264  0.2012 -0.0034
24285W        W43139   4.662   8.378  15.761  0.0539 -0.5538 -0.0422
24286W        W43140  16.448  12.827  13.689 -0.0000  0.6343 -0.2126
24287W        W43141   3.758  15.693   3.159 -0.0559  0.1498  0.0657
24288W        W43142  12.026   2.131  14.151 -0.2219 -0.0479  0.3857
24289W        W43143  16.156   7.212   4.264  0.0576  0.2152 -0.1835
24290W        W43144  12.684   5.356  15.504  0.2700  0.1945  0.1080
24291W        W43145  15.900  10.714   3.788  0.0224  0.0421  0.3135
24292W        W43146   6.049   2.481  14.692  0.0891 -0.2593 -0.1842
24293W        W43147   8.896  16.591   0.661  0.1097  0.0980 -0.3102
24294W        W43148  15.509  12.441   0.738 -0.1064 -0.0735 -0.0247
24295W        W43149   3.219  14.553   4.379 -0.0258  0.2454 -0.0583
24296W        W43150   8.400   6.205   3.138 -0.1365 -0.2290  0.0627
24297W        W43151  11.019   7.987   1.955  0.1439 -0.1065  0.1084
24298W        W43152  11.956   9.030  16.200 -0.0324  0.2017 -0.0466
24299W        W43153   3.824   0.471  13.855 -0.1391  0.0717  0.1454
24300W        W43154   9.508   3.728  15.371  0.0311 -0.0784  0.1316
24301W        W43155  11.130  17.050   5.128  0.4086 -0.0873 -0.1417
24302W        W43156   0.582  15.657   4.020  0.0202  0.1237 -0.0436
24303W        W43157  13.090   7.347  12.271  0.1889  0.3291 -0.0925
24304W        W43158  14.069  13.757   1.620 -0.0511 -0.1350 -0.0676
24305W        W43159   2.489   7.120  16.800 -0.1724 -0.0717  0.0812
24306W        W43160  14.990  13.369  13.257  0.0040 -0.1150 -0.0050
24307W        W43161   7.263   0.874   5.334  0.3189 -0.0546 -0.2892
24308W        W43162   8.411   9.835   3.471 -0.2042 -0.1778 -0.1369
24309W        W43163   3.813   5.317   5.138  0.2093  0.2068 -0.0779
24310W        W43164   7.983   8.243   4.289 -0.3444 -0.0423 -0.3346
24311W        W43165  10.303   1.618  16.439 -0.0803  0.2390 -0.0163
24312W        W43166  14.353   8.550  17.171  0.0282  0.0684  0.0443
24313W        W43167   0.067   5.415  14.857  0.3219 -0.1283  0.0671
24314W        W43168   8.762  14.455   1.885  0.1520  0.2590 -0.1166
24315W        W43169  13.368   8.528   1.991  0.2391  0.2097 -0.3223
24316W        W43170   3.541  14.197   0.074 -0.0158  0.0414 -0.0283
24317W        W43171  15.062   4.810   4.788  0.1161  0.3966 -0.1093
24318W        W43172  14.788   0.887  17.232  0.1598  0.2123  0.0974
24319W        W43173  15.802   8.557   3.850  0.0063  0.3279 -0.2341
24320W        W43174   6.032   2.138   4.519 -0.2732  0.0910  0.2230
24321W        W43175   9.369   6.470   4.055  0.0185 -0.3192 -0.1341
24322W        W43176  10.179   0.039   0.051  0.0658 -0.2689 -0.1281
24323W        W43177   7.977   3.962   4.062 -0.2392  0.1776  0.0054
24324W        W43178   1.066   3.034   2.178 -0.0267  0.0173  0.0685
24325W        W43179  10.242   9.710   3.727 -0.1223 -0.2286  0.0919
24326W        W43180  14.498   0.385   2.485  0.0540  0.0584 -0.0019
24327W        W43181   6.376   3.807   5.563  0.0261 -0.0108 -0.1692
24328W        W43182  10.951   9.781   2.429  0.1734  0.0206  0.2427
24329W        W43183  17.036   3.521   3.719  0.0966  0.0099 -0.2788
24330W        W43184   9.573  12.324   0.532  0.2268  0.1176 -0.1150
24331W        W43185   3.957  11.237   5.219  0.0863 -0.1316  0.0720
24332W        W43186   8.393   0.497   1.871 -0.0402 -0.3077  0.1436
24333W        W43187  14.895  11.675  15.409  0.2153  0.0079  0.1224
24334W        W43188  15.110   9.629   3.708 -0.2501 -0.2841  0.2626
24335W        W43189   1.101  10.423   1.400  0.0567 -0.2458  0.3359
24336W        W43190   2.259   0.537  16.744  0.0512 -0.1286  0.0315
24337W        W43191   4.864  12.125  16.794  0.2522  0.1530 -0.2095
24338W        W43192  17.278   8.468   2.715  0.0957 -0.1182  0.0697
24339W        W43193   2.517  12.484  16.009 -0.1668 -0.0542  0.0721
24340W        W43194   5.041  15.069   4.478  0.0204 -0.0470  0.1490
24341W        W43195  10.779  13.857  14.246  0.0998  0.1934  0.1161
24342W        W43196   8.613   5.048   4.053 -0.1374  0.0679  0.1848
24343W        W43197   1.765   9.275   4.770  0.0229  0.0062 -0.2117
24344W        W43198   3.992  12.723  13.518  0.1538 -0.0422 -0.3324
24345W        W43199  10.950   4.039   2.355  0.0131  0.2219  0.2289
24346W        W43200   8.260  14.442   4.149 -0.1222  0.1917 -0.0035
24347W        W43201  10.695   3.157  14.075 -0.0648 -0.1984  0.0883
24348W        W43202  12.671  13.451  14.263 -0.0364 -0.0385 -0.2705
24349W        W43203   1.870   9.709  14.361  0.0392  0.1277  0.0099
24350W        W43204  10.974   0.455   1.722 -0.1178  0.1291 -0.0944
24351W        W43205   0.036  16.055   3.801  0.0329  0.0502  0.0150
24352W        W43206   5.214   3.030  13.812 -0.1127  0.1274  0.1449
24353W        W43207   1.838   0.685  15.720 -0.1430 -0.1919  0.1108
24354W        W43208  13.404  12.457  15.224 -0.0348  0.1279  0.0715
24355W        W43209   5.126   0.549   1.607  0.1177 -0.1862 -0.1104
24356W        W43210  13.944   7.598  15.203 -0.0210 -0.0010  0.1061
24357W        W43211   5.485  10.720   5.025 -0.1183  0.0260  0.1051
24358W        W43212   5.458   8.083  17.433 -0.1080  0.0323 -0.1478
24359W        W43213   3.187   2.106  13.064  0.2824 -0.0552 -0.3069
24360W        W43214   1.431  11.067  12.568 -0.1760  0.1485 -0.2165
24361W        W43215   7.303  16.926   1.687 -0.2123  0.0278 -0.1056
24362W        W43216  16.800   9.673  12.473 -0.0932 -0.1174 -0.1340
24363W        W43217   3.318  13.055  17.036  0.0563  0.1610  0.0568
24364W        W43218   0.022  12.394   2.330 -0.0921 -0.0932 -0.1042
24365W        W43219  12.689   9.306   5.312  0.1109  0.5107  0.0271
24366W        W43220   9.392   9.023  12.431  0.0870 -0.0386  0.0327
24367W        W43221  13.825  13.278  15.840 -0.0927 -0.1195  0.1501
24368W        W43222   0.235   9.689   3.841  0.1191 -0.2046  0.0362
24369W        W43223  13.887  13.081  13.975  0.3158  0.1520 -0.0341
24370W        W43224   2.801  12.870  15.251 -0.0100  0.0532  0.1518
24371W        W43225  11.771   2.344   3.024 -0.0021 -0.0453 -0.2645
24372W        W43226   5.624   0.014   1.232  0.1755  0.0359 -0.0864
24373W        W43227   9.913   9.576   0.207 -0.0816  0.0759 -0.2542
24374W        W43228  13.357  13.889  15.492  0.1225 -0.1905 -0.3690
24375W        W43229   4.818  10.270   0.301 -0.0083 -0.1514  0.1592
24376W        W43230  14.686  13.813   4.137 -0.0069  0.0527  0.0010
24377W        W43231   1.061  15.875   4.105  0.2165 -0.1877 -0.1134
24378W        W43232   3.587  13.376   4.328  0.2180 -0.2197 -0.0864
24379W        W43233   5.908   0.090   1.670 -0.0916 -0.1624 -0.3390
24380W        W43234  16.829   3.723  14.798 -0.0220 -0.3454 -0.1270
24381W        W43235   1.721   8.300   4.939  0.0125 -0.0950 -0.1747
24382W        W43236  15.582   5.966   4.707  0.2895  0.3148 -0.0361
24383W        W43237   8.207  15.421  13.955 -0.2028 -0.0265  0.0423
24384W        W43238  15.273   7.411   4.758  0.0465  0.1072  0.1477
24385W        W43239   6.089   6.823   2.041  0.0211  0.2296 -0.0279
24386W        W43240   0.492  14.164  15.773  0.2125 -0.0133  0.1756
24387W        W43241   9.566   1.769   5.424 -0.1826 -0.2168  0.1129
24388W        W43242  13.581  16.868  15.171  0.0861 -0.0134  0.1597
24389W        W43243  10.996   7.693  17.104 -0.4087 -0.1636  0.0102
24390W        W43244   2.509   0.910   2.509  0.0665  0.0272 -0.4130
24391W        W43245   1.962  16.730  12.506  0.1068  0.0982  0.3246
24392W        W43246   8.072   5.704   5.298 -0.0555  0.0241 -0.1400
24393W        W43247   9.524   9.330   1.375  0.0176  0.1593  0.0890
24394W        W43248   9.402  16.821  17.057 -0.1458 -0.0967 -0.0039
24395W        W43249  15.317   0.534   4.320  0.2295 -0.0703  0.0982
24396W        W43250  14.942   9.347  14.221 -0.1850  0.3606  0.2296
24397W        W43251  11.551   9.337  16.250 -0.2284 -0.3739 -0.1744
24398W        W43252  10.135   3.249   0.673 -0.0580 -0.1083 -0.1408
24399W        W43253   8.522   7.727  15.134 -0.0316 -0.0403 -0.0569
24400W        W43254   4.521  13.269   1.740 -0.0706  0.1320  0.1872
24401W        W43255   6.685   6.701   4.131  0.2106  0.1769 -0.1805
24402W        W43256   0.058  15.158  16.692  0.1756 -0.0735  0.0687
24403W        W43257   0.714  11.000  12.142  0.0999 -0.1140  0.1222
24404W        W43258   3.835  10.143   2.021 -0.1965  0.4101  0.1174
24405W        W43259  14.348   4.155   2.921 -0.2613  0.2148  0.1139
24406W        W43260   3.239   0.156   4.585 -0.0096 -0.0861 -0.1819
24407W        W43261   1.748   3.876  17.103 -0.0384 -0.1959  0.0558
24408W        W43262  11.615   5.640   2.922 -0.4325 -0.0366  0.2712
24409W        W43263   8.876  10.746  14.818  0.2869  0.0833  0.1791
24410W        W43264   6.707   8.187   0.839 -0.1348  0.0610 -0.3635
24411W        W43265  13.879   0.419  14.057 -0.1759  0.4578  0.0879
24412W        W43266   2.513  11.512   1.693  0.1250 -0.0573 -0.2418
24413W        W43267   5.945   1.463   1.521  0.2287  0.0716  0.1030
24414W        W43268   4.942   2.830   0.477  0.2675 -0.2443 -0.0626
24415W        W43269   9.272  16.200   0.346  0.0793 -0.1345  0.3008
24416W        W43270   7.711   5.573   2.689 -0.2305  0.2410  0.0981
24417W        W43271   8.182  13.697   3.000 -0.3174  0.1200 -0.2355
24418W        W43272   2.922  10.477  16.889 -0.0063  0.0392  0.0795
24419W        W43273   3.121   5.102   2.254  0.2757 -0.2481 -0.0540
24420W        W43274  15.474   1.551  12.524 -0.1521  0.0512 -0.0840
24421W        W43275  15.373   2.220   3.197  0.1760 -0.1019 -0.3192
24422W        W43276  13.047   1.085   1.434 -0.1881  0.0863 -0.2381
24423W        W43277   4.916   1.162   2.808 -0.1194 -0.0747 -0.1303
24424W        W43278   5.013  15.500  17.218 -0.3153  0.2094  0.2888
24425W        W43279  12.028   1.194   0.637  0.0465 -0.1920 -0.0721
24426W        W43280  17.237   1.539   2.733 -0.1083  0.2335  0.1056
24427W        W43281  16.228   6.451   4.223  0.1208 -0.3328 -0.0105
24428W        W43282  13.570  12.094  12.381 -0.0112  0.0556  0.4433
24429W        W43283   0.064   1.611  16.589  0.2626 -0.1426  0.0620
24430W        W43284   9.647   5.392   2.257 -0.2305  0.0892 -0.1205
24431W        W43285   9.535   9.618  13.965 -0.3752  0.3029 -0.1472
24432W        W43286   6.987   4.168  12.619  0.0605 -0.0169  0.2228
24433W        W43287  15.980  10.260   2.938  0.1805  0.3189 -0.2670
24434W        W43288  16.730  12.916   0.304 -0.0020 -0.1885  0.2107
24435W        W43289   7.438   1.345   5.446  0.1496 -0.4053 -0.4378
24436W        W43290   7.045  12.193  12.621 -0.1160  0.0153 -0.0509
24437W        W43291   6.198  13.749  15.274  0.2532  0.1605  0.1268
24438W        W43292   5.116  15.666  16.790 -0.0006 -0.1152  0.3260
24439W        W43293   0.731   2.968  13.516  0.2052  0.1077  0.0237
24440W        W43294   8.294   2.561   4.005  0.3060 -0.1999  0.0551
24441W        W43295   4.299   4.683  16.284  0.3217  0.1613 -0.0698
24442W        W43296   3.146  16.060   5.698 -0.1743  0.0882 -0.0192
24443W        W43297  16.191   5.161  15.328 -0.1468  0.2002  0.1569
24444W        W43298   3.503  16.667  13.085  0.1276  0.1107  0.0974
24445W        W43299  11.157   5.021   1.218  0.0043 -0.0545  0.0783
24446W        W43300   1.063   9.391  16.416  0.1823 -0.1502 -0.1767
24447W        W43301  15.556  16.750   3.047 -0.0990 -0.2407 -0.3754
24448W        W43302   0.447   6.518  15.992  0.1828 -0.0061  0.0331
24449W        W43303   1.509  16.431   4.661 -0.1943 -0.1300  0.1584
24450W        W43304   6.881  11.375   2.427 -0.2718  0.1628 -0.4260
24451W        W43305   2.745   5.917  13.376  0.0847 -0.0178 -0.2633
24452W        W43306  16.395   5.459   4.386  0.0920  0.0384 -0.2258
24453W        W43307  10.534  10.095   1.149 -0.1633  0.3080 -0.2417
24454W        W43308  16.811  11.051  15.619  0.3598 -0.2219  0.0755
24455W        W43309   6.763   8.815  12.566  0.0010  0.0228 -0.1335
24456W        W43310  16.148  16.957  15.307 -0.1015  0.3557  0.3606
24457W        W43311   3.985   9.364  12.847 -0.2448  0.1882 -0.0747
24458W        W43312  15.819   9.848   1.799 -0.0414 -0.1382 -0.2040
24459W        W43313  17.221  12.720  13.350 -0.0555  0.1979  0.0130
24460W        W43314   3.237  12.514  14.746 -0.0751 -0.0119 -0.0691
24461W        W43315   5.671   4.986  13.584  0.2323  0.2828 -0.3040
24462W        W43316   8.070   8.671  16.747 -0.3952 -0.2536 -0.1764
24463W        W43317   8.942   5.592  12.951  0.1637  0.2575 -0.1088
24464W        W43318   3.235   2.164   4.620  0.2058 -0.3224  0.1867
24465W        W43319   9.897  10.137  14.702  0.1555  0.0101 -0.1385
24466W        W43320   9.347   8.382   5.324  0.1828 -0.0416  0.0150
24467W        W43321  13.471   7.500   2.629 -0.0175 -0.0242  0.3990
24468W        W43322   6.618   6.706   6.499  0.0066  0.2214  0.3509
24469W        W43323   0.454  11.793  16.477  0.1428 -0.0992 -0.2292
24470W        W43324   4.607  13.809   2.915 -0.0346  0.1462  0.0040
24471W        W43325   0.120  16.703   2.238 -0.0473  0.3684  0.2515
24472W        W43326  10.961   1.970  15.210  0.3007  0.0318  0.2520
24473W        W43327  14.819   5.531  14.678  0.2016  0.0196 -0.3632
24474W        W43328  14.520   2.906  14.918 -0.1192 -0.0143 -0.0476
24475W        W43329   4.848  16.940  13.674 -0.0681 -0.0589 -0.1704
24476W        W43330  13.277   3.709   2.000 -0.0226  0.2387 -0.0731
24477W        W43331   2.022  14.674   3.950 -0.1400 -0.2629 -0.0506
24478W        W43332   5.479  10.998   4.526  0.0692 -0.0972 -0.0202
24479W        W43333   0.464  15.980   4.785 -0.0320  0.2083  0.0244
24480W        W43334  15.044  12.561   0.019  0.1161 -0.2064 -0.0308
24481W        W43335   6.219  13.249  16.867 -0.1438 -0.3292 -0.4764
24482W        W43336   9.920  14.215   0.268  0.0647 -0.4692 -0.1757
24483W        W43337   6.513   7.842  12.393  0.0539  0.3111  0.2526
24484W        W43338  16.192   7.948   3.331  0.1252  0.0559 -0.2166
24485W        W43339   2.105   1.384  16.448 -0.3410  0.0984 -0.0621
24486W        W43340   7.523   4.907  16.192  0.0279  0.1082  0.3219
24487W        W43341   8.937  11.448   3.545  0.1216 -0.1200  0.1095
24488W        W43342  14.857   6.660   2.817  0.1568 -0.0210  0.1391
24489W        W43343  16.979   5.521   1.722  0.0858  0.1768  0.1412
24490W        W43344  10.397   1.768   1.014 -0.1853  0.0326  0.2658
24491W        W43345   2.358   3.045  16.069  0.1057  0.1068 -0.0916
24492W        W43346  12.732   4.560  14.488 -0.0959  0.0461  0.1522
24493W        W43347   1.107  10.123  16.450  0.3478 -0.0933  0.2424
24494W        W43348   8.071   5.248  12.584 -0.0358 -0.1930  0.2479
24495W        W43349  14.403  10.936   2.803 -0.0066  0.2061 -0.0185
24496W        W43350  16.360   5.804  13.527 -0.1658  0.0422 -0.0607
24497W        W43351  10.371   8.091  13.660  0.2490  0.1211 -0.0004
24498W        W43352  14.373  13.647   4.606  0.0896  0.1682  0.7331
24499W        W43353   6.664   4.220  12.969 -0.0191  0.0712 -0.1573
24500W        W43354   3.970   7.923  17.149 -0.1680  0.2165  0.2354
24501W        W43355  13.780   6.376  17.380  0.0580 -0.1998  0.0772
24502W        W43356   7.792   5.119  17.097  0.1915 -0.0412 -0.0148
24503W        W43357  15.226  13.440  16.380  0.2343  0.1181 -0.2583
24504W        W43358  15.384  15.328   4.696 -0.0525 -0.0349  0.2686
24505W        W43359  13.130  15.355  12.436 -0.0399 -0.0315  0.3631
24506W        W43360  12.799   4.392   2.794  0.2599  0.0442 -0.2927
24507W        W43361   9.934   6.556  16.303 -0.0533 -0.0846  0.2236
24508W        W43362   5.647   3.775   1.684  0.1366 -0.1494  0.0259
24509W        W43363   0.060  15.474   3.290  0.1117  0.0860  0.0552
24510W        W43364  15.115   5.185   4.482  0.0976  0.0683  0.3939
24511W        W43365   9.083  12.081  15.417  0.0169  0.0856 -0.0621
24512W        W43366   1.237   5.687   2.247  0.4219  0.0284 -0.3585
24513W        W43367  11.703  13.017  13.789 -0.2202  0.1615 -0.1364
24514W        W43368   9.688   9.757   2.120  0.0127 -0.2745  0.2123
24515W        W43369   7.340  12.920  13.132 -0.0791  0.0592  0.0959
24516W        W43370   5.948  13.551   4.858 -0.0595 -0.1398  0.0117
24517W        W43371  17.024   5.704   0.310 -0.2374 -0.3635 -0.0743
24518W        W43372  16.960   8.062   2.620  0.1983  0.2481  0.2790
24519W        W43373   3.686  14.619  16.932 -0.1138 -0.0009  0.0525
24520W        W43374   8.682  15.170  12.982  0.2546  0.1857  0.0205
24521W        W43375   6.331   1.598  13.435 -0.0755 -0.0381 -0.3674
24522W        W43376   0.862   5.234   4.333  0.1130  0.2379  0.0421
24523W        W43377   0.110  11.768  17.100 -0.0501 -0.0333  0.0217
24524W        W43378   3.957  16.934   5.123 -0.1379  0.2446  0.3258
24525W        W43379  15.725   1.033   4.292 -0.0157  0.0255 -0.0624
24526W        W43380  17.059   9.396  14.829 -0.0108 -0.2328 -0.2638
24527W        W43381   3.253   2.159  16.750 -0.0695 -0.0162 -0.4533
24528W        W43382  14.599  11.920   5.381  0.1319 -0.0242 -0.1913
24529W        W43383   5.165   1.918  16.625 -0.2953 -0.4771 -0.2888
24530W        W43384  11.848   1.418   1.939  0.0436  0.0751 -0.1166
24531W        W43385   3.368  14.208  12.965 -0.0171  0.3087 -0.0613
24532W        W43386   3.331   2.824   1.300 -0.0099  0.2352 -0.0457
24533W        W43387  16.618   4.950  14.543  0.0175  0.2488  0.2792
24534W        W43388   8.315  13.512  15.141  0.2455  0.0062 -0.0743
24535W        W43389   0.504  16.014  13.736  0.1443  0.0451 -0.0928
24536W        W43390  11.180  17.091   1.521 -0.2313  0.2696  0.2529
24537W        W43391   7.702   3.483   2.148 -0.1270 -0.1235  0.0994
24538W        W43392  14.484   1.202  16.779 -0.0529  0.1373  0.1712
24539W        W43393   6.562  14.400  12.766  0.0098  0.3801  0.0887
24540W        W43394   7.075  15.651  16.543 -0.3458  0.1049  0.1252
24541W        W43395   5.448   1.223  13.805 -0.1993  0.1427  0.2006
24542W        W43396   5.587  17.300   3.396  0.0287 -0.1992 -0.1867
24543W        W43397   4.220   4.996   4.681  0.0830  0.0039  0.0611
24544W        W43398   1.163  16.854  12.584 -0.1279 -0.0809 -0.2245
24545W        W43399   8.664  16.283  15.230  0.1308  0.0158  0.1172
24546W        W43400  14.953  13.374  14.530 -0.1300  0.1817 -0.2323
24547W        W43401   6.100   8.905  14.603 -0.0777 -0.0818 -0.1027
24548W        W43402   4.207   8.371  13.713 -0.0394  0.0322 -0.1287
24549W        W43403   8.897  17.237  12.747  0.1496 -0.0180  0.0161
24550W        W43404   1.963   6.477   4.867 -0.0094  0.1621  0.0933
24551W        W43405   1.320  11.511  14.316 -0.0021  0.1369  0.3272
24552W        W43406  14.413  13.044   0.224  0.3991  0.0166 -0.0595
24553W        W43407   0.270   8.343   4.122 -0.1343 -0.1818 -0.0960
24554W        W43408  14.962   9.862  15.325 -0.0663  0.1356 -0.0948
24555W        W43409  15.046   9.395  12.445  0.0086 -0.0540  0.2501
24556W        W43410   8.433   6.971  15.263  0.0414  0.2321 -0.1049
24557W        W43411  15.606   0.397  17.463  0.0498  0.3060 -0.0452
24558W        W43412   3.545   8.720   0.778  0.1579 -0.0518  0.0944
24559W        W43413   8.784   2.169  12.854  0.3734 -0.0110 -0.1677
24560W        W43414   5.954  16.841   1.576  0.0830 -0.3138 -0.0644
24561W        W43415   3.578  14.647  16.352  0.3013 -0.0278 -0.1235
24562W        W43416  15.451   5.431   4.921 -0.1784  0.0258 -0.1460
24563W        W43417   8.026  14.921  15.286  0.0270 -0.0618 -0.0944
24564W        W43418  13.507   1.606  13.771  0.1100 -0.1422 -0.3196
24565W        W43419   1.447   8.989   3.686 -0.1552  0.1491  0.1905
24566W        W43420  15.239   5.983   4.306  0.1350  0.2546 -0.1582
24567W        W43421   7.025  10.199  15.443 -0.1170 -0.0249  0.1155
24568W        W43422   5.898  10.233  13.172  0.2129  0.2414 -0.4226
24569W        W43423   7.464  16.055  14.630 -0.0694 -0.0837 -0.3496
24570W        W43424  17.297  12.274  13.318  0.2291  0.0418 -0.0451
24571W        W43425   4.114   1.004   5.764 -0.0795  0.0329 -0.0021
24572W        W43426   2.375  14.392   4.213  0.1109  0.0023  0.3178
24573W        W43427   0.418   1.491   1.223  0.2167 -0.1381 -0.0123
24574W        W43428   3.700  10.203  17.223  0.3255  0.0314  0.0964
24575W        W43429   3.502   9.548  12.758  0.0763  0.2139 -0.0071
24576W        W43430   4.540   1.443  16.259  0.1808  0.0233  0.0215
24577W        W43431   9.971   6.820   2.576  0.1430 -0.0044 -0.0979
24578W        W43432  10.910   5.692  15.836 -0.1490  0.2034  0.3216
24579W        W43433  16.018   2.684  16.989  0.0074  0.0593 -0.0310
24580W        W43434   1.329  10.892  16.164  0.0970  0.1679 -0.0028
24581W        W43435   4.697   6.824  12.576  0.2052  0.1054  0.0116
24582W        W43436  13.410   8.574  16.886 -0.0778  0.0672  0.2609
24583W        W43437   2.736  14.652   0.300  0.1233 -0.1466  0.1749
24584W        W43438   9.742   6.771   3.813 -0.0179 -0.0986  0.4309
24585W        W43439   4.084   3.941  14.201 -0.1298 -0.1616  0.1058
24586W        W43440  13.051  11.956   4.689  0.0009  0.1424  0.0515
24587W        W43441  15.382   6.426   0.638 -0.0454  0.2540  0.0472
24588W        W43442   1.935   8.476   2.359 -0.1885 -0.3561 -0.1432
24589W        W43443   7.892   4.139  15.020  0.1897 -0.1949 -0.0719
24590W        W43444   7.596   5.262   0.999 -0.2162  0.1805  0.1479
24591W        W43445   1.662   2.902  12.358  0.1104  0.2770 -0.1608
24592W        W43446   7.756   0.356  14.611  0.1290 -0.0643  0.0171
24593W        W43447   4.912  14.450   1.907 -0.1344 -0.0656  0.0540
24594W        W43448   9.985  14.170   2.505 -0.2042 -0.1341  0.1273
24595W        W43449   4.557  16.436   0.931 -0.1616 -0.1043 -0.2143
24596W        W43450   4.330   5.271   5.091 -0.1067  0.1902 -0.3106
24597W        W43451  15.686   5.916  13.657  0.2601 -0.0023 -0.0458
24598W        W43452   4.823   6.237  14.362  0.1146  0.3744 -0.0987
24599W        W43453  15.236  16.628  17.376 -0.0806  0.0289  0.2428
24600W        W43454   0.171   0.356  15.740 -0.1501  0.2295 -0.2713
24601W        W43455  10.899  11.602   1.032  0.1599 -0.1374 -0.1215
24602W        W43456  14.707   4.146   2.590 -0.0164  0.0442 -0.0019
24603W        W43457   9.142   5.578   1.582 -0.0342  0.0126  0.0879
24604W        W43458   7.994  12.950   1.390 -0.3982  0.0614 -0.1041
24605W        W43459  13.975  10.158  15.387  0.1024  0.0685  0.0990
24606W        W43460   6.589   4.771   3.935 -0.1767 -0.1161 -0.1460
24607W        W43461  11.608   7.579   3.105 -0.0927  0.1570  0.0611
24608W        W43462   8.180  15.960   5.115  0.0612  0.0036 -0.0401
24609W        W43463   5.946   9.914  15.963 -0.1988  0.1543 -0.2946
24610W        W43464  10.144  16.649   3.454 -0.0591  0.0180  0.2033
24611W        W43465  15.628   0.505  16.251 -0.2007 -0.4653 -0.2510
24612W        W43466   1.172  16.711  15.524  0.0065 -0.1257 -0.2169
24613W        W43467   9.926   6.767  15.020  0.0427 -0.3419  0.4870
24614W        W43468  13.102   2.572   0.528  0.0826  0.0318  0.2105
24615W        W43469   5.874   8.612   0.644  0.1360  0.2076  0.0548
24616W        W43470   9.516   7.504   3.048 -0.1315 -0.0059  0.2432
24617W        W43471  13.180   2.615  16.514 -0.0917  0.2469  0.0056
24618W        W43472   8.039   9.417  15.934 -0.2416 -0.1788  0.3027
24619W        W43473   4.714   1.286  17.204 -0.0575  0.4243 -0.2268
24620W        W43474  14.144   1.009   1.532 -0.0997 -0.1175 -0.1189
24621W        W43475  15.490   4.278   4.017 -0.3319 -0.2970  0.2330
24622W        W43476  11.080  11.418   0.121  0.0212  0.0996 -0.2661
24623W        W43477   7.068   4.432   1.404  0.3617 -0.0511 -0.2086
24624W        W43478   6.196   1.397  15.803 -0.2066  0.0796 -0.0061
24625W        W43479  13.986   2.562   2.866 -0.0707 -0.1560  0.0319
24626W        W43480  16.496  11.341  13.094 -0.1998  0.2902  0.1709
24627W        W43481   7.734  14.487  12.294  0.3110 -0.2121 -0.3271
24628W        W43482   0.892  10.151  14.982 -0.2539  0.0281  0.1950
24629W        W43483   5.004  12.515   5.148 -0.2907  0.0435  0.2726
24630W        W43484  16.777   6.986  16.381 -0.0226  0.0473  0.1218
24631W        W43485  14.465   4.258   2.099  0.0212 -0.1662  0.4829
24632W        W43486   2.134  15.047   0.801 -0.0745 -0.1928  0.0749
24633W        W43487  16.599  14.268   1.050  0.2356  0.2126 -0.2239
24634W        W43488  12.105  12.900  12.592 -0.2108 -0.0592  0.0363
24635W        W43489  14.027  13.472   3.110 -0.1673 -0.0008  0.0012
24636W        W43490  10.197   5.702   3.185  0.0970 -0.2541  0.1673
24637W        W43491   2.490   6.451   0.955  0.1938  0.2334 -0.0402
24638W        W43492  13.665   2.907  14.090  0.0638  0.1628 -0.2030
24639W        W43493  12.861  11.149  15.023 -0.0779 -0.3531 -0.1162
24640W        W43494  15.895   1.604   4.870 -0.2912  0.4328 -0.1009
24641W        W43495   5.631   9.172   3.178  0.0667 -0.1603 -0.0497
24642W        W43496   2.084  14.699  15.622 -0.1186  0.1282  0.1514
24643W        W43497   8.935   6.862  15.358  0.0079 -0.3250 -0.2328
24644W        W43498   6.417  14.708   2.678 -0.0148  0.1086 -0.3544
24645W        W43499   1.226   6.424   3.801  0.1683 -0.1463  0.3552
24646W        W43500   7.404   4.467   5.291  0.2340 -0.0714 -0.3801
24647W        W43501  12.622   7.390  16.352 -0.1916  0.1499 -0.3563
24648W        W43502  11.147  12.546   2.179  0.1148 -0.3613 -0.3307
24649W        W43503   3.928   1.515   4.341 -0.1999  0.0705 -0.3466
24650W        W43504   9.058  12.565  15.590  0.1172 -0.1372  0.0553
24651W        W43505   4.131   9.855   3.049 -0.1116  0.0404 -0.0328
24652W        W43506   5.708   1.364  14.241  0.2727 -0.2462  0.3711
24653W        W43507  10.353  11.162   3.157  0.1266  0.5406  0.1800
24654W        W43508   3.937  15.779   2.608 -0.2139 -0.1920 -0.0260
24655W        W43509   4.384  12.105  11.832  0.2960  0.0827 -0.1720
24656W        W43510  13.357   6.122   2.347 -0.2876 -0.1321 -0.0889
24657W        W43511   9.612   5.398  16.660 -0.0058  0.1014  0.0580
24658W        W43512   9.556   2.537   1.988 -0.0696 -0.1036 -0.0639
24659W        W43513   0.650   5.687  12.300  0.1001  0.0473 -0.1096
24660W        W43514  14.309  11.770   1.400 -0.0138 -0.0797  0.0820
24661W        W43515   6.927  13.454  14.195  0.0672 -0.1357  0.1586
24662W        W43516   2.716   8.788  15.479  0.2331 -0.0911 -0.1032
24663W        W43517   7.954  12.053  12.114 -0.1444  0.0196 -0.0601
24664W        W43518   6.030   7.326  14.979 -0.0760 -0.1342 -0.1176
24665W        W43519  13.759   8.435   3.269  0.1154  0.1357 -0.2362
24666W        W43520  16.990   2.953  12.607 -0.1433 -0.0345  0.4262
24667W        W43521   3.263   4.253  13.035  0.0178  0.1473  0.2429
24668W        W43522   5.894  17.054  16.833 -0.0752  0.1469 -0.1428
24669W        W43523   9.528  15.089  14.817 -0.1137  0.0122  0.0965
24670W        W43524  10.727   0.504   3.070 -0.1497 -0.0805 -0.0595
24671W        W43525  16.624   0.110   6.091  0.1614  0.2534  0.1260
24672W        W43526   1.929  14.670   3.415  0.1305 -0.0226  0.0759
24673W        W43527   1.747   5.421  12.470 -0.1520  0.1526 -0.1334
24674W        W43528   0.790   8.575   0.103  0.0328 -0.2204 -0.1722
24675W        W43529  14.425  10.007  14.813 -0.1408  0.0879 -0.0059
24676W        W43530  13.410   5.059   2.534 -0.2924 -0.1973 -0.2734
24677W        W43531   8.280   5.498   0.295  0.0199 -0.0873  0.1949
24678W        W43532  17.162  16.820   4.108  0.2437 -0.2383  0.1537
24679W        W43533   7.726  10.178  16.836  0.0526 -0.0533 -0.0327
24680W        W43534  13.010   4.280   1.194 -0.0745  0.3016 -0.1050
24681W        W43535   2.061  15.818  15.474  0.1209 -0.1664  0.2229
24682W        W43536   3.425   1.384   0.906  0.0142  0.0628 -0.0244
24683W        W43537   5.746  11.889   5.244  0.1079  0.0519 -0.2521
24684W        W43538   8.902  13.326   1.743  0.1904  0.0014 -0.0282
24685W        W43539   3.687   6.835   4.305 -0.3316 -0.1774 -0.3647
24686W        W43540  16.024  14.600  12.755  0.0443  0.0475 -0.0034
24687W        W43541   8.315  14.917   4.201 -0.2141  0.0412  0.0977
24688W        W43542   9.785   3.798   4.672 -0.0170 -0.3014 -0.2057
24689W        W43543   7.063  11.137   3.496 -0.1736 -0.4043  0.1750
24690W        W43544   2.254  12.332   4.575 -0.3705  0.1030  0.0668
24691W        W43545   8.740   0.962   4.483  0.0578  0.1044  0.2436
24692W        W43546   9.020   5.049   5.550 -0.1470 -0.1391  0.0929
24693W        W43547  11.737   6.829  14.278  0.1270  0.0300 -0.2382
24694W        W43548  13.565  16.089   1.029  0.2737  0.0210  0.1072
24695W        W43549   5.002  14.040   1.431 -0.0882 -0.0923 -0.2671
24696W        W43550  14.907   1.751  12.593  0.1772  0.1746  0.0615
24697W        W43551  13.958   3.990   0.777  0.2020  0.0059 -0.0706
24698W        W43552   7.241   5.587   0.940 -0.0762 -0.1368 -0.0709
24699W        W43553  15.334  16.292   4.624 -0.1028 -0.2597  0.0797
24700W        W43554   6.523  11.428   1.384 -0.1121 -0.2983 -0.0121
24701W        W43555   0.610   6.239  13.077  0.1391  0.0370 -0.0871
24702W        W43556   8.556   8.729  12.559  0.0519  0.0288  0.0168
24703W        W43557  14.610   1.706   1.249  0.0175  0.0293 -0.0969
24704W        W43558  11.477   6.841  13.883  0.0791 -0.0206  0.0471
24705W        W43559  11.107   2.242   3.630  0.2986  0.2332 -0.1067
24706W        W43560   8.954  14.760  12.390  0.1417  0.2238  0.2176
24707W        W43561  12.824   7.227  13.309 -0.1114 -0.0228  0.2123
24708W        W43562   5.917  15.967   3.828  0.1622 -0.3766 -0.1376
24709W        W43563  13.206   5.960   4.599 -0.1235  0.1697  0.2809
24710W        W43564   0.692  12.943   1.075 -0.0353  0.0769  0.0406
24711W        W43565   8.670  11.360   2.201  0.0847  0.1743 -0.1480
24712W        W43566   4.295  11.539   0.238  0.1658  0.4785 -0.0406
24713W        W43567   3.614   1.712   1.313 -0.1211 -0.2597  0.1065
24714W        W43568   4.673   3.515  12.182  0.1214  0.0867  0.0574
24715W        W43569  17.062  16.298   0.869 -0.1385 -0.0630  0.0856
24716W        W43570  11.064  13.527  13.911  0.0849 -0.2340  0.1701
24717W        W43571  16.219  12.533  17.234 -0.1647 -0.0942 -0.0215
24718W        W43572   6.146  15.301  14.805  0.1722  0.2799  0.1482
24719W        W43573   6.615   0.924   4.447  0.0078  0.0176  0.3070
24720W        W43574  15.910  12.012   5.098  0.1683 -0.0544  0.0753
24721W        W43575  15.507  10.026   2.744 -0.1506  0.0704 -0.2362
24722W        W43576  16.471  12.112   3.416 -0.0410  0.0536  0.3702
24723W        W43577  11.426   0.133   3.807 -0.2862  0.1589 -0.1357
24724W        W43578  12.929   6.969  16.088  0.0815 -0.0355  0.0385
24725W        W43579  14.974   5.061   1.248 -0.1214 -0.1562  0.3388
24726W        W43580  11.871  16.533  12.348  0.3532  0.0054 -0.0920
24727W        W43581   4.137   0.736  15.838  0.0211  0.1096  0.0153
24728W        W43582  10.690  11.472  14.224  0.0235  0.2327 -0.1234
24729W        W43583   8.708   3.403   1.852 -0.1678  0.2146 -0.0095
24730W        W43584   7.030   6.103  17.035  0.2240  0.0637  0.2356
24731W        W43585   3.556  12.361   2.240  0.0208 -0.2730  0.2223
24732W        W43586  15.005   4.666   1.534  0.2357 -0.1376 -0.0490
24733W        W43587   6.154  14.131  11.870  0.0171 -0.3019 -0.0691
24734W        W43588  16.040   5.017   4.317 -0.1662  0.0668  0.3719
24735W        W43589   2.495   7.369   2.187  0.1708 -0.0070 -0.2106
24736W        W43590   0.981   3.791  15.496  0.0083  0.0144 -0.1403
24737W        W43591   6.719   4.528  15.026 -0.2810 -0.0297  0.1938
24738W        W43592   2.440  10.413  13.746  0.0141 -0.1872  0.1561
24739W        W43593   6.845   0.495  13.425 -0.1437 -0.3534  0.1322
24740W        W43594   1.746   2.351  12.393  0.1356  0.2239  0.2785
24741W        W43595   3.876   4.026   0.830  0.0664  0.2200 -0.0667
24742W        W43596  12.069  10.246   3.470 -0.0189 -0.2430 -0.0425
24743W        W43597   5.552   6.296  17.324 -0.0465  0.1240 -0.4370
24744W        W43598   1.355   7.634  13.156  0.0833 -0.2329 -0.1024
24745W        W43599   9.453   0.760   3.451  0.2786 -0.0671  0.2053
24746W        W43600   6.334  11.082   0.569 -0.2009 -0.1941 -0.1169
24747W        W43601  16.677   6.717  16.793  0.1630  0.0300 -0.1482
24748W        W43602   8.778  10.767   4.317  0.0332 -0.1491  0.1551
24749W        W43603  14.476   7.418   0.408 -0.2229 -0.0714 -0.0597
24750W        W43604   4.115   1.342   3.018  0.2719 -0.0073 -0.0208
24751W        W43605  10.763   6.756   2.812 -0.1994  0.2323 -0.1768
24752W        W43606   3.497   5.635   4.879 -0.0213  0.0824 -0.0670
24753W        W43607   1.628  14.006   1.622 -0.2183 -0.0233 -0.3378
24754W        W43608   7.049   2.334   2.812 -0.0696  0.0869 -0.0507
24755W        W43609   2.080  13.746   4.947  0.4038  0.0459 -0.0063
24756W        W43610   5.231  10.870  15.350 -0.0603 -0.3637  0.2844
24757W        W43611   4.196   6.389  13.274 -0.2176 -0.1539 -0.0932
24758W        W43612   8.306   3.290   2.062 -0.1359 -0.1050  0.1925
24759W        W43613  14.634   4.079   4.975  0.0802  0.2655 -0.2501
24760W        W43614   4.815   3.350   0.640  0.2738  0.0294 -0.0088
24761W        W43615  12.883  15.179   4.845  0.1407 -0.1323  0.0730
24762W        W43616  12.664  10.997  12.581 -0.3575  0.0353  0.1195
24763W        W43617   8.828   8.839  14.286 -0.1649 -0.0037  0.0523
24764W        W43618  14.818   3.963   3.098 -0.0212  0.2752  0.0647
24765W        W43619  14.611  11.095  16.016 -0.4595 -0.0563  0.1422
24766W        W43620  14.416   6.663   4.148  0.0365  0.0552  0.1463
24767W        W43621  10.018  11.393  17.357  0.0550  0.0011  0.1064
24768W        W43622  11.342   0.252   1.425  0.0378 -0.0344 -0.1998
24769W        W43623   7.610  15.424   2.257  0.1072  0.1193  0.0319
24770W        W43624   3.850   2.809   1.345 -0.0357 -0.3515  0.2026
24771W        W43625  10.740  11.520  13.194 -0.0314 -0.0745  0.2270
24772W        W43626   7.197   0.788   2.066  0.0151  0.0262  0.1376
24773W        W43627  15.848  10.078   0.886  0.3391 -0.2992 -0.0966
24774W        W43628  13.529  14.183  16.771 -0.0229  0.0423 -0.1746
24775W        W43629   1.302   3.879  16.327  0.1259  0.0313 -0.0814
24776W        W43630  15.824  14.469   0.060 -0.0603  0.1558  0.0410
24777W        W43631  12.564   2.505  15.244  0.2017  0.5109  0.0756
24778W        W43632   0.076  15.601   1.917 -0.2483  0.0261 -0.0072
24779W        W43633   9.984   8.603  12.968  0.1215  0.2082  0.0646
24780W        W43634   0.068   2.706  15.404  0.0721  0.2508 -0.0490
24781W        W43635   9.063   8.070   3.716  0.4233  0.0485  0.1026
24782W        W43636  11.432  11.905   4.535 -0.1243  0.0410  0.1144
24783W        W43637   3.134   1.512  11.708 -0.2172 -0.1422 -0.1236
24784W        W43638  15.998   8.848  15.040 -0.2992  0.1797  0.0163
24785W        W43639   0.333   8.807   1.819  0.0567  0.0884  0.0333
24786W        W43640   6.223   7.483   3.297  0.1185  0.2880 -0.0130
24787W        W43641  16.631   0.583  17.135  0.0218 -0.1067  0.0434
24788W        W43642  15.402  17.091  11.808  0.0671 -0.1587 -0.3650
24789W        W43643   1.422  10.851   1.336  0.0367 -0.2131 -0.1095
24790W        W43644   2.528  15.575   2.506  0.1213  0.0407  0.0503
24791W        W43645   8.439   8.250  15.911  0.1416  0.1365 -0.2644
24792W        W43646  10.475   7.107  14.494 -0.1048 -0.1313 -0.1602
24793W        W43647  16.594   9.615   2.393 -0.1244 -0.3565  0.1693
24794W        W43648   4.154   5.594  14.708  0.0325 -0.1807 -0.2264
24795W        W43649  13.491   1.084  13.800  0.3744 -0.2852  0.1694
24796W        W43650   9.504   9.151  13.705 -0.0203  0.0331  0.0540
24797W        W43651  12.613   4.079  13.534  0.1326  0.4346 -0.0935
24798W        W43652  15.491   5.383  14.789  0.0318  0.0039 -0.4029
24799W        W43653  12.610   7.415  12.293  0.0875  0.0378 -0.1685
24800W        W43654  13.835  10.517   2.342 -0.3024 -0.1088  0.3271
24801W        W43655   5.500   9.665   3.255 -0.0902  0.3721 -0.3207
24802W        W43656   9.033   6.836   0.454 -0.2372 -0.1427 -0.1943
24803W        W43657  15.517  14.493   0.913  0.1072  0.0144  0.0097
24804W        W43658  16.936   1.819   4.579 -0.0035  0.0425  0.2218
24805W        W43659   4.882   3.203   1.162  0.1505 -0.1229  0.1043
24806W        W43660  10.106   0.167   2.928  0.0206  0.0270  0.0752
24807W        W43661   3.522   5.417   3.280  0.1529 -0.0850  0.0944
24808W        W43662   4.019  12.315   4.071 -0.0391  0.0149 -0.4280
24809W        W43663  13.982   9.979   4.907  0.0443  0.3269 -0.2097
24810W        W43664   9.572   6.399   0.209 -0.1932  0.0248 -0.1612
24811W        W43665  16.552   2.650  12.545 -0.0138  0.0302  0.1782
24812W        W43666   0.729   6.735   3.001  0.4040 -0.2718  0.1891
24813W        W43667   7.955  10.676   5.541 -0.0913 -0.2923 -0.1156
24814W        W43668   5.277   5.257   0.181 -0.3717 -0.0009  0.1550
24815W        W43669   9.196   5.876  12.614  0.0344  0.1473 -0.1191
24816W        W43670  14.986  15.157  17.144 -0.1367 -0.1011 -0.0777
24817W        W43671   7.478   9.091   2.226  0.0608 -0.0111 -0.0133
24818W        W43672   2.981   0.352  16.402  0.2449  0.0433  0.0600
24819W        W43673   1.484  13.990   4.069  0.2242  0.1418 -0.1613
24820W        W43674  11.404  11.126  15.386 -0.1418 -0.0514 -0.1467
24821W        W43675  13.190   2.434  12.262 -0.0162 -0.0573  0.3123
24822W        W43676  10.841  12.166   3.449 -0.0031  0.2036 -0.4099
24823W        W43677  13.978   2.096  15.318 -0.5469 -0.0350 -0.1357
24824W        W43678   7.035  12.248  16.774 -0.2347  0.1990 -0.3127
24825W        W43679  16.740   2.668   0.040  0.1360 -0.2523  0.3295
24826W        W43680  14.400  13.159  16.509  0.2647 -0.0911 -0.2352
24827W        W43681   8.424   4.083  12.539  0.3239  0.0857 -0.0988
24828W        W43682   5.617   4.254   2.876 -0.1403 -0.2787  0.1066
24829W        W43683   7.352   2.945  14.137 -0.1376  0.0719  0.1394
24830W        W43684   1.914  15.407   3.975 -0.2024  0.0061 -0.1622
24831W        W43685  12.971   7.431   0.166  0.1446 -0.1410  0.0271
24832W        W43686   6.040  12.690   2.931  0.2641  0.1781  0.1323
24833W        W43687  11.298   9.861   4.556  0.0963 -0.0630 -0.0910
24834W        W43688   3.147   7.034   3.652 -0.0048  0.1048 -0.1301
24835W        W43689   1.989   0.575  16.179 -0.1823 -0.3186 -0.0174
24836W        W43690  17.115  11.461   3.519 -0.0453  0.0591  0.1082
24837W        W43691   3.873   0.446  15.187  0.2116 -0.4202 -0.0691
24838W        W43692  10.933   7.915   0.634 -0.2587 -0.1938 -0.1242
24839W        W43693   7.180   8.756  14.136  0.0571  0.0545 -0.2960
24840W        W43694   4.492   1.858   4.979  0.0778  0.1659  0.0165
24841W        W43695  14.841  10.823   3.769  0.3014 -0.2027  0.0005
24842W        W43696   7.031   2.765   1.900 -0.4820 -0.1583  0.2745
24843W        W43697   8.620   3.489  16.059  0.0014 -0.0894 -0.2917
24844W        W43698   5.123  10.648   1.473  0.0182 -0.1187  0.1436
24845W        W43699  11.728   0.377  17.066  0.0219 -0.1804 -0.2089
24846W        W43700   0.628  10.839   1.846 -0.0761  0.1423 -0.0520
24847W        W43701  17.272   1.298  14.625  0.0588 -0.2783 -0.0241
24848W        W43702  15.242   1.677  15.266 -0.0238  0.1495  0.0844
24849W        W43703   5.922   8.878   2.887  0.1882  0.0085  0.0567
24850W        W43704  11.719   0.835   3.413  0.0576 -0.2124 -0.2250
24851W        W43705   1.598  12.685   4.191  0.2511  0.1104  0.0800
24852W        W43706  13.425  10.320   3.562 -0.0250 -0.0237 -0.2190
24853W        W43707  15.856  14.468   4.954  0.1203 -0.0817  0.1419
24854W        W43708   9.300  15.836   4.942 -0.1574 -0.2590 -0.3367
24855W        W43709  12.998  15.750  14.738 -0.2587 -0.2136  0.0941
24856W        W43710  12.424   8.165   4.569 -0.0728 -0.0084 -0.0796
24857W        W43711  13.817   8.522   0.344  0.1102 -0.0357  0.0499
24858W        W43712  16.187   4.457   0.778 -0.0137  0.1528 -0.1187
24859W        W43713   5.029  14.530   3.352  0.0517 -0.1742 -0.0062
24860W        W43714   7.735   9.632  16.459 -0.2877 -0.2146  0.0188
24861W        W43715   3.117   5.454   3.847  0.2775 -0.1881 -0.0329
24862W        W43716   1.588   1.944  16.509  0.0381  0.1094 -0.0574
24863W        W43717   4.161   7.289  15.786  0.1861  0.1030 -0.0223
24864W        W43718   7.287  13.188   0.578  0.2715  0.1534  0.5737
24865W        W43719  16.040  12.244  15.211  0.0999 -0.2645 -0.0173
24866W        W43720  13.480   3.694   3.072  0.3715 -0.0233 -0.0347
24867W        W43721  10.922  14.478   3.881  0.0000  0.0842 -0.1858
24868W        W43722   9.253   3.386  14.875 -0.2009  0.2168  0.1371
24869W        W43723   6.180  11.945  13.409  0.0238 -0.1156  0.0853
24870W        W43724  13.734   8.705   0.804 -0.2842  0.3571 -0.2359
24871W        W43725   2.448   6.498  16.863 -0.0120  0.3555 -0.1404
24872W        W43726   2.353   3.970   1.113 -0.3756  0.1864 -0.4213
24873W        W43727  11.298   3.352   5.139 -0.0159  0.0816 -0.1273
24874W        W43728  17.296   1.031   4.662  0.0921 -0.3225  0.2057
24875W        W43729   6.455  11.849   3.940  0.0764  0.1420  0.1245
24876W        W43730  10.887   9.378   0.156  0.0681  0.4688 -0.0253
24877W        W43731   1.160   3.900  16.849 -0.0819 -0.1505  0.2343
24878W        W43732   3.820  10.095   2.647  0.1052  0.2463 -0.0555
24879W        W43733  15.973   9.487   0.129  0.1257  0.3148 -0.3132
24880W        W43734   1.326   7.733  15.563 -0.4345 -0.1452 -0.2296
24881W        W43735   7.188  13.074  17.064  0.0159  0.0386 -0.1256
24882W        W43736   4.369   9.976   4.764 -0.1002  0.2762 -0.1941
24883W        W43737   9.668  10.638   4.419 -0.2066  0.0229 -0.0944
24884W        W43738   2.634   6.344  14.790  0.3320 -0.2422  0.2336
24885W        W43739  11.563   1.202   2.254  0.0228  0.3082  0.1055
24886W        W43740   6.520  10.004  16.726  0.0083  0.1065 -0.0054
24887W        W43741   0.264  11.578   3.418  0.2120  0.2575 -0.1183
24888W        W43742  10.258  16.594  13.640 -0.2224  0.2326  0.0836
24889W        W43743   8.271   6.972  13.016 -0.0340 -0.2877 -0.2754
24890W        W43744   6.201  12.764  16.965  0.0561  0.0995 -0.3316
24891W        W43745   1.394   7.210  16.027  0.2254 -0.2080 -0.0213
24892W        W43746   8.816  13.158   4.128 -0.3191 -0.0575 -0.0417
24893W        W43747   4.945  12.474  15.819 -0.0531  0.1473  0.1964
24894W        W43748   1.635   2.609  13.224  0.0043  0.2552 -0.0121
24895W        W43749   8.984  15.889   4.150 -0.0796  0.3073 -0.0340
24896W        W43750   8.615   8.029   4.075  0.1233  0.3426 -0.1065
24897W        W43751   5.607   4.211  14.716  0.1341 -0.3343 -0.1636
24898W        W43752  12.326   6.344   4.777  0.2193 -0.0014  0.4582
24899W        W43753   2.878  14.894   2.068 -0.0354 -0.1858  0.2451
24900W        W43754  10.815   2.237  16.467 -0.0571 -0.0826 -0.2377
24901W        W43755  16.321   5.218   0.049  0.0939 -0.1155 -0.0861
24902W        W43756  10.989  14.638  15.215 -0.0216  0.1691  0.0807
24903W        W43757  16.572   8.640   3.315 -0.2856  0.0749  0.0075
24904W        W43758  14.642   3.789   1.365  0.0589 -0.2196 -0.1428
24905W        W43759   7.584   9.078  12.791 -0.1534 -0.0140 -0.1372
24906W        W43760   2.843  15.818   4.395  0.0477 -0.0134 -0.1485
24907W        W43761  10.501   7.454  15.365  0.0488 -0.2165  0.0083
24908W        W43762  16.562   8.200  17.340  0.1504 -0.3081 -0.2062
24909W        W43763  10.600   0.929   4.735 -0.2746 -0.0590  0.2203
24910W        W43764   5.767  11.799   0.571  0.2361  0.0304 -0.1831
24911W        W43765   4.912   8.935  13.023  0.1509  0.1782  0.1485
24912W        W43766   2.394   9.730   1.980  0.0044  0.1314  0.3109
24913W        W43767  14.935  14.072  13.646  0.0867 -0.0026 -0.2780
24914W        W43768   6.272   6.764   4.387  0.0655 -0.0496  0.3980
24915W        W43769  16.206   5.678   0.182 -0.1479  0.0227 -0.3264
24916W        W43770  15.214   2.931  16.886  0.0915 -0.1846 -0.1249
24917W        W43771  14.339   2.863  16.254  0.0718 -0.2506  0.0172
24918W        W43772   3.900  13.572   3.378 -0.0992  0.0330  0.0092
24919W        W43773  15.706   6.051   5.168  0.1071  0.1398  0.0570
24920W        W43774  13.806  11.689   0.002  0.2015 -0.1319  0.3869
24921W        W43775   8.333   9.039   1.616 -0.1736  0.1544  0.1125
24922W        W43776   3.609   4.707  12.896 -0.0451 -0.2307 -0.1425
24923W        W43777   5.511   0.915  16.827 -0.2391  0.3046 -0.1256
24924W        W43778   8.831   7.291   0.684 -0.2343  0.1615 -0.0586
24925W        W43779   6.951   6.948  15.679  0.0675 -0.2549 -0.0846
24926W        W43780   6.248   9.340   5.846  0.1428  0.1806  0.0796
24927W        W43781   0.964   6.226   1.471  0.1886  0.0090 -0.0331
24928W        W43782  14.028  14.330   0.513  0.0279 -0.0368 -0.1179
24929W        W43783   4.906  16.099  13.661 -0.0734 -0.1387 -0.1128
24930W        W43784  11.013   3.011   0.905  0.1772  0.3011  0.0361
24931W        W43785   4.374  10.281   2.818 -0.1006 -0.0190  0.0020
24932W        W43786   1.664  14.147   3.579 -0.1410 -0.3418  0.0608
24933W        W43787  13.346   6.569  17.087  0.0485  0.2546  0.2946
24934W        W43788  10.345  13.229  16.458  0.0858 -0.0025  0.2127
24935W        W43789   4.184  14.194  14.817 -0.1788 -0.0198 -0.0047
24936W        W43790   3.584   2.026   5.065  0.0519  0.1177 -0.0946
24937W        W43791  15.746   0.498   1.445 -0.1161  0.0631 -0.1384
24938W        W43792   3.083   7.039   1.273  0.1553 -0.1005  0.0235
24939W        W43793   6.256   3.549   2.770 -0.1949 -0.0803  0.0198
24940W        W43794   8.347   0.023  16.174  0.0208  0.3298  0.0045
24941W        W43795   4.943   3.745  16.411 -0.0904  0.2520 -0.2271
24942W        W43796  13.524   6.268  13.666  0.1107 -0.1613 -0.0512
24943W        W43797  10.518   1.419  15.819  0.1794  0.0052 -0.4548
24944W        W43798  13.941   6.525   3.957 -0.3091 -0.0294 -0.2542
24945W        W43799   3.216   1.532   3.808 -0.0599 -0.3048  0.0996
24946W        W43800   6.585   7.093   1.300  0.1114 -0.1031 -0.1528
24947W        W43801   7.716  12.811   1.741 -0.0402 -0.0223 -0.1772
24948W        W43802  13.270  10.514   1.146  0.1510  0.0907 -0.0304
24949W        W43803   0.148   5.027   2.400  0.0540  0.1229 -0.0643
24950W        W43804   4.186   3.409  13.575  0.0419 -0.1037  0.0922
24951W        W43805   3.001   6.765   2.662 -0.0664 -0.2206  0.1700
24952W        W43806  10.572  15.861  14.100 -0.2696  0.2553 -0.2608
24953W        W43807   4.850   3.417   4.731  0.1385  0.1527  0.0097
24954W        W43808  16.430   8.109  13.407 -0.1110  0.0256  0.1481
24955W        W43809   1.900   3.718  12.692  0.0326 -0.0043 -0.1551
24956W        W43810   4.831   6.322  14.881 -0.5228  0.0797 -0.0202
24957W        W43811  16.120   0.920   3.704 -0.0321 -0.0136 -0.1817
24958W        W43812   9.069   6.367   0.279  0.0281  0.2081  0.2058
24959W        W43813  14.937   1.751   2.396 -0.0652  0.3412  0.1515
24960W        W43814  16.325  11.315   2.913 -0.0585  0.0484  0.1705
24961W        W43815  10.470  10.856   4.512  0.1440 -0.2724  0.2426
24962W        W43816  16.769  16.485  14.876  0.1164 -0.1175 -0.1093
24963W        W43817   7.297  16.317  13.489  0.2044  0.0735 -0.2819
24964W        W43818  16.868   1.456  14.340  0.0263 -0.1815  0.0601
24965W        W43819   9.988  12.672  13.063 -0.0466 -0.2262 -0.0796
24966W        W43820  10.761  13.376  17.337  0.1132 -0.0522 -0.1220
24967W        W43821   8.041  10.567   5.034 -0.1742 -0.0174  0.0851
24968W        W43822  11.608  14.978   1.821 -0.2487  0.0958 -0.1264
24969W        W43823   7.592   4.757   3.984 -0.1009  0.1533  0.0529
24970W        W43824  14.066  11.979  15.889  0.0748 -0.1415  0.0393
24971W        W43825   7.963   9.504  12.726  0.0099 -0.0051 -0.0446
24972W        W43826  14.664   1.072   4.545 -0.3735 -0.1466  0.0914
24973W        W43827   6.098  17.251   1.233  0.1091 -0.1114 -0.1471
24974W        W43828  15.275  11.464  13.427 -0.2573 -0.2611 -0.1089
24975W        W43829   4.479  10.670  15.816  0.0646 -0.1095 -0.3824
24976W        W43830  10.541  15.468  16.976 -0.0366  0.0314  0.2209
24977W        W43831  12.032  11.348   4.234 -0.0891  0.0829 -0.0865
24978W        W43832  16.253  10.920   2.082  0.0706 -0.1495 -0.0774
24979W        W43833   2.771   9.281   4.486  0.2526 -0.1038  0.2289
24980W        W43834   4.186   7.192  17.413  0.0902 -0.1982  0.0266
24981W        W43835  17.155   5.232   0.454 -0.1371  0.0262  0.2150
24982W        W43836   9.526   9.656  15.408 -0.2151 -0.0481 -0.0040
24983W        W43837  14.860   9.374  16.115  0.3199 -0.1691  0.0579
24984W        W43838  10.440  17.138  14.929  0.1024  0.0423  0.1152
24985W        W43839  12.148  16.459  14.803  0.1648 -0.3095  0.1188
24986W        W43840  13.315   9.855  13.987  0.1000 -0.1500 -0.0534
24987W        W43841  10.327  13.625   4.295 -0.0116  0.0371 -0.0048
24988W        W43842   3.054   5.470  13.290 -0.2193  0.1908  0.2870
24989W        W43843   3.648   3.434  12.883 -0.0376  0.2149 -0.0026
24990W        W43844  10.815   0.927   0.490 -0.1501 -0.2330  0.3456
24991W        W43845   2.825   6.415   2.978 -0.0178  0.0749  0.3055
24992W        W43846   3.282  17.051   0.443 -0.0248  0.0422  0.1139
24993W        W43847   7.436   6.417   4.643  0.0480  0.1397  0.0928
24994W        W43848   1.884  11.320  12.489 -0.0680  0.2495  0.0139
24995W        W43849   7.951  14.288   1.757  0.2318  0.0123  0.0638
24996W        W43850   6.723  11.406  16.580  0.1195 -0.0101 -0.0009
24997W        W43851  15.525   7.215   0.954  0.0240  0.0374 -0.2645
24998W        W43852  13.015   3.405   3.019 -0.0253  0.3580 -0.2261
24999W        W43853   7.879   6.221   0.855 -0.0146 -0.4085  0.0418
25000W        W43854   4.975   4.115  13.878 -0.4101 -0.0811 -0.0511
25001W        W43855  11.745  16.694  14.614 -0.2623 -0.2934  0.0835
25002W        W43856  10.956   9.330   4.011 -0.0537  0.1304  0.0683
25003W        W43857  14.660  12.450   2.495  0.1879  0.1028  0.0069
25004W        W43858  13.669  15.317  13.621  0.0895 -0.1535  0.2541
25005W        W43859  15.774   6.309   4.375 -0.1900 -0.0279 -0.1412
25006W        W43860  13.536   7.861  15.547 -0.2430 -0.1189 -0.0434
25007W        W43861   2.406   5.300   5.665  0.0485 -0.1234  0.0176
25008W        W43862  13.441  15.351  16.082 -0.0592  0.2019  0.3341
25009W        W43863   2.298   3.368  16.415 -0.2155  0.0276 -0.2556
25010W        W43864   2.234   9.814   1.093  0.0374  0.1948 -0.0550
25011W        W43865   5.649   7.369   3.212 -0.0685 -0.4660 -0.0194
25012W        W43866  15.596  15.870  17.043 -0.1122 -0.3114  0.3625
25013W        W43867  11.559  12.112  16.622  0.0896 -0.1073  0.1088
25014W        W43868   0.045   9.207   0.123  0.1674 -0.1840 -0.1395
25015W        W43869  14.858  15.491   4.631  0.0695 -0.0784 -0.0797
25016W        W43870  13.424   5.715  14.478  0.0092 -0.0363  0.3413
25017W        W43871   6.557   2.124  13.396 -0.0403 -0.3996 -0.0811
25018W        W43872  16.675  14.081   3.902 -0.1306 -0.0489 -0.1458
25019W        W43873   7.678   4.991  16.626 -0.2976 -0.1517 -0.1723
25020W        W43874   5.726  13.416  15.143  0.2210  0.1248  0.0625
25021W        W43875   6.038   9.765  14.084 -0.2081  0.3724  0.1182
25022W        W43876   4.914   4.488   0.718 -0.0166  0.0826  0.1829
25023W        W43877  10.489   5.624   4.072  0.2584 -0.0300  0.1811
25024W        W43878   5.357   6.302   1.103 -0.0953 -0.0161 -0.1784
25025W        W43879   7.003  11.071  12.919  0.3878 -0.3461  0.0077
25026W        W43880   6.220  11.137  14.544 -0.1166  0.2188  0.3380
25027W        W43881  10.968   8.515  16.082 -0.1187 -0.0262  0.0484
25028W        W43882  11.445   3.969   2.499 -0.1080 -0.3544 -0.1695
25029W        W43883   5.493   9.199  12.581  0.3081 -0.2934  0.1542
25030W        W43884  13.598   7.759   0.494  0.0075  0.2126 -0.2113
25031W        W43885  11.773  10.907  13.936  0.1240 -0.1230  0.1346
25032W        W43886   5.532   5.447  13.384 -0.0813 -0.0004  0.2784
25033W        W43887  12.178  13.344  12.504 -0.0358 -0.1630 -0.1225
25034W        W43888  15.561   0.227  13.986 -0.0714 -0.1171  0.1598
25035W        W43889  12.498  14.447  15.738  0.0172  0.0027  0.3033
25036W        W43890  10.072   0.715  15.178 -0.0057  0.0134 -0.0387
25037W        W43891   5.390  13.799  16.389  0.2367  0.1216 -0.0108
25038W        W43892   1.313  12.858   0.464  0.1951  0.0024  0.2553
25039W        W43893   8.257  11.964  16.591  0.0108 -0.0995 -0.3301
25040W        W43894   2.828  13.601   2.806  0.2211 -0.2959  0.0554
25041W        W43895   9.213  15.413  16.607 -0.1293 -0.2825 -0.0648
25042W        W43896   5.668   3.648   2.174 -0.1445  0.1161  0.2311
25043W        W43897   3.930  13.102   2.582  0.2064 -0.2384  0.0134
25044W        W43898   6.951   5.291  15.524  0.0899  0.0510  0.2290
25045W        W43899   2.988  12.035  13.731  0.1495  0.1140 -0.2680
25046W        W43900  11.868   5.414   5.160  0.0243 -0.0064 -0.1379
25047W        W43901  11.868  14.227   2.899  0.1494 -0.0578  0.0443
25048W        W43902   5.026   9.460   4.401  0.0189 -0.1292  0.0365
25049W        W43903   8.475   9.687  14.674 -0.1600  0.1415 -0.0665
25050W        W43904   8.988   5.087   3.216 -0.0503  0.1293 -0.2280
25051W        W43905   0.080   9.282   2.121  0.0479 -0.0500 -0.2398
25052W        W43906   6.876   0.850  17.073 -0.0659 -0.0666  0.2207
25053W        W43907   2.284  13.725   0.916  0.2055 -0.3591  0.0040
25054W        W43908   6.100  15.054  15.245 -0.1112  0.0595  0.1307
25055W        W43909   8.849   8.338  15.624  0.0614  0.2070  0.0407
25056W        W43910   5.649   6.646  16.452 -0.0509 -0.0624 -0.1112
25057W        W43911   9.045  11.200   0.550  0.1464  0.2775  0.2695
25058W        W43912   6.672   6.351   2.885 -0.1513  0.0918  0.1349
25059W        W43913   7.094   0.610   2.686 -0.0930  0.3771 -0.0985
25060W        W43914   7.142  16.428  16.005  0.0352 -0.0158  0.0014
25061W        W43915  15.777   3.055   4.287 -0.0380 -0.1704 -0.0567
25062W        W43916   0.467   4.405   0.876  0.1209  0.1332 -0.1370
25063W        W43917  13.786   0.763  12.647  0.2710 -0.0126 -0.3001
25064W        W43918   3.541  16.530  14.605 -0.2721  0.1675  0.1707
25065W        W43919  14.823   5.455   0.945  0.1979 -0.2501  0.0001
25066W        W43920   6.236   9.788   6.048  0.0007  0.1277 -0.2123
25067W        W43921   4.408  12.770   1.819  0.3071 -0.2498  0.1971
25068W        W43922   0.049   9.552  13.852  0.0490 -0.0633 -0.1021
25069W        W43923   3.516  13.705  13.290 -0.0829  0.1956  0.1612
25070W        W43924  13.238   2.697   2.033 -0.3143  0.0910 -0.0800
25071W        W43925  15.220   7.912   3.383  0.0481 -0.0562 -0.1013
25072W        W43926   3.645   3.917  12.795  0.3967 -0.0784 -0.1220
25073W        W43927   5.838   8.836  15.088  0.0745 -0.0575 -0.0862
25074W        W43928   8.296   6.021   5.968  0.0479 -0.0686  0.2221
25075W        W43929  13.514   9.342   2.559 -0.2140  0.0854  0.1509
25076W        W43930   4.487  12.890  15.169 -0.0756  0.0326 -0.0691
25077W        W43931   7.993   0.472  14.153  0.0160 -0.0126 -0.1054
25078W        W43932  13.545   9.710  16.002  0.0175 -0.0418 -0.2922
25079W        W43933  12.431  10.678  13.417 -0.1150  0.2733  0.0268
25080W        W43934  17.200  15.305   2.903  0.0362  0.1690 -0.0438
25081W        W43935   0.028  16.723  12.698 -0.0576  0.0629  0.0164
25082W        W43936   5.641   5.259  14.403  0.1316  0.2199  0.2976
25083W        W43937   5.416   4.131   3.670  0.0881 -0.2482  0.1346
25084W        W43938   9.262   3.197  15.717 -0.3575 -0.2548  0.2834
25085W        W43939  12.718   4.340   2.150 -0.3461 -0.0767 -0.3079
25086W        W43940  15.857   0.302   2.919 -0.0392 -0.3117 -0.1810
25087W        W43941   4.623   9.437   3.016  0.1328  0.1553  0.1457
25088W        W43942  14.413  11.312   0.279  0.2779  0.0942  0.1181
25089W        W43943  13.610  11.360  14.031  0.0901  0.4839 -0.0916
25090W        W43944   6.052   0.915  15.946 -0.2224  0.1396  0.0725
25091W        W43945  11.077  11.693   3.573 -0.0723  0.2218  0.2248
25092W        W43946  12.214  12.408   1.318  0.1653 -0.0539  0.0699
25093W        W43947  11.112  16.948   1.030 -0.1029  0.0857  0.0971
25094W        W43948   6.622   7.248  14.354 -0.0453 -0.0145  0.1419
25095W        W43949  13.228   1.662   4.377  0.0496  0.0230 -0.0002
25096W        W43950  14.138   2.094  12.072 -0.2321 -0.0718 -0.1946
25097W        W43951   4.716  10.889   1.554  0.2639  0.0505 -0.1842
25098W        W43952  11.082   9.667   1.935 -0.3012  0.1414  0.1277
25099W        W43953   3.705   3.893  16.654  0.1461 -0.2030 -0.2389
25100W        W43954   3.143  12.900   3.488  0.1022  0.0339  0.3915
25101W        W43955  16.265   7.463  17.152 -0.2723 -0.0918 -0.2192
25102W        W43956   1.851   9.616   3.863 -0.0125  0.0327  0.0616
25103W        W43957   0.039   3.891  15.626 -0.0776  0.1836 -0.1228
25104W        W43958  13.151  16.900  15.511 -0.0766 -0.1985 -0.1053
25105W        W43959  12.019   9.897  14.880  0.0652 -0.1134 -0.0671
25106W        W43960   1.677   3.683   4.777 -0.2198 -0.1638 -0.0255
25107W        W43961  12.926  10.382  15.623 -0.2877 -0.1395  0.1471
25108W        W43962  13.540  11.959   0.906 -0.1088  0.1298  0.2950
25109W        W43963  10.517   1.412  13.633  0.0244 -0.0076 -0.2352
25110W        W43964   1.583  16.792  16.437 -0.0344  0.1973 -0.1978
25111W        W43965   2.323   9.930  16.234 -0.0088  0.0419 -0.0594
25112W        W43966   9.641  11.778  11.228 -0.1764  0.4088  0.2598
25113W        W43967  10.443  14.065  13.504  0.3284  0.0657 -0.0882
25114W        W43968  12.724   9.133  12.400 -0.0508  0.2478 -0.0110
25115W        W43969  12.110  10.694   3.694 -0.0545  0.2451  0.3383
25116W        W43970  12.280  15.166  11.959  0.0475  0.1953 -0.0952
25117W        W43971  10.996  12.401  17.182 -0.1826  0.1295  0.0742
25118W        W43972   3.812   9.518   4.527  0.1412 -0.1499 -0.1138
25119W        W43973   7.041  13.223  12.830  0.0729  0.0860 -0.1475
25120W        W43974  14.381   9.464  13.180 -0.0160 -0.0740 -0.1158
25121W        W43975  15.443   4.609  13.882 -0.1541  0.0634 -0.0097
25122W        W43976  15.886   3.760  15.526 -0.0085  0.1254  0.0202
25123W        W43977  15.435  11.583   1.911  0.1341 -0.0293 -0.0080
25124W        W43978  14.587  13.052   0.749 -0.3154  0.3359 -0.3949
25125W        W43979  15.886  16.661  15.791 -0.2082  0.0270 -0.1543
25126W        W43980  13.347  11.293  14.927  0.1611  0.2521  0.0335
25127W        W43981  17.283  16.345  16.026  0.0706 -0.2567  0.0515
25128W        W43982   8.311   5.999   2.256 -0.2694 -0.0921  0.2844
25129W        W43983   3.267  11.536  14.597 -0.1636 -0.0509 -0.1019
25130W        W43984  14.608   4.601   4.996  0.2114  0.0700 -0.2313
25131W        W43985  15.456  11.022   5.137  0.1402 -0.2432 -0.0536
25132W        W43986   0.528  12.452  16.315 -0.2396 -0.0620  0.0400
25133W        W43987   2.466   5.880   2.450 -0.1240 -0.1474  0.0866
25134W        W43988   7.608   7.866   0.587 -0.0937 -0.0351 -0.2414
25135W        W43989  10.725   4.346   1.007 -0.1538  0.1873  0.1900
25136W        W43990  11.161  12.433  16.613  0.0121  0.3333  0.1908
25137W        W43991   8.267  10.121  16.949  0.2279 -0.0093  0.2586
25138W        W43992   6.290  13.426  13.562 -0.1179  0.2100  0.0414
25139W        W43993  13.756   2.926  13.585  0.2277 -0.0276 -0.0003
25140W        W43994  16.820  14.971   1.608 -0.1564 -0.0383 -0.0563
25141W        W43995  16.553   1.648  16.471 -0.0387 -0.0400  0.0436
25142W        W43996  10.442   4.517   4.572 -0.0630  0.5221 -0.2190
25143W        W43997   7.646  13.205  13.908 -0.0621  0.3074 -0.0723
25144W        W43998  15.937   4.888   0.703  0.1829  0.0051 -0.1243
25145W        W43999   2.005   0.394  12.407  0.1119 -0.1365 -0.0029
25146W        W44000   7.952   9.390  17.308 -0.0019 -0.0968 -0.0874
25147W        W44001  14.166   1.313  12.646 -0.2486 -0.1702  0.2207
25148W        W44002   0.480   4.612   2.383 -0.1950  0.0503 -0.1340
25149W        W44003   6.604   1.337  14.351 -0.2763 -0.1155  0.0223
25150W        W44004   3.768  16.038   3.691  0.0523 -0.3364  0.0226
25151W        W44005   6.825  13.913   5.148  0.2382 -0.1833  0.0706
25152W        W44006  13.391  13.918   0.105  0.0950  0.0030  0.0558
25153W        W44007  16.854   4.202  13.280 -0.0017 -0.1147 -0.1025
25154W        W44008   0.036   1.181   3.093 -0.0165  0.0880 -0.0526
25155W        W44009   3.343   3.163   2.152 -0.0352 -0.3189 -0.3404
25156W        W44010  17.281  11.816   2.480 -0.0132  0.0403  0.1360
25157W        W44011  13.305  17.295  15.839 -0.0905 -0.0177  0.1531
25158W        W44012  15.281   2.877   5.011 -0.1821 -0.0902 -0.1929
25159W        W44013   5.936  15.304  13.943  0.1394  0.2930  0.1381
25160W        W44014  17.012  11.013  12.895 -0.1209 -0.0316 -0.0859
25161W        W44015  16.815  10.553  15.678  0.0252  0.0453  0.4770
25162W        W44016  16.735   7.182   3.628 -0.0864  0.2209 -0.1331
25163W        W44017  15.751   4.117   5.363 -0.0650 -0.0077 -0.0000
25164W        W44018   4.006   1.851   3.021  0.0177 -0.2536 -0.0615
25165W        W44019  14.329   1.953  13.323 -0.2817 -0.0987  0.0211
25166W        W44020   7.528   5.624   4.849 -0.0833  0.0304 -0.0046
25167W        W44021   9.484  15.292  15.762 -0.0785  0.2138 -0.1425
25168W        W44022   9.463   0.020  16.977  0.0334  0.2921  0.2297
25169W        W44023  17.127   7.372  17.125  0.1270  0.0737 -0.1204
25170W        W44024  17.334   2.566   1.446 -0.1381 -0.0392  0.1254
25171W        W44025   1.450   1.121   4.082  0.0932  0.1077  0.0758
25172W        W44026  10.174   4.410  12.484 -0.1710 -0.0357  0.5048
25173W        W44027   6.067  14.255   4.283  0.0055 -0.0674 -0.0639
25174W        W44028   4.038   7.792  15.108 -0.1804  0.1377 -0.0692
25175W        W44029  17.173  15.456  15.178 -0.1768  0.1764  0.0233
25176W        W44030  15.257   6.815  12.466  0.0851  0.2092  0.1149
25177W        W44031  14.441  12.792  16.146  0.1594 -0.2801  0.1108
25178W        W44032  11.183  11.666  13.995 -0.2813  0.3527 -0.2353
25179W        W44033  15.968   5.706  16.208 -0.0901  0.4276  0.2283
25180W        W44034   5.303   4.626  13.732 -0.1116 -0.2001 -0.3635
25181W        W44035  15.610   3.295   1.964 -0.1298  0.1850  0.1126
25182W        W44036  13.402   2.808   0.107 -0.1577  0.1363 -0.0297
25183W        W44037  15.434  12.703  13.565 -0.0467  0.1780  0.0054
25184W        W44038  12.685   3.585  16.624  0.1724 -0.0393 -0.0819
25185W        W44039  13.724   0.737  12.146  0.0775 -0.0294  0.0866
25186W        W44040   4.320   0.543   2.044  0.1505 -0.0654 -0.2101
25187W        W44041   6.337   3.741  13.820  0.3510 -0.0640  0.0803
25188W        W44042   8.337   8.149  15.439 -0.2723  0.0696  0.1375
25189W        W44043  13.208   4.380  14.539 -0.1327 -0.2785  0.0371
25190W        W44044   9.962   0.263   4.476 -0.0843  0.0658  0.1366
25191W        W44045  12.593  13.335  13.701  0.0231  0.3041 -0.0753
25192W        W44046   8.040   5.739  16.311 -0.0326  0.0348  0.0355
25193W        W44047  10.428  10.362  16.282  0.0025  0.1730 -0.2141
25194W        W44048  15.528  16.053  14.658 -0.1103  0.1129  0.0422
25195W        W44049  14.215   0.106  12.514 -0.0348  0.2136  0.1450
25196W        W44050   8.761  14.178  16.573  0.1983  0.1670  0.0141
25197W        W44051   8.383  12.442   0.550 -0.4250  0.0027 -0.1972
25198W        W44052   7.131   4.986   3.454 -0.1549  0.0755 -0.3076
25199W        W44053  14.687  12.084  13.261 -0.2180 -0.0011 -0.1042
25200W        W44054   9.448  16.753  16.421 -0.0595  0.2223  0.2347
25201W        W44055  17.061   8.731   3.113  0.0243  0.2098  0.0233
25202W        W44056   0.558  16.596   2.881  0.1459  0.1240  0.0127
25203W        W44057  16.623   5.338   0.462  0.2816  0.1432  0.5444
25204W        W44058   5.998  14.338  13.420  0.1278  0.0205  0.0930
25205W        W44059   3.935  10.114  15.247  0.0707 -0.0964 -0.3112
25206W        W44060  14.341   1.923  15.056 -0.1770  0.1766  0.1670
25207W        W44061   3.963  11.194  14.240  0.1358 -0.0500 -0.1354
25208W        W44062  17.026   6.310  16.936 -0.0346  0.1517 -0.0599
25209W        W44063   7.348   5.988   3.930 -0.2101 -0.3391  0.0261
25210W        W44064   7.378  14.856  16.578 -0.2465  0.2095  0.0388
25211W        W44065   4.777   9.357  14.425  0.0440 -0.2532  0.1763
25212W        W44066   0.027   8.936  12.801 -0.0831 -0.0014 -0.0058
25213W        W44067   2.964   7.813  16.260 -0.0458  0.1839  0.3760
25214W        W44068   3.172  12.153   1.884 -0.3235  0.3913 -0.2017
25215W        W44069  11.198  14.043  13.982  0.2219  0.1717 -0.1723
25216W        W44070  17.071   0.844   3.370 -0.0463 -0.4912 -0.2199
25217W        W44071   9.190   0.181   2.551  0.1162  0.0916 -0.0682
25218W        W44072  16.116  11.491  15.488 -0.0595 -0.2520  0.1630
25219W        W44073  11.889   1.070   0.142 -0.1026 -0.1789  0.0097
25220W        W44074   6.484   4.020  15.674  0.2060 -0.0466 -0.0177
25221W        W44075  17.097  13.580   3.334  0.1352 -0.0809  0.0274
25222W        W44076  16.126  10.919   0.823 -0.0725  0.3614  0.0745
25223W        W44077  13.272   1.117   2.709  0.1279 -0.1524 -0.2067
25224W        W44078   3.551  12.529  13.359  0.1808  0.0118  0.1049
25225W        W44079  16.377   0.453   3.824  0.0903 -0.0077 -0.1526
25226W        W44080   5.604  16.446   1.661 -0.3203 -0.0761 -0.1561
25227W        W44081   0.238  15.150   1.126  0.1002 -0.0703  0.1820
25228W        W44082   7.152  16.397   3.545 -0.0356 -0.0412 -0.1192
25229W        W44083   4.148   2.440   3.831  0.1187  0.1580 -0.0304
25230W        W44084   6.820   8.525  17.382  0.0200 -0.0885 -0.1278
25231W        W44085   5.139  10.745   4.246  0.2194  0.2181 -0.1271
25232W        W44086   1.845   4.930   2.282 -0.2362  0.2689 -0.0218
25233W        W44087   9.555   1.825  12.638 -0.3173 -0.0512  0.1681
25234W        W44088   1.211  11.906  14.024 -0.0049 -0.0242  0.3514
25235W        W44089  15.609  12.994  13.992  0.0589  0.0801  0.1834
25236W        W44090  12.050  17.013  17.078  0.3157 -0.0318 -0.0842
25237W        W44091   6.315  10.254  13.933  0.0658 -0.0380 -0.0968
25238W        W44092  11.886  13.164   0.639 -0.0436 -0.1620 -0.1815
25239W        W44093   2.318   6.365  16.412 -0.1008 -0.0221 -0.2400
25240W        W44094  10.433   0.611  15.584 -0.0436  0.0203 -0.1346
25241W        W44095   3.931  12.392  13.124 -0.2142 -0.2735  0.0318
25242W        W44096  15.355  16.390  13.307  0.0582 -0.0973 -0.1833
25243W        W44097  16.436   3.579  14.291 -0.0740 -0.1481 -0.0395
25244W        W44098   0.651   1.037  16.804 -0.1096 -0.2803 -0.0440
25245W        W44099   2.748  12.434  12.987 -0.0106 -0.2072 -0.1683
25246W        W44100  13.232   8.783   0.374  0.1567 -0.0184  0.0170
25247W        W44101   4.750  15.730   1.549  0.1485 -0.0302 -0.3038
25248W        W44102   7.084   2.538  16.085  0.0329  0.1920 -0.0807
25249W        W44103   2.000   5.937  16.345 -0.0073  0.0311  0.2417
25250W        W44104   3.018  12.028  12.799  0.2308  0.2590  0.3168
25251W        W44105  15.193  16.075  16.138 -0.5718  0.0712  0.1887
25252W        W44106   2.301   5.783  11.369  0.0115 -0.1630 -0.0744
25253W        W44107   7.520  15.717  15.029 -0.2763  0.0821  0.1405
25254W        W44108  13.409   6.640   2.433 -0.1469  0.1563 -0.2771
25255W        W44109   7.747  14.055   3.627  0.1012 -0.1279 -0.0661
25256W        W44110   8.702  11.326  14.912  0.0068  0.1336  0.1787
25257W        W44111   7.572   9.791  12.947 -0.0988  0.1669 -0.0946
25258W        W44112   8.141  14.049  16.433  0.0526 -0.1526  0.0729
25259W        W44113  13.104   6.345   1.060 -0.2808  0.0451  0.0093
25260W        W44114  12.899   9.623   3.149 -0.2202 -0.2161  0.0372
25261W        W44115   0.829  11.457   2.831 -0.1317 -0.0198 -0.0022
25262W        W44116   8.621   6.473  16.582  0.3134 -0.2480 -0.0595
25263W        W44117  16.312   4.936  16.958  0.0416 -0.0079  0.1424
25264W        W44118  14.957  13.572   4.610  0.2577  0.1022 -0.0745
25265W        W44119  12.190   9.727   1.430  0.2671  0.4421  0.1407
25266W        W44120  14.042   3.603  16.744  0.1020 -0.0988  0.0539
25267W        W44121   6.238   6.369  16.773  0.2554  0.0169 -0.1508
25268W        W44122  10.815  11.372  13.676  0.0809  0.0595 -0.0147
25269W        W44123   4.522   8.853   0.500  0.2157 -0.3198  0.1502
25270W        W44124  11.625   9.276  14.672  0.1242 -0.4410  0.0488
25271W        W44125  14.188   0.579  12.422 -0.1096  0.0920  0.0103
25272W        W44126  13.500   6.631   4.096  0.1286 -0.1691 -0.0412
25273W        W44127   5.744   8.372   5.136 -0.0245  0.3435 -0.1485
25274W        W44128   1.023   9.782   5.164 -0.2764 -0.3231  0.0106
25275W        W44129  13.449   2.986  15.764  0.1689 -0.1479  0.2571
25276W        W44130  14.523   8.001   4.978 -0.0430 -0.0583 -0.4548
25277W        W44131  14.568   9.511  13.730 -0.1508 -0.1893 -0.2378
25278W        W44132  16.310   5.947   3.455 -0.2218 -0.1577  0.2278
25279W        W44133  11.553   3.634  16.412  0.2066  0.3002  0.0678
25280W        W44134   3.722  10.731  14.102  0.2178 -0.0485 -0.0489
25281W        W44135   7.198   9.074  12.456 -0.2951 -0.2034 -0.0026
25282W        W44136  14.470   5.272   3.586  0.0347  0.0996 -0.1362
25283W        W44137   5.605   5.185   1.342 -0.0732 -0.4569  0.3712
25284W        W44138   3.171   3.082  16.506  0.0031  0.2276  0.0062
25285W        W44139  15.522   7.877   1.590 -0.1588 -0.1328  0.2026
25286W        W44140  14.796  11.612  13.286  0.4569 -0.0726 -0.0350
25287W        W44141   1.926   3.414  17.383 -0.1275 -0.1359  0.1155
25288W        W44142  16.062  11.465  16.296 -0.1682  0.0193  0.1314
25289W        W44143   2.172   4.051  15.967 -0.3531  0.1118  0.1976
25290W        W44144   5.273  15.189   0.732 -0.1597  0.0632  0.0817
25291W        W44145  12.940   4.158  15.025  0.2851  0.1245 -0.1941
25292W        W44146   5.308  14.924  15.005  0.0299  0.3039 -0.3100
25293W        W44147   0.487   4.307  12.409 -0.5642  0.0632  0.0897
25294W        W44148   5.568  10.858   1.128  0.3346 -0.0022 -0.2225
25295W        W44149   5.067   4.854   2.846 -0.0130 -0.1453 -0.3242
25296W        W44150  15.168  15.457  12.639 -0.2451 -0.2421 -0.0984
25297W        W44151  15.258   6.597  14.250  0.0440  0.1200  0.0299
25298W        W44152   0.864   1.781   1.863 -0.1160 -0.2292  0.2118
25299W        W44153   3.155   7.088  11.917 -0.0373 -0.0746 -0.0953
25300W        W44154  12.224   0.177   2.812  0.2020 -0.1826 -0.1111
25301W        W44155   1.675  14.036   5.067  0.0382 -0.1335  0.1834
25302W        W44156   3.763  12.901   0.769  0.2733 -0.2549 -0.0694
25303W        W44157   4.202  14.494  14.033 -0.3711  0.0310 -0.0148
25304W        W44158   6.606   7.526   5.220  0.0186  0.2013 -0.0690
25305W        W44159   5.785   7.189  16.469 -0.0634  0.1069 -0.0869
25306W        W44160   1.045  14.811   3.002  0.3440 -0.1684 -0.0404
25307W        W44161  11.847  13.293   3.587 -0.0623 -0.0673  0.0354
25308W        W44162  16.003  15.307   3.665 -0.1722  0.1638 -0.0753
25309W        W44163   1.749  11.493  16.336 -0.2485  0.0483  0.2650
25310W        W44164   1.741  12.484  16.698  0.3303 -0.0620  0.0880
25311W        W44165   3.646  16.663   4.228  0.0890 -0.3253  0.1265
25312W        W44166   0.041   1.699  13.372  0.4694  0.3539 -0.0065
25313W        W44167  11.905   7.045  15.032  0.1409 -0.0068 -0.3268
25314W        W44168   0.786   2.427  16.522 -0.2254  0.0750  0.1654
25315W        W44169  14.557  10.491  13.968 -0.2237 -0.2516 -0.0854
25316W        W44170  16.393   0.100  15.923 -0.3263  0.3766  0.2134
25317W        W44171   1.683   9.651  12.338  0.2475 -0.2613  0.0341
25318W        W44172   5.140  15.869   4.301 -0.2494  0.1040  0.1667
25319W        W44173   0.523   1.934   3.123 -0.2665  0.0122 -0.0903
25320W        W44174  16.999   4.470  12.484 -0.0287 -0.1274  0.1036
25321W        W44175  17.266   4.322  13.478 -0.3179  0.0215 -0.0988
25322W        W44176   5.305   3.563  17.381  0.0891 -0.1707  0.0952
25323W        W44177  11.514  12.417   4.472 -0.3034 -0.3342 -0.0726
25324W        W44178  14.144   5.072   1.705 -0.2050 -0.1628  0.0713
25325W        W44179  15.230  15.905  15.552  0.4257 -0.0257  0.0288
25326W        W44180   7.487   6.089   1.057 -0.0221  0.1472  0.0228
25327W        W44181  15.332  11.439  15.604 -0.0031  0.1258 -0.0571
25328W        W44182   8.434   8.413   0.887  0.1144  0.2719 -0.0097
25329W        W44183  13.744  16.711   4.309  0.0288 -0.0098  0.0883
25330W        W44184  14.535   6.551   0.394  0.1042  0.1395  0.1503
25331W        W44185   1.262  10.593  13.147 -0.4282  0.4795 -0.0710
25332W        W44186   4.141   7.305   3.566 -0.1238  0.0131 -0.0102
25333W        W44187   6.417  16.617   5.174 -0.0048 -0.1090 -0.1632
25334W        W44188  17.104   7.489  11.439  0.1468 -0.1462 -0.0105
25335W        W44189   2.346  16.886   3.000 -0.1904  0.2276 -0.3909
25336W        W44190  10.699  14.133  16.296  0.0144 -0.0030 -0.0110
25337W        W44191   2.629  13.048  16.426  0.1129 -0.2281  0.1300
25338W        W44192  15.889   4.331   2.740 -0.0466 -0.0991  0.3201
25339W        W44193   1.316  12.411   2.658 -0.3066  0.4363 -0.0433
25340W        W44194   3.692   9.553  13.333  0.3054  0.1903 -0.1253
25341W        W44195   1.161  14.990   3.487 -0.1157  0.0861  0.1532
25342W        W44196  11.811  10.796  17.095  0.0786 -0.0378  0.0524
25343W        W44197   9.397  14.614  12.112 -0.3391 -0.0162  0.0118
25344W        W44198   5.900  11.305  16.780  0.0572  0.0739 -0.0159
25345W        W44199   2.517   7.623   1.584  0.2711 -0.1004  0.0783
25346W        W44200  16.824   8.498   5.179  0.0483 -0.0829 -0.0345
25347W        W44201   5.819   9.978   3.424  0.1152  0.1336  0.1928
25348W        W44202   2.310   5.239   1.167 -0.0534  0.1830  0.0457
25349W        W44203   8.795   2.471   1.514 -0.0232 -0.1636  0.0431
25350W        W44204   7.494   2.918  12.426 -0.2129 -0.0476 -0.1647
25351W        W44205   6.631   3.364  13.696  0.0314  0.1929 -0.0542
25352W        W44206   4.115   1.844  13.175  0.1923  0.0978  0.1528
25353W        W44207   1.493  14.570   3.806 -0.2553 -0.4002 -0.1666
25354W        W44208   3.386   6.102   2.283  0.5039 -0.0951  0.2392
25355W        W44209   9.879   6.044  13.383 -0.1787 -0.1035 -0.0235
25356W        W44210  10.976  11.181  12.335 -0.1065 -0.0630 -0.2211
25357W        W44211  11.770   9.066   1.975  0.1486 -0.0213 -0.0009
25358W        W44212  10.808   5.136   2.954 -0.2002 -0.0112  0.1325
25359W        W44213   2.109   9.808   5.729 -0.0199  0.3367 -0.2233
25360W        W44214  10.830  13.688  14.729 -0.1277  0.0921  0.0606
25361W        W44215  15.342   1.498  14.710  0.2155  0.2303 -0.0198
25362W        W44216  17.059   9.067   4.999 -0.0029 -0.0821  0.2330
25363W        W44217  11.382  16.937  13.420 -0.0100 -0.1112 -0.3570
25364W        W44218  10.072  17.090  17.072  0.5020  0.0629  0.0357
25365W        W44219   3.893   1.188  15.819 -0.0337 -0.0196 -0.2083
25366W        W44220  16.154  16.019   0.996  0.0320 -0.1385 -0.0240
25367W        W44221   6.460   6.868   5.008 -0.3147 -0.1128 -0.2807
25368W        W44222  13.875   1.223  17.444  0.2813 -0.0801 -0.1892
25369W        W44223   0.302   1.665  17.099 -0.2470  0.0230 -0.2253
25370W        W44224   3.238   1.626  13.521 -0.1428  0.0129  0.1254
25371W        W44225   8.609   3.475   3.589 -0.1325 -0.2268  0.2366
25372W        W44226   9.750  16.566  13.555  0.1559 -0.3274 -0.0397
25373W        W44227   7.453  11.547   1.647 -0.1373  0.0355 -0.1197
25374W        W44228  14.366   2.907   4.997  0.0339  0.0720  0.0891
25375W        W44229  15.157   8.406  12.835 -0.0484 -0.3285 -0.0147
25376W        W44230   5.668   9.853  16.361  0.1162  0.0852 -0.0197
25377W        W44231  14.387  12.583  13.134  0.1938  0.3879  0.1408
25378W        W44232  17.265   9.501   0.980 -0.1386  0.1613  0.0531
25379W        W44233   5.429   0.804  14.311 -0.1497  0.1361  0.1733
25380W        W44234  12.514  11.422  17.406  0.3198  0.0923  0.2284
25381W        W44235   6.840   4.349  16.667  0.0289 -0.1034 -0.0051
25382W        W44236   8.153   1.879  17.082 -0.1672  0.2002 -0.2372
25383W        W44237   4.933  14.147   4.272  0.0707 -0.2466  0.2034
25384W        W44238   9.460  16.395  17.263 -0.1183  0.3505 -0.0493
25385W        W44239   9.744   0.940   3.037  0.1186  0.0599  0.1214
25386W        W44240   5.242  14.287  13.313  0.0353  0.1355  0.3316
25387W        W44241   0.178  10.679  13.039 -0.0823 -0.1034 -0.1555
25388W        W44242   8.214   8.405  14.215  0.0982 -0.3374  0.1572
25389W        W44243   0.958   3.672  16.021 -0.1478  0.1425  0.2567
25390W        W44244   6.028   6.961   0.818 -0.3847  0.2426  0.3394
25391W        W44245  11.618  16.374   5.320 -0.0363  0.2713  0.0091
25392W        W44246   8.251  14.636   1.830  0.0439  0.1397  0.0431
25393W        W44247   9.746   8.187   5.224 -0.5081 -0.1311  0.1672
25394W        W44248   9.833  10.417  12.741 -0.0877 -0.2964 -0.1397
25395W        W44249  12.031   0.208  15.432  0.0800 -0.1749  0.1110
25396W        W44250   5.462  17.267  16.636 -0.0563 -0.0085 -0.1018
25397W        W44251   8.440  12.171  17.024  0.0505 -0.0495  0.0547
25398W        W44252   9.146   9.269   2.959  0.4845 -0.0810  0.0089
25399W        W44253   6.270   7.614  17.195  0.0500 -0.2074  0.4672
25400W        W44254   3.314   6.239   0.726 -0.1749 -0.2823  0.1491
25401W        W44255   5.628  10.115  14.304 -0.1088 -0.0820  0.1103
25402W        W44256   8.327   9.521  13.344  0.2965  0.1416  0.1159
25403W        W44257  11.022  10.535   3.862 -0.1857 -0.0751  0.2086
25404W        W44258   6.154   0.626  12.341  0.1700 -0.1215 -0.1296
25405W        W44259  11.861  16.382  16.843 -0.1149  0.1183  0.0659
25406W        W44260  15.571   3.185  13.972  0.1202  0.0831  0.1244
25407W        W44261  17.274  15.905   0.629 -0.0329 -0.2007 -0.1291
25408W        W44262  12.700  14.611   0.877 -0.2753  0.0196 -0.1667
25409W        W44263   8.400  12.138   5.269  0.0385  0.3076  0.2182
25410W        W44264  11.415  10.180  12.686  0.0091 -0.0282  0.1050
25411W        W44265  17.102   5.779   3.838 -0.1493 -0.0732  0.1399
25412W        W44266  14.246   2.521   4.063  0.1170  0.5195  0.1761
25413W        W44267   2.362   1.936   1.084  0.0312  0.1471 -0.2216
25414W        W44268   1.394   3.888  12.660  0.0343  0.1500 -0.0571
25415W        W44269   3.914   3.407   2.595 -0.0619 -0.2440 -0.3619
25416W        W44270   4.140  17.249   4.547 -0.0882  0.0461  0.0510
25417W        W44271   4.923  16.384  15.279  0.1165 -0.0848  0.2580
25418W        W44272   9.727  14.738   2.308 -0.2946  0.2114 -0.3115
25419W        W44273  16.721   0.074  17.264  0.0559  0.2853  0.0339
25420W        W44274  17.270  14.931  13.280  0.1229 -0.3463 -0.2069
25421W        W44275  13.423   5.982   1.279  0.3329 -0.0991  0.0845
25422W        W44276  10.758   6.643  15.743 -0.0896 -0.2285  0.1913
25423W        W44277   8.641  11.711  17.397 -0.0200 -0.0147 -0.0158
25424W        W44278  16.216  16.563   6.100  0.1230 -0.2066  0.3104
25425W        W44279  15.093  15.883  14.997  0.0053 -0.1228 -0.3598
25426W        W44280  10.099   8.625   1.793  0.0134  0.0447  0.1153
25427W        W44281  17.323   7.449   5.723 -0.3128  0.1920  0.0035
25428W        W44282  12.731   0.547   3.865 -0.2241 -0.0269 -0.1041
25429W        W44283  17.200  14.715   2.998 -0.1142 -0.1042  0.1572
25430W        W44284   0.476  14.102   3.051  0.0657  0.0549 -0.1191
25431W        W44285   5.806   1.127  15.168  0.1489  0.0667 -0.0846
25432W        W44286  13.976   1.538   5.100 -0.1040 -0.0614  0.1095
25433W        W44287  16.389  15.248   1.532 -0.0867  0.0731 -0.1780
25434W        W44288   0.949  13.316  15.819  0.1002 -0.0455  0.1891
25435W        W44289   6.804  10.308   2.706 -0.0836 -0.0548  0.2285
25436W        W44290   3.023   7.005  16.839  0.0807 -0.0575 -0.0783
25437W        W44291   7.014   2.622   3.646 -0.3428 -0.1194 -0.0164
25438W        W44292   9.488   1.086   0.655 -0.0229 -0.1837  0.1038
25439W        W44293  15.416   0.164  14.952  0.0324  0.0118 -0.1157
25440W        W44294  11.297   6.812   3.733 -0.3401 -0.1664  0.0901
25441W        W44295  10.917   6.830  14.457 -0.2496 -0.0111 -0.0819
25442W        W44296  10.032   5.135  14.241 -0.0939 -0.1545  0.3541
25443W        W44297  12.894   6.165   3.187 -0.1228 -0.1217  0.1628
25444W        W44298  15.541   9.737  16.524 -0.0237  0.0077 -0.1244
25445W        W44299   8.924  14.021  14.420 -0.1223  0.0644  0.3330
25446W        W44300   6.248   4.694  15.000  0.1134 -0.2562 -0.0120
25447W        W44301   2.905   0.500  12.883 -0.0959  0.0614  0.2364
25448W        W44302   1.110  15.380   2.837 -0.3210  0.0695 -0.1127
25449W        W44303  11.017   1.412  13.427 -0.0537  0.1763  0.1981
25450W        W44304   5.268  15.992  15.098  0.0638 -0.0755  0.0836
25451W        W44305   4.029   6.608  14.500  0.2805  0.0149  0.0444
25452W        W44306  16.658   9.251  12.232 -0.1889  0.0965 -0.1387
25453W        W44307   0.924   3.733  12.769  0.1327  0.1484  0.1685
25454W        W44308   3.239  11.541   4.615 -0.0151 -0.2800 -0.1600
25455W        W44309  15.491  16.320  13.762 -0.0679 -0.0636  0.0380
25456W        W44310   6.235   7.487   1.437  0.0511  0.1231 -0.3675
25457W        W44311  11.138   3.585   0.396  0.2203  0.1294  0.1737
25458W        W44312  17.061   3.476  15.166 -0.0581 -0.0664 -0.2429
25459W        W44313   5.774  16.791   3.481 -0.0322 -0.1578 -0.1508
25460W        W44314   1.440   1.564   3.395  0.1626 -0.1811 -0.1744
25461W        W44315  12.727   2.685  12.925  0.0059 -0.1602 -0.1374
25462W        W44316  11.486   4.436  16.386 -0.0383 -0.0269  0.1225
25463W        W44317  11.640   1.243   3.769 -0.1489 -0.0705  0.0208
25464W        W44318  10.395   0.230  17.002 -0.2825 -0.2875  0.1238
25465W        W44319   7.971   9.820   2.624  0.3235  0.1374  0.1965
25466W        W44320  12.204  10.829  12.956 -0.0260 -0.2552 -0.2065
25467W        W44321  16.920  12.812   1.068 -0.0726  0.2260 -0.0695
25468W        W44322   3.455  17.300   1.034 -0.1340 -0.1041  0.0143
25469W        W44323  14.224   3.140  15.262 -0.3044  0.1681  0.1697
25470W        W44324   5.537   0.038  12.938 -0.2694  0.2796  0.2561
25471W        W44325   7.081   7.858  13.641  0.1686  0.0940  0.1091
25472W        W44326  10.277   8.155  16.111  0.2956  0.2153  0.0118
25473W        W44327   4.110   7.216   4.494  0.1504  0.3341  0.1982
25474W        W44328   5.301  13.813  12.229  0.4068  0.0713 -0.1738
25475W        W44329   3.834   3.595  14.453  0.3042  0.1317  0.4076
25476W        W44330   9.960   7.218   1.680 -0.1767  0.1027  0.3759
25477W        W44331   4.113  11.009   2.100  0.0887  0.3013 -0.1348
25478W        W44332   1.882   7.228  16.167 -0.1764  0.0227 -0.0749
25479W        W44333  16.541  12.258  16.111  0.0902  0.0292  0.2805
25480W        W44334  15.485   5.535   4.421  0.0650  0.0483 -0.1517
25481W        W44335  15.818   0.499   4.336  0.2181 -0.2425  0.0450
25482W        W44336  12.063   4.842   3.941 -0.0965  0.0202  0.2534
25483W        W44337  11.211  10.551  15.777 -0.1085  0.3614  0.0811
25484W        W44338   2.313  12.966   4.620  0.0169 -0.0387  0.0163
25485W        W44339   6.548  15.282  15.412  0.1701 -0.0462 -0.1678
25486W        W44340   3.151   8.888   4.102 -0.0548  0.1457 -0.0019
25487W        W44341  12.049   9.231   1.023 -0.2214 -0.0994 -0.2741
25488W        W44342  12.847   9.363   2.148 -0.1975 -0.0679  0.0156
25489W        W44343   0.439   8.677  12.933 -0.2124 -0.1862  0.0070
25490W        W44344  16.436  10.146   0.293 -0.0760 -0.1897 -0.1386
25491W        W44345   2.856  14.966   5.269  0.1038 -0.0183 -0.1293
25492W        W44346   6.248  16.951  13.613  0.1888 -0.0851 -0.0032
25493W        W44347  15.912   6.961   2.028  0.0502  0.1153  0.1974
25494W        W44348   6.547   1.687  12.518 -0.2811 -0.0985 -0.0273
25495W        W44349  15.993   5.814   1.328  0.0775 -0.0257  0.0140
25496W        W44350   9.878   2.832  15.207 -0.1097 -0.0988 -0.3463
25497W        W44351  16.627   3.493  16.065 -0.2831  0.0109  0.2450
25498W        W44352  14.717   3.072  16.957  0.0214 -0.2405  0.0007
25499W        W44353  10.858   0.691   2.177 -0.2571 -0.1270  0.1579
25500W        W44354  12.612  16.170   0.053  0.2697 -0.1368 -0.0264
25501W        W44355   2.184   4.476  15.563 -0.1790 -0.0740  0.1618
25502W        W44356   0.704  15.365  15.560  0.2547 -0.0707  0.1643
25503W        W44357   4.935  13.808  17.016  0.1233 -0.1060  0.1956
25504W        W44358  16.908  15.381  15.676 -0.0609  0.2927 -0.1825
25505W        W44359   7.983   0.987  16.039 -0.1355  0.0652  0.1958
25506W        W44360   9.105   7.055  16.678  0.1632  0.1990 -0.2859
25507W        W44361  12.253   2.386  13.766 -0.2128  0.0675  0.4679
25508W        W44362   1.345   8.982   1.750  0.2302 -0.1567 -0.3950
25509W        W44363   6.357   6.341   0.292 -0.1391  0.1924  0.0576
25510W        W44364  10.809  11.933   3.908 -0.0090 -0.2046  0.1171
25511W        W44365   9.172   3.358   0.235 -0.0444  0.1677  0.2156
25512W        W44366  17.021   2.313   3.300 -0.1415  0.1536  0.2595
25513W        W44367  13.066   2.271   3.499 -0.0526  0.1747  0.1374
25514W        W44368  10.185  11.652  14.160 -0.0684  0.0050  0.2692
25515W        W44369  16.419   9.058  15.283  0.1431  0.0298 -0.2530
25516W        W44370   2.150  12.289  16.434  0.0809 -0.0295  0.1352
25517W        W44371   4.182   3.517  14.064  0.2285 -0.2559  0.0739
25518W        W44372  17.146  15.519   2.372 -0.0415  0.1410  0.3053
25519W        W44373   5.552  15.242  17.215  0.3339 -0.0770  0.3040
25520W        W44374   6.319  13.589  12.589  0.0266 -0.1955  0.1414
25521W        W44375  15.096  16.474  15.348  0.0566  0.0777  0.0812
25522W        W44376  11.519   0.778  16.170 -0.0431  0.1551  0.3449
25523W        W44377   4.998  15.132   3.260  0.1539  0.0246  0.1087
25524W        W44378   2.586  14.953   1.037 -0.3038  0.1745  0.1086
25525W        W44379   1.261  13.262   1.031 -0.0162  0.1618 -0.0543
25526W        W44380   7.798   8.996   3.243 -0.3372 -0.2745 -0.1215
25527W        W44381  11.948   7.559  14.920  0.1855  0.0332 -0.0237
25528W        W44382   0.756   7.627  13.162 -0.1998 -0.2939  0.0193
25529W        W44383   2.497   7.941  12.422 -0.1276 -0.0494  0.1589
25530W        W44384  16.834  16.372  15.719 -0.0157 -0.3404  0.0322
25531W        W44385   6.163  12.596   3.922  0.1056 -0.2644  0.0525
25532W        W44386  14.294  13.861   2.948 -0.0746 -0.1913 -0.0125
25533W        W44387   1.035  13.416  14.793  0.0241  0.0850  0.0159
25534W        W44388  12.522   4.333   3.497  0.1423 -0.0718  0.0750
25535W        W44389   4.758   1.122   0.585  0.0926 -0.0298 -0.1066
25536W        W44390  11.531  17.314   0.143  0.1857 -0.2347  0.4220
25537W        W44391   7.191  16.719  14.872 -0.0716  0.0736  0.2359
25538W        W44392   5.580   7.147  15.142  0.0170  0.2007  0.0761
25539W        W44393   0.100   4.980   0.139 -0.1920  0.1062  0.0319
25540W        W44394   7.090  16.116   4.823  0.1827 -0.3048 -0.1268
25541W        W44395  12.217   4.662  15.700  0.4043 -0.1369 -0.3694
25542W        W44396   7.938   7.937   5.194  0.0886  0.3349  0.5003
25543W        W44397   3.155  11.292  16.817 -0.3105 -0.1253 -0.0125
25544W        W44398  14.507   3.490  15.620 -0.4067  0.1358  0.1704
25545W        W44399   0.295   2.129   4.060 -0.0040  0.1730 -0.1288
25546W        W44400  15.586   2.778  12.078 -0.2840 -0.1532  0.0460
25547W        W44401   1.943  11.819  14.705 -0.1266 -0.0452  0.0354
25548W        W44402   1.216  16.855  16.061 -0.0072  0.1417 -0.0199
25549W        W44403   3.195   1.007  14.184 -0.0221 -0.0822 -0.0098
25550W        W44404  10.731   2.644   0.958 -0.0810  0.1862 -0.0838
25551W        W44405   5.756  16.714  17.378  0.1918 -0.1287 -0.1333
25552W        W44406   0.496   7.969   1.413 -0.2319 -0.0080 -0.3588
25553W        W44407   1.241   2.175  13.946  0.1568  0.1691 -0.2978
25554W        W44408   0.658  16.509   4.728  0.4643  0.2372  0.0325
25555W        W44409   3.359   0.341  16.057  0.1167  0.2385  0.0718
25556W        W44410  11.743  12.983  14.500  0.1025 -0.0613 -0.1555
25557W        W44411  16.089  15.973  17.371  0.0573 -0.1081 -0.0326
25558W        W44412   6.944  13.995   3.764 -0.1037 -0.2257  0.3427
25559W        W44413  12.715   4.820   1.999  0.1676 -0.2989  0.0469
25560W        W44414  10.255   3.286   0.186  0.1230 -0.0605 -0.2441
25561W        W44415   5.243  14.660   4.717  0.0736  0.3894 -0.1006
25562W        W44416   9.991   4.273  13.620 -0.2388 -0.1937 -0.1071
25563W        W44417  13.316   9.566   5.188  0.1520 -0.0955  0.0251
25564W        W44418   9.820  15.470  12.907 -0.0649  0.0814  0.0695
25565W        W44419  10.371   4.218  11.666  0.1631  0.1707  0.0617
25566W        W44420  13.144   3.507   4.778  0.0815  0.1790  0.0477
25567W        W44421   5.630   3.227  13.559  0.1800  0.0163 -0.0809
25568W        W44422   6.607   4.058   5.187  0.0564  0.1997  0.0523
25569W        W44423  10.193  11.325   5.044 -0.2956  0.2677  0.2875
25570W        W44424  14.550  15.725  15.202 -0.2671  0.0317  0.0688
25571W        W44425  14.049   6.695  15.541 -0.0749 -0.1275  0.0234
25572W        W44426   6.024   5.116  12.317 -0.1642 -0.0253  0.2337
25573W        W44427   3.860  15.326  16.679  0.0174 -0.0087  0.1901
25574W        W44428  16.967   2.548  12.253 -0.0614  0.0816  0.1790
25575W        W44429   7.450   4.384  12.641  0.2625 -0.1028  0.0261
25576W        W44430  12.931   3.691  15.301 -0.3951  0.1547 -0.0729
25577W        W44431  16.589   1.339   3.439 -0.0346  0.0131  0.0413
25578W        W44432  12.520  12.693  14.113 -0.3377  0.0476  0.3160
25579W        W44433   9.358   0.730  16.034 -0.1171 -0.1114 -0.0717
25580W        W44434   8.727   7.311   4.760 -0.1521  0.0604 -0.1276
25581W        W44435   1.474   3.183   4.780 -0.1227 -0.0531  0.2510
25582W        W44436   2.084   7.318   4.587 -0.1579  0.0324 -0.2416
25583W        W44437   7.123   0.582  14.447 -0.0851  0.1101 -0.2360
25584W        W44438   5.892   3.763  14.706 -0.3125 -0.2328  0.2093
25585W        W44439  12.290  14.648  16.605 -0.2372 -0.1773 -0.0239
25586W        W44440  16.267   0.595  12.434  0.1055 -0.1246  0.1793
25587W        W44441   0.234   8.280  12.781  0.2768 -0.0314  0.0405
25588W        W44442  17.071  10.283   5.123 -0.0167  0.1296  0.0695
25589W        W44443   5.796   2.184   3.211  0.0897 -0.1343  0.4409
25590W        W44444   7.661  14.116   2.486  0.0814  0.4203 -0.3009
25591W        W44445   9.225   3.583  12.741  0.1265  0.1124 -0.0922
25592W        W44446  13.349  10.632  17.202 -0.0128  0.2644 -0.2739
25593W        W44447   6.064  11.353  17.244  0.0734 -0.0350  0.2417
25594W        W44448   4.711   0.030  17.310 -0.2398  0.1279 -0.0164
25595W        W44449   7.386   7.876  16.656 -0.0123  0.1852  0.3869
25596W        W44450   1.685   8.985  15.505  0.1998 -0.2049 -0.2051
25597W        W44451   5.395   8.987   3.603  0.2111 -0.1424 -0.0403
25598W        W44452  14.333  16.591  13.397  0.0740 -0.1674 -0.1473
25599W        W44453   3.570  10.938  14.822 -0.2242 -0.0956 -0.1250
25600W        W44454   1.626   0.295  12.735 -0.2346 -0.0475  0.1576
25601W        W44455   9.303  12.393   2.495  0.1670 -0.3841  0.1602
25602W        W44456   4.343   0.407  15.076  0.0013  0.2292  0.0566
25603W        W44457  14.285   4.646   3.666 -0.0940 -0.0755 -0.0266
25604W        W44458   2.289   5.831   4.470 -0.0591  0.1540 -0.1458
25605W        W44459  11.887   8.199   1.065  0.2216 -0.1921 -0.1460
25606W        W44460  11.095   8.365   0.616 -0.1128  0.0035  0.0556
25607W        W44461   5.654  12.553  15.454  0.0082 -0.1322  0.1337
25608W        W44462   6.350   6.128  14.357 -0.2090  0.1545  0.4465
25609W        W44463   4.662  15.316  14.422  0.0872  0.0266  0.1026
25610W        W44464   4.219  11.145   3.316 -0.0726 -0.0024  0.0719
25611W        W44465   8.523  11.153  13.103  0.1388  0.0886  0.1330
25612W        W44466  16.157  10.658  15.053 -0.2928 -0.0122  0.0903
25613W        W44467   7.359  12.805  14.144  0.1135  0.2146  0.2917
25614W        W44468  15.490   3.411   4.024  0.0707  0.0731 -0.1826
25615W        W44469  15.675   9.263  12.956  0.3020  0.0480 -0.4002
25616W        W44470  13.759   6.513  16.749 -0.1239 -0.0555 -0.1288
25617W        W44471  14.115  16.444   4.619 -0.0925 -0.0417 -0.1039
25618W        W44472   0.448   7.602   2.966  0.2056  0.0174 -0.0695
25619W        W44473  10.785   1.862  12.399  0.0240  0.1520 -0.0201
25620W        W44474  10.163   3.861  15.080 -0.0432  0.0114 -0.0179
25621W        W44475  16.170   1.351  17.190 -0.0338 -0.3851  0.1427
25622W        W44476  16.762  14.587  14.186  0.1975  0.2192  0.0468
25623W        W44477   9.793  13.844  14.220  0.1132 -0.0290 -0.3274
25624W        W44478  17.330  10.217  12.405  0.1569 -0.1793  0.0960
25625W        W44479   6.767  16.942  16.483  0.2485  0.0211 -0.0571
25626W        W44480  11.093   2.283  16.032  0.2757  0.0406  0.2238
25627W        W44481  16.741   3.432   5.030  0.2263  0.2283  0.4821
25628W        W44482   8.491   1.901  14.700  0.0324 -0.0940  0.0535
25629W        W44483   9.132   0.429   3.859 -0.0922  0.3535  0.2498
25630W        W44484  10.077   5.012  13.148 -0.2111  0.0133 -0.1762
25631W        W44485  16.611   8.474  16.245  0.0860  0.3183  0.2349
25632W        W44486  15.378   1.598   4.917  0.1307  0.0357  0.0803
25633W        W44487  12.445   7.897  12.289 -0.1517  0.1946 -0.2157
25634W        W44488   5.498   6.351  12.189 -0.1992 -0.0737  0.0245
25635W        W44489   4.901   0.569   0.644  0.0500 -0.0696  0.0196
25636W        W44490   5.547   2.854  16.952  0.4136  0.0515 -0.0859
25637W        W44491  16.077   5.787  15.300  0.1318 -0.0783 -0.2135
25638W        W44492   1.728  12.786  14.855  0.1760 -0.0771  0.2403
25639W        W44493  17.226   4.167  15.989 -0.1934  0.3942 -0.4162
25640W        W44494   9.796   7.883  13.560 -0.2228  0.0739  0.0521
25641W        W44495  13.435  14.596   4.906 -0.1976  0.2818 -0.2034
25642W        W44496   1.478   9.405  13.043  0.1620  0.0937  0.1798
25643W        W44497  13.656  13.560   3.427  0.1162  0.3441 -0.0178
25644W        W44498   1.832   3.931  15.553 -0.3275 -0.0936  0.2861
25645W        W44499  14.518   0.481   4.744  0.0006  0.0189 -0.2745
25646W        W44500   2.027  12.282  14.030 -0.1886  0.3212 -0.4035
25647W        W44501  11.709  12.083   3.083 -0.1503 -0.1857  0.2039
25648W        W44502   7.735   2.903  16.999  0.5523 -0.1929  0.3062
25649W        W44503  13.555   4.096  12.337 -0.1187 -0.2736 -0.0505
25650W        W44504   9.401   9.991  14.802 -0.0165 -0.0887 -0.0360
25651W        W44505   2.306  16.065  15.101  0.0292  0.1826  0.0211
25652W        W44506  16.728   3.683   0.763 -0.2356 -0.1944 -0.0401
25653W        W44507   9.822  14.198  12.806  0.2376  0.1361 -0.2119
25654W        W44508   4.001  17.137  13.005 -0.1004 -0.1171  0.1334
25655W        W44509   4.643  17.056   4.548  0.1721  0.1447 -0.0602
25656W        W44510   2.702   4.930  16.895  0.2228 -0.2734  0.0217
25657W        W44511  16.430  11.880   2.981 -0.0257  0.1437 -0.0926
25658W        W44512   8.508  10.413  13.103  0.0038  0.2989 -0.0268
25659W        W44513  16.924   5.554   0.817 -0.3768 -0.0088 -0.1837
25660W        W44514   5.862  10.585  12.844  0.2641 -0.0018 -0.0526
25661W        W44515  15.528   2.286   1.368 -0.0633 -0.2606  0.0381
25662W        W44516   0.986   4.774  17.230  0.1938 -0.0469  0.0129
25663W        W44517  15.750   1.271   0.602  0.3232 -0.0482  0.1560
25664W        W44518  12.930   4.389  13.081 -0.1360  0.1008 -0.1554
25665W        W44519  17.109   9.076   4.102  0.0287 -0.2618 -0.1853
25666W        W44520   6.964  15.992  14.686  0.2627  0.0471  0.2248
25667W        W44521  12.437   5.712  17.162  0.2045  0.0723 -0.1913
25668W        W44522   5.376   7.800   0.872 -0.2075 -0.2485  0.0564
25669W        W44523  14.409   7.097  14.748 -0.1864 -0.2761 -0.1698
25670W        W44524  11.803   2.384  15.426 -0.2911 -0.1102  0.1363
25671W        W44525   7.837   0.682   4.394  0.0829 -0.0157  0.0358
25672W        W44526   4.453  14.758   1.494 -0.0535 -0.1013  0.0819
25673W        W44527   5.572  13.871   0.737  0.0853  0.1785 -0.0463
25674W        W44528   2.985   8.717   5.061  0.0502 -0.0060  0.0437
25675W        W44529   5.308   4.108   0.745 -0.0472 -0.2458  0.2116
25676W        W44530  11.035   0.700   2.717  0.1811  0.1277 -0.2916
25677W        W44531  10.848  13.957   3.036  0.0669  0.0354 -0.0986
25678W        W44532   9.260   4.333  16.875  0.0551  0.1204  0.0363
25679W        W44533  12.246  15.468   2.512 -0.0025 -0.3452  0.0556
25680W        W44534  15.467   5.460   3.372 -0.0874  0.1687 -0.3335
25681W        W44535  10.366  14.561  13.315 -0.1274 -0.0863  0.0369
25682W        W44536  16.763   5.620  15.842  0.2893  0.1377 -0.3678
25683W        W44537   4.012   9.893  16.566  0.2071 -0.0904 -0.1005
25684W        W44538  14.567  11.415   2.343 -0.0422 -0.1415  0.0334
25685W        W44539  13.738   5.801  14.888  0.0230  0.0929 -0.0332
25686W        W44540   8.475   5.147   3.054  0.0051  0.1763  0.0609
25687W        W44541  12.343   9.583  14.967  0.0879  0.1362  0.2135
25688W        W44542   5.885  13.867   4.048  0.0017 -0.0395  0.0116
25689W        W44543   8.197  17.239   4.546 -0.0936 -0.1981  0.1894
25690W        W44544  13.142   0.474  17.004  0.0399 -0.0350  0.2497
25691W        W44545   2.427  15.753   1.186 -0.0112  0.2580 -0.0376
25692W        W44546  14.068   4.583   2.024 -0.1524  0.1061 -0.2229
25693W        W44547   4.355  10.830  14.237  0.0690  0.2012  0.1300
25694W        W44548   6.324  16.884  16.059  0.0807  0.1085  0.0173
25695W        W44549  17.188  13.256  15.366  0.0486 -0.1038 -0.5545
25696W        W44550  16.719   7.386   3.010 -0.1786 -0.1073 -0.1001
25697W        W44551   3.521  16.586   1.339  0.0735 -0.0691 -0.0370
25698W        W44552  16.184  10.212   4.270 -0.4301  0.0010 -0.1709
25699W        W44553   0.802   9.887  14.188  0.1371 -0.1353 -0.1225
25700W        W44554   4.559   7.864   0.507  0.0344 -0.0177 -0.0640
25701W        W44555  13.341  11.856   5.155  0.0179  0.0632  0.0857
25702W        W44556   1.470   0.579   1.546 -0.3615  0.0045 -0.2880
25703W        W44557  11.540   5.947   4.354 -0.2235  0.1021  0.0379
25704W        W44558  11.088  10.845  13.114  0.1841 -0.4754 -0.2309
25705W        W44559   4.867  10.252   4.684  0.0144 -0.4094 -0.0937
25706W        W44560   2.945   2.221  13.591 -0.1119 -0.1141  0.1018
25707W        W44561   7.688  14.406  14.315 -0.0246  0.2022 -0.1112
25708W        W44562   7.513  11.991  12.604 -0.1165 -0.0796 -0.1646
25709W        W44563   6.828   7.441   2.297 -0.3307 -0.0149  0.1899
25710W        W44564   5.134  10.176  14.208  0.0653  0.1368 -0.0032
25711W        W44565  12.941   1.374   3.199 -0.1345  0.1162 -0.2133
25712W        W44566   7.314   2.373   4.020  0.0413  0.3279 -0.0943
25713W        W44567  15.994   8.307   0.577 -0.0413 -0.1506 -0.1737
25714W        W44568  14.087   7.767   1.757 -0.0153  0.2580 -0.5576
25715W        W44569   1.421  16.637   0.305 -0.1264  0.0253  0.1207
25716W        W44570  14.905   5.947   3.938 -0.2701 -0.2548 -0.1333
25717W        W44571  14.529   8.503   2.819 -0.1100  0.0805  0.1574
25718W        W44572   1.040   1.547   3.719 -0.2926 -0.1172  0.2806
25719W        W44573  13.531   7.985  16.955 -0.1344  0.2192 -0.2413
25720W        W44574   1.808   5.914   2.994 -0.2105  0.3189 -0.0402
25721W        W44575   0.120  14.361   1.648  0.0712  0.3508  0.2207
25722W        W44576   1.781   3.147   1.072 -0.0873 -0.2139  0.1076
25723W        W44577  13.238  12.452  12.175 -0.2364  0.0032  0.0828
25724W        W44578  17.004   2.765  11.399 -0.2125 -0.1102  0.2704
25725W        W44579   2.422   0.418  12.723  0.0212  0.0525 -0.0053
25726W        W44580   3.302  17.022  16.880 -0.2170  0.1087 -0.1459
25727W        W44581   9.222   0.054  13.414 -0.1394 -0.1285 -0.3453
25728W        W44582   3.068   0.457   0.971  0.0620  0.1352 -0.0564
25729W        W44583   9.583   5.532  15.545 -0.1264 -0.1762  0.0120
25730W        W44584  14.913  11.990  17.205 -0.1242  0.0460  0.3036
25731W        W44585  11.889  17.068   4.679 -0.2479 -0.1225  0.0764
25732W        W44586   3.753  11.560  12.930  0.2283  0.2306 -0.0802
25733W        W44587  15.002   4.258   4.133 -0.0909 -0.0418 -0.0084
25734W        W44588   5.664  12.812   0.968  0.0850  0.1033 -0.2212
25735W        W44589  14.687  16.073  12.900  0.2101 -0.0536  0.1450
25736W        W44590   8.274   8.458   3.542  0.0939 -0.0967  0.1114
25737W        W44591   1.101  15.147   1.358  0.3746  0.2349  0.0433
25738W        W44592  17.092   4.892   2.093  0.0026 -0.1505  0.0746
25739W        W44593   3.611  11.623   2.594 -0.0995 -0.0220  0.2006
25740W        W44594  14.184   0.680   2.875 -0.1271 -0.0994  0.2940
25741W        W44595  13.368   1.315   4.780 -0.0529 -0.3122 -0.0691
25742W        W44596   4.540   1.649  13.367 -0.1571  0.0564  0.0976
25743W        W44597   1.445  16.960   0.671  0.3594  0.0166  0.2869
25744W        W44598   1.968   3.388   2.043 -0.2486  0.0125  0.0528
25745W        W44599   5.304  16.560  14.389 -0.4056  0.1668  0.1367
25746W        W44600   6.675   3.199   1.245  0.1119 -0.0347 -0.1449
25747W        W44601  15.699   9.378   3.251 -0.0984  0.0417  0.3364
25748W        W44602  13.229   7.015  13.125  0.0020 -0.1861 -0.0300
25749W        W44603   7.974   4.619   1.584 -0.1003  0.1785 -0.1326
25750W        W44604  12.265   7.314   1.670  0.1258  0.1102 -0.1530
25751W        W44605   6.812   3.114  17.179  0.1269 -0.1622  0.2658
25752W        W44606  14.414  11.404   4.625  0.0363  0.0228  0.0579
25753W        W44607  14.007   5.245  12.904 -0.1166 -0.1875  0.1194
25754W        W44608  11.361   1.457  13.738 -0.0321  0.1375  0.3969
25755W        W44609  13.117  15.427   2.504  0.1230  0.0328  0.1025
25756W        W44610   2.095   2.432  15.984  0.0317  0.0212  0.0744
25757W        W44611  17.103  16.864  14.810  0.5442  0.4044 -0.0569
25758W        W44612  11.456   9.137  12.950  0.2756 -0.0526 -0.4343
25759W        W44613   1.064   0.910  14.643 -0.0340 -0.1897  0.1343
25760W        W44614   2.645   0.648  14.887  0.1458  0.1208 -0.0687
25761W        W44615   8.978  12.561   4.829  0.1211  0.2512  0.0630
25762W        W44616  15.657  15.155   1.113  0.2794  0.1512  0.2374
25763W        W44617  17.330   1.731  15.482 -0.0069 -0.1162  0.2495
25764W        W44618   3.937   2.937   2.833 -0.2007  0.0165 -0.2974
25765W        W44619  17.243   3.046   3.109 -0.1184 -0.2681  0.0016
25766W        W44620  14.847   9.997   4.663  0.2146 -0.0940  0.0010
25767W        W44621   4.471   8.622   6.187  0.0984 -0.0286  0.2250
25768W        W44622   2.269  15.668   2.104  0.1926  0.1070 -0.0598
25769W        W44623  17.164  16.543   5.113 -0.2231  0.0990  0.0123
25770W        W44624   2.353   2.963  13.206  0.0063 -0.0637  0.0033
25771W        W44625   0.631   5.438   3.014 -0.1082  0.1173 -0.1536
25772W        W44626   4.882   8.858  14.221 -0.0824 -0.0763  0.2611
25773W        W44627   4.411   3.484  15.310 -0.3073 -0.0990  0.1270
25774W        W44628  14.825   4.358   4.614 -0.2023 -0.0517 -0.1853
25775W        W44629  15.462   0.797  13.239 -0.2508  0.2715 -0.0909
25776W        W44630   7.803   5.754   0.825  0.1345  0.0647 -0.1809
25777W        W44631   4.382   0.375  15.570  0.1234  0.1596 -0.1582
25778W        W44632   1.034   3.082   0.713  0.0576 -0.0848 -0.4213
25779W        W44633   1.181   2.929   2.694 -0.2639  0.0027 -0.0534
25780W        W44634   9.821   0.372   5.030 -0.1070  0.3691 -0.0188
25781W        W44635   7.161   1.094  15.195 -0.0624  0.2458  0.0846
25782W        W44636   8.590   7.957  14.680  0.1279 -0.0109  0.3204
25783W        W44637   4.719   5.784  14.183 -0.0650  0.0639 -0.1716
25784W        W44638  14.703   4.143  14.923  0.3129 -0.0902  0.0176
25785W        W44639   5.453   4.114  13.836 -0.2138  0.2783 -0.1613
25786W        W44640   0.780   7.931   5.251 -0.0849  0.1208  0.1073
25787W        W44641  14.246   0.139   1.775 -0.0433  0.0706  0.3146
25788W        W44642   8.812  13.684   4.070  0.1497 -0.3527 -0.0105
25789W        W44643   2.668   9.918  14.979 -0.3009 -0.0241 -0.0677
25790W        W44644   3.416   5.945   0.050 -0.1942  0.0455 -0.1393
25791W        W44645   5.299   9.721  17.108 -0.3234  0.0571  0.0492
25792W        W44646  13.662  11.288   3.375  0.2572 -0.0304 -0.1721
25793W        W44647  15.739   2.841   2.875 -0.0749  0.0489  0.2455
25794W        W44648   9.854   4.525  14.048 -0.1848  0.0333 -0.0856
25795W        W44649  13.644  15.034   4.108  0.0347  0.2302  0.0684
25796W        W44650   4.604   4.451  12.932  0.0032  0.0423 -0.1513
25797W        W44651   1.191  14.191  14.407 -0.0708 -0.0794  0.1590
25798W        W44652  11.538   4.061   5.054 -0.1197 -0.0956 -0.1624
25799W        W44653  16.444   0.956   4.734 -0.0917 -0.0474 -0.1965
25800W        W44654  14.687   3.389   3.303 -0.1595 -0.1791 -0.0434
25801W        W44655  10.980   1.186   4.459 -0.0997 -0.0721  0.0450
25802W        W44656   2.254   5.208  14.811  0.0883 -0.0498 -0.2779
25803W        W44657  15.875  11.996   3.009  0.0363  0.0263 -0.0749
25804W        W44658  12.905   4.802   4.229  0.0828 -0.1781 -0.0628
25805W        W44659   2.223   2.090  15.667 -0.2271 -0.4523  0.2738
25806W        W44660   6.053   8.103  17.376  0.1237  0.0710 -0.2337
25807W        W44661   9.994   6.435   0.715  0.1411  0.2607  0.0608
25808W        W44662   4.956  10.603  14.415  0.1687  0.3661  0.1959
25809W        W44663  13.314   9.050   2.911  0.2284 -0.4888 -0.0407
25810W        W44664  14.418  16.498   0.548  0.0664 -0.0021  0.0099
25811W        W44665   4.659  16.166  14.195  0.0019 -0.0441  0.2090
25812W        W44666  10.725  16.248   0.021 -0.0044 -0.1950  0.0111
25813W        W44667   0.015   7.234  15.682  0.5063 -0.0817  0.2503
25814W        W44668  13.449  12.164   1.974  0.2284 -0.0421 -0.1891
25815W        W44669   7.123  13.054   1.059 -0.0161  0.1425 -0.1906
25816W        W44670  11.790   0.427  14.152 -0.2049  0.3284  0.0728
25817W        W44671   9.719   9.247  14.615  0.0159 -0.1515  0.0812
25818W        W44672  14.530  13.982  15.946 -0.1628 -0.0924  0.0296
25819W        W44673  14.057   9.539  12.695 -0.1015 -0.3236 -0.1946
25820W        W44674  17.250   6.478  17.461 -0.2201 -0.4462  0.4309
25821W        W44675   6.230   2.449   0.083 -0.0151  0.0739 -0.0057
25822W        W44676  16.729  16.228  14.452 -0.1189 -0.1121 -0.1161
25823W        W44677   5.061   7.111  14.696 -0.2076 -0.0834 -0.0404
25824W        W44678  11.109  13.954  12.382 -0.4007  0.2978  0.1840
25825W        W44679  15.171   2.642   3.092  0.1744 -0.1423 -0.0149
25826W        W44680   7.215   8.894   3.408 -0.1685 -0.1532 -0.2803
25827W        W44681   2.342  10.762  15.071 -0.0638  0.1169 -0.0641
25828W        W44682   4.223   7.786   2.924 -0.0201  0.3736 -0.3054
25829W        W44683  12.159  14.771   0.981 -0.1233 -0.0442  0.1868
25830W        W44684  12.226  10.490  17.036 -0.2615  0.0622 -0.0421
25831W        W44685  14.892  11.085  16.861 -0.1434  0.1001 -0.1748
25832W        W44686  15.758   8.885  12.582 -0.3440 -0.1508 -0.4819
25833W        W44687   2.206   9.012  16.402 -0.0328  0.2255  0.0606
25834W        W44688   3.703  12.065   5.206 -0.0722  0.0137  0.1930
25835W        W44689  15.677  11.461  14.265 -0.0637  0.0998 -0.1206
25836W        W44690  10.952  14.796   4.429 -0.0051  0.2043 -0.1480
25837W        W44691  14.667   6.992  13.821  0.0826  0.2517  0.0113
25838W        W44692  12.018   0.474   1.917  0.1251 -0.1823  0.3121
25839W        W44693  16.879  15.390   3.889 -0.2232 -0.1213  0.3735
25840W        W44694   2.501  14.314  14.529  0.3140 -0.0552  0.0488
25841W        W44695  13.761   3.794   0.202 -0.0971  0.1828  0.0299
25842W        W44696   1.654   0.047  14.783 -0.0005 -0.0525 -0.2266
25843W        W44697  11.301   7.310  16.583 -0.2968  0.3227  0.0864
25844W        W44698   4.569  15.477  14.926 -0.2938 -0.5507  0.2316
25845W        W44699   7.339  12.154   2.313  0.0524 -0.4102  0.0732
25846W        W44700   9.533   2.047  16.808  0.1364 -0.1590 -0.3787
25847W        W44701   4.374   7.901   2.017  0.2670 -0.0551  0.0415
25848W        W44702  12.971  10.245   0.457  0.1073  0.0342 -0.1305
25849W        W44703  10.257   1.250  12.679 -0.1351  0.2373  0.0587
25850W        W44704   6.388   5.548   3.775 -0.0393  0.1933 -0.0775
25851W        W44705   8.097  13.564  14.614  0.4093 -0.0515 -0.0576
25852W        W44706   8.773   4.289  16.516 -0.0311  0.1766 -0.0164
25853W        W44707   0.616  15.498   0.581 -0.1379 -0.0109  0.2569
25854W        W44708   8.816   2.078   3.918  0.0436 -0.0844 -0.0240
25855W        W44709  12.169   5.262   2.087  0.2073  0.3563 -0.2751
25856W        W44710   7.161  10.633  15.650  0.1309  0.0743  0.2285
25857W        W44711   8.134  10.495  16.679 -0.2237  0.0732  0.1321
25858W        W44712   7.311   7.118  16.178  0.0699 -0.5080  0.0933
25859W        W44713   3.503  14.640   5.782 -0.2435  0.0927  0.3416
25860W        W44714  12.912   4.928   4.750  0.1587 -0.0287 -0.0181
25861W        W44715   8.361   0.748   4.240 -0.3788 -0.1058  0.1342
25862W        W44716  12.705  15.617  11.119 -0.4336 -0.0184  0.0671
25863W        W44717   7.644  14.204  15.218  0.1882 -0.0577  0.0603
25864W        W44718   1.471  16.412   1.802  0.1613 -0.1661  0.1965
25865W        W44719  10.169   0.886   3.287  0.1390  0.0185 -0.1391
25866W        W44720   9.096   2.185   1.859  0.1668  0.0768 -0.0684
25867W        W44721  10.450   3.454   1.456  0.0351 -0.0401  0.1075
25868W        W44722   6.464   9.174   4.093  0.2091  0.0101  0.0315
25869W        W44723  13.360   7.315   5.914 -0.1465  0.1424 -0.0195
25870W        W44724  12.552   5.078   3.835  0.0758 -0.1661  0.1318
25871W        W44725   4.805   4.770  15.577  0.2293  0.0962 -0.1609
25872W        W44726  15.431   6.738   2.564  0.1120  0.4044 -0.2033
25873W        W44727   7.688  17.016   3.230  0.1410 -0.0190 -0.3494
25874W        W44728   7.338   3.055  13.362 -0.0355  0.0387 -0.1400
25875W        W44729  17.161   4.829   4.973 -0.0518 -0.1305  0.1523
25876W        W44730   5.221  15.644   4.863 -0.1431  0.1981  0.0555
25877W        W44731   0.433   2.248  16.169  0.2052 -0.3187 -0.1045
25878W        W44732   3.822  13.623  14.180 -0.2750 -0.0169 -0.0994
25879W        W44733   9.575  14.572   4.707  0.1221  0.1279 -0.1701
25880W        W44734  16.982   4.352   4.941  0.1099  0.0118  0.6031
25881W        W44735  11.138  11.915  16.925  0.0953  0.0872  0.0526
25882W        W44736   6.272  11.406  13.360 -0.0564 -0.0375 -0.0770
25883W        W44737   4.700  16.857  12.467 -0.4890  0.0303 -0.3973
25884W        W44738  10.022  11.524   3.312 -0.3215 -0.1421 -0.0194
25885W        W44739   0.383   3.480   4.268 -0.0922 -0.3243  0.2363
25886W        W44740   0.340   7.573   2.437 -0.0903 -0.0804  0.1142
25887W        W44741  12.574  16.922  13.624  0.1969 -0.2828 -0.1693
25888W        W44742   9.042  13.407   3.717  0.0722 -0.3581 -0.0684
25889W        W44743  16.699  16.608   4.418 -0.0189 -0.0113  0.2990
25890W        W44744   1.512   4.526  13.920 -0.1376 -0.3533  0.0981
25891W        W44745  15.803   5.390   0.101 -0.1628 -0.2491 -0.1151
25892W        W44746   4.322   6.263  14.269 -0.2291  0.2021 -0.0425
25893W        W44747   0.175   1.673   4.308 -0.1215  0.2469 -0.4916
25894W        W44748   1.185   8.861  16.441 -0.0656  0.1653 -0.0905
25895W        W44749  13.948   8.052  14.257  0.0585 -0.0673 -0.1702
25896W        W44750  14.124  15.360  12.750  0.3509  0.1358 -0.0903
25897W        W44751   2.995   0.729  15.382  0.3381  0.1429 -0.0099
25898W        W44752  16.280   4.109   3.520 -0.0860  0.0759  0.2584
25899W        W44753  13.334  17.132  13.932 -0.1380  0.1666 -0.1406
25900W        W44754   6.394  15.412  12.465  0.4476 -0.2428 -0.2680
25901W        W44755   1.254   7.239   1.622  0.0298 -0.1155  0.1325
25902W        W44756  15.620   1.809   3.141 -0.2329  0.1360 -0.1353
25903W        W44757  16.874   6.815   4.512 -0.0152  0.2442 -0.0315
25904W        W44758  10.394  13.419  12.377 -0.4653 -0.0381  0.3253
25905W        W44759  15.983   1.842  14.486 -0.1963  0.1526 -0.0925
25906W        W44760  11.818  13.429  12.076  0.1238  0.1239 -0.3148
25907W        W44761   7.196  15.622  12.832 -0.2987  0.0341  0.2031
25908W        W44762   5.985  10.631  13.546  0.0219  0.0089  0.0311
25909W        W44763   0.966   2.682   3.354  0.1080 -0.1939  0.0178
25910W        W44764   8.616  14.387  17.449 -0.1429 -0.2955  0.0275
25911W        W44765  11.784   5.191   4.259 -0.2364 -0.2260 -0.3701
25912W        W44766   3.359   4.007  16.096  0.0772 -0.2373  0.0030
25913W        W44767   5.969   7.129  13.338 -0.1342  0.0707  0.2264
25914W        W44768  14.435   2.814  12.988 -0.2366 -0.0743  0.1078
25915W        W44769  10.916  11.589  12.700  0.0538  0.0056  0.1598
25916W        W44770   5.103   4.726  17.403  0.0338 -0.2284  0.1548
25917W        W44771   8.476   6.042  15.155 -0.0752  0.0826 -0.3134
25918W        W44772   7.827  13.089   5.063  0.1881 -0.1785  0.0124
25919W        W44773   2.355   3.015  13.751  0.2952 -0.0989  0.4539
25920W        W44774   6.360  13.113  13.057 -0.2743 -0.2615  0.0258
25921W        W44775  13.437  10.150   0.650  0.1791  0.3342 -0.0691
25922W        W44776  11.350   0.642  14.900 -0.1298 -0.2218  0.3495
25923W        W44777   5.871   7.096  14.100  0.0685 -0.1471  0.2433
25924W        W44778   8.856  14.963  17.148 -0.2750 -0.1790  0.0269
25925W        W44779   0.679   6.117   3.859  0.2749  0.0784 -0.0839
25926W        W44780  11.997   6.758  13.752  0.1380 -0.3254  0.0323
25927W        W44781   1.332   2.074  12.560  0.1863  0.0504 -0.1381
25928W        W44782   6.576   5.150   1.475  0.0212 -0.1418  0.2239
25929W        W44783  15.726   0.058  12.517 -0.3377  0.2087 -0.1367
25930W        W44784   2.044   5.541   0.026  0.1167  0.1842  0.0390
25931W        W44785   0.224  10.116   3.230 -0.2233 -0.1489  0.2841
25932W        W44786   1.475   1.290  13.754 -0.0242 -0.0705 -0.5180
25933W        W44787  12.028   4.286  15.318 -0.2761 -0.1893  0.0893
25934W        W44788   6.887   4.864   1.141  0.2529 -0.2842  0.0082
25935W        W44789   8.041  11.237   5.205 -0.3322  0.2318  0.2079
25936W        W44790   9.926  15.396  15.159 -0.0948 -0.1187 -0.0468
25937W        W44791  16.721   1.884  13.893  0.3415 -0.0577 -0.0242
25938W        W44792   2.670  15.770  15.350  0.1556  0.0387 -0.0505
25939W        W44793  15.759   0.580  12.423 -0.2208 -0.0463  0.1416
25940W        W44794   6.163   8.725   2.426  0.2880  0.1497  0.2295
25941W        W44795   8.838  13.730  12.431  0.0358  0.0000 -0.0645
25942W        W44796   8.862   8.693  15.303 -0.2413 -0.2772 -0.0636
25943W        W44797   8.623   1.500   3.246 -0.0454 -0.1288 -0.0799
25944W        W44798   6.201   5.379  12.693 -0.1069  0.1104 -0.1397
25945W        W44799  14.251   2.423   0.597 -0.2153  0.0410  0.0308
25946W        W44800   4.227   2.049   1.203  0.3257  0.0790 -0.0853
25947W        W44801   5.123  16.502   3.594  0.0349  0.2129  0.1086
25948W        W44802   7.682   9.329  15.138  0.0630  0.2311  0.1763
25949W        W44803   3.800   1.180  11.920 -0.4292  0.0658  0.0203
25950W        W44804  13.663   5.564   1.561  0.0033  0.1119 -0.1034
25951W        W44805  17.315   4.788   4.048 -0.0444 -0.0464  0.0460
25952W        W44806   6.302   4.076   1.064  0.1196 -0.0109 -0.2174
25953W        W44807  12.161  11.865   1.371 -0.0627  0.0947 -0.0023
25954W        W44808   3.262   4.200   1.356 -0.1485 -0.0301 -0.2043
25955W        W44809  11.119   2.738   5.764 -0.1655  0.1953  0.1266
25956W        W44810  12.290  16.542   0.753  0.1779  0.2245 -0.0638
25957W        W44811  14.724   9.546   3.248  0.0671  0.0765 -0.0336
25958W        W44812   4.330  12.416  14.987 -0.0574 -0.3264 -0.1989
25959W        W44813   8.038   5.318   2.919 -0.2570  0.0839 -0.1674
25960W        W44814   7.751   2.701   3.103 -0.1402  0.0662 -0.2057
25961W        W44815  10.425   5.042   5.868 -0.2390  0.0659 -0.1612
25962W        W44816   1.422   8.094  13.468 -0.0901  0.0445 -0.0756
25963W        W44817   4.932   2.751  17.457  0.1893  0.2204  0.1223
25964W        W44818  11.479  12.568  15.465  0.3147  0.0555  0.0121
25965W        W44819   7.821  13.875   4.993 -0.1159 -0.0351 -0.0118
25966W        W44820  15.142   8.512   0.225  0.0720  0.1891 -0.3147
25967W        W44821   4.381   9.899   5.309 -0.3309 -0.1389  0.0412
25968W        W44822  14.625  14.851   4.649 -0.0741 -0.2974 -0.0168
25969W        W44823   0.961   1.482   4.225 -0.0427 -0.3399 -0.3056
25970W        W44824   8.022   8.882  15.959 -0.0010  0.1208  0.0869
25971W        W44825   1.905  12.771  13.904 -0.0508  0.3047  0.0589
25972W        W44826   1.454  12.078   0.106  0.0338  0.3748 -0.0012
25973W        W44827   7.717  10.826  12.728 -0.1005  0.0966 -0.0254
25974W        W44828   8.926   6.390   4.426 -0.1767 -0.0041 -0.0270
25975W        W44829  15.098   4.925   6.107 -0.1716  0.1484  0.3351
25976W        W44830  12.688   1.926   3.564 -0.3724 -0.3321  0.1483
25977W        W44831   8.882  12.731   2.321  0.1715 -0.1669  0.4894
25978W        W44832  10.575   0.976   2.573 -0.0616 -0.4240 -0.1504
25979W        W44833  12.521   6.709   4.387  0.0947 -0.0185 -0.3815
25980W        W44834  12.378   1.379   5.130  0.0043  0.1113 -0.1648
25981W        W44835   4.160  13.346   1.328 -0.0397  0.0644 -0.0318
25982W        W44836   8.947  11.453   1.822  0.2057 -0.1297 -0.2184
25983W        W44837  17.078  15.368  13.353 -0.2140  0.3092 -0.0287
25984W        W44838  10.600   6.959  16.473  0.2705  0.1472  0.1213
25985W        W44839   5.821   0.731   0.893  0.0697 -0.0435 -0.1835
25986W        W44840   0.606  11.308   4.140 -0.0703  0.1314 -0.0089
25987W        W44841  10.764  12.680  16.839 -0.2151  0.0304 -0.2054
25988W        W44842  13.195  13.002   1.648  0.0744  0.0490 -0.0082
25989W        W44843   3.254  14.482   0.800  0.2533 -0.0239 -0.1631
25990W        W44844  12.206  11.814  17.286 -0.3178 -0.0205  0.0804
25991W        W44845   4.292  12.737   2.817  0.0200 -0.3052  0.0965
25992W        W44846  11.588   0.641   0.057  0.2083  0.0331 -0.1752
25993W        W44847  11.574  16.253   1.086  0.0714  0.2531 -0.2095
25994W        W44848   1.510   8.089   2.752 -0.0043  0.3244  0.4003
25995W        W44849  13.969  16.202  14.703 -0.0397 -0.0197 -0.2432
25996W        W44850  13.737   1.110   3.700 -0.0234 -0.1305  0.2670
25997W        W44851   7.135  11.426   5.202  0.0837 -0.0663  0.0775
25998W        W44852   6.678   6.670   0.136 -0.1162 -0.0075  0.0022
25999W        W44853   9.771   4.174  17.064 -0.3433  0.1755  0.1437
26000W        W44854   8.131   2.246  16.224  0.2555  0.1999 -0.0286
26001W        W44855  12.834  10.797  15.405 -0.0511 -0.3323 -0.0494
26002W        W44856   6.376   2.744  15.600 -0.3103  0.1641  0.1288
26003W        W44857   3.404  10.348   1.019 -0.2624  0.2153  0.0091
26004W        W44858  15.960   6.096   2.224 -0.4312  0.2903 -0.1326
26005W        W44859   5.171   6.895  17.420  0.1833  0.0498  0.1129
26006W        W44860   1.354  11.325  12.963  0.0508  0.0939 -0.3096
26007W        W44861   1.152  13.670   2.448  0.2121  0.2471 -0.1936
26008W        W44862  16.869   9.226  15.835 -0.1032 -0.1052 -0.3555
26009W        W44863   8.663   6.564  14.449  0.0372 -0.2607 -0.1819
26010W        W44864   7.007   5.682  13.959  0.0692  0.3627 -0.1474
26011W        W44865  15.975   3.920  14.347  0.2362  0.1633 -0.2052
26012W        W44866  10.324  11.206  15.630  0.2319  0.2392  0.0036
26013W        W44867  14.582   7.985   3.986  0.1240 -0.2560 -0.1834
26014W        W44868   8.654  12.615   3.550 -0.3953  0.1106 -0.1375
26015W        W44869  15.864   8.103   3.686 -0.3085 -0.2113  0.3882
26016W        W44870   8.491   0.623  16.386  0.1444  0.0340  0.0015
26017W        W44871   2.241  16.518   0.023  0.3205  0.1199  0.2674
26018W        W44872  15.400  16.741   4.787 -0.2193 -0.1067  0.0588
26019W        W44873   9.517   5.840   2.340 -0.0628 -0.1633 -0.3646
26020W        W44874   2.558   1.280  16.590  0.0660 -0.0939  0.0674
26021W        W44875   9.799  13.461  12.418  0.0635 -0.2386 -0.0459
26022W        W44876  14.246   8.667  13.291 -0.0380 -0.0470  0.0466
26023W        W44877  11.119  14.851  16.783  0.0313  0.0080  0.0486
26024W        W44878   2.539   3.113  12.486  0.1970 -0.0010  0.0157
26025W        W44879  13.329  16.831   3.521 -0.4785 -0.1753 -0.2740
26026W        W44880   2.437   0.288   3.711 -0.0905 -0.1126 -0.1802
26027W        W44881   8.166  12.500   2.699  0.1796 -0.3023 -0.4888
26028W        W44882  16.461  13.988  13.452 -0.1410 -0.2009  0.1010
26029W        W44883  16.277   1.539  12.676 -0.3310 -0.2271  0.1996
26030W        W44884  11.987   1.581  12.513 -0.0929 -0.0183  0.0276
26031W        W44885   3.232  14.541  17.073  0.0983  0.1746 -0.2334
26032W        W44886   5.880  12.748   0.394  0.2080 -0.0125 -0.0706
26033W        W44887  17.306   4.994  16.105  0.1869  0.0098  0.0378
26034W        W44888   3.150   5.608   4.373 -0.1252  0.2607  0.1606
26035W        W44889  16.653  15.617   4.275  0.2843 -0.0618  0.0236
26036W        W44890  13.461   3.504  15.397 -0.1697 -0.2146  0.1290
26037W        W44891   3.443   0.842  13.743  0.2765 -0.2152  0.0452
26038W        W44892  14.842  13.259  16.767 -0.0710  0.1956 -0.3444
26039W        W44893  10.502  11.367  16.138  0.0018  0.0074  0.1024
26040W        W44894   5.808   5.758   4.443 -0.0976  0.3590 -0.0261
26041W        W44895  10.684   3.622   2.273 -0.0538 -0.0509 -0.0250
26042W        W44896   1.405   8.109   1.805  0.0150 -0.0410  0.1066
26043W        W44897   7.691  11.235  16.888 -0.3158  0.1321  0.1573
26044W        W44898  14.716  11.559   1.189 -0.0763  0.0624 -0.0236
26045W        W44899   5.982   6.397   4.005 -0.0733  0.1155 -0.1570
26046W        W44900   1.201   9.718  13.763 -0.1579  0.2105  0.0478
26047W        W44901   6.992   9.699  14.075 -0.0830  0.1645  0.0171
26048W        W44902   3.589   1.749  14.612  0.2120  0.0803 -0.2806
26049W        W44903   1.879   7.458   0.964  0.1478  0.0561 -0.0770
26050W        W44904  12.266  10.166   2.491  0.0471 -0.1804  0.0780
26051W        W44905  16.172   2.589   2.960 -0.1140 -0.0697  0.0282
26052W        W44906  14.688   9.617  15.696 -0.0651 -0.3533  0.1984
26053W        W44907   1.448   6.286  12.483  0.0391  0.1971  0.1809
26054W        W44908   5.776   1.528  16.106 -0.1456  0.4654 -0.0999
26055W        W44909   2.239   7.213   3.777  0.0872  0.0808 -0.1807
26056W        W44910   9.349   2.528  16.838 -0.1740  0.1159 -0.1810
26057W        W44911  16.653  11.137  14.456 -0.1201 -0.1262  0.1422
26058W        W44912  11.542   8.570   5.175 -0.0565 -0.2497  0.1586
26059W        W44913  14.586   8.216   4.493  0.3050 -0.1052 -0.0427
26060W        W44914   0.573   1.187  15.427  0.1139 -0.0479  0.2654
26061W        W44915  11.332  11.607  15.566  0.0230 -0.0975 -0.1897
26062W        W44916   7.488   2.925   2.204  0.4030 -0.0896  0.0608
26063W        W44917   0.492   7.185  13.111  0.0610 -0.1254 -0.0199
26064W        W44918   1.645  12.994  14.256 -0.0473  0.0052  0.2582
26065W        W44919  12.790  16.199   3.146 -0.0620 -0.0129  0.1408
26066W        W44920   7.065   1.099  14.654 -0.3927  0.0709 -0.0438
26067W        W44921   0.940   5.193  12.855 -0.2032 -0.1686  0.2777
26068W        W44922  11.660   5.751   0.802 -0.5317  0.2787 -0.1893
26069W        W44923   3.135   4.144  14.369 -0.0729  0.2115 -0.0901
26070W        W44924  17.214  17.286   4.430  0.4600 -0.1323 -0.1867
26071W        W44925   4.674  12.650  17.145 -0.0692  0.0740 -0.2502
26072W        W44926   7.851  15.624  12.779  0.0998  0.3417 -0.0719
26073W        W44927   7.593   5.230   2.334  0.1314 -0.1704  0.1132
26074W        W44928  15.265  14.700  15.797 -0.2430 -0.0338 -0.0907
26075W        W44929   0.169  14.543  11.313  0.1461 -0.1275  0.1227
26076W        W44930   1.862  15.009  13.606  0.2935  0.1166  0.3884
26077W        W44931  14.767   2.002  13.544  0.0181  0.0769 -0.2351
26078W        W44932  14.884  13.706  12.284  0.0460  0.0893 -0.1653
26079W        W44933   1.919  12.646  12.577  0.0652  0.3103 -0.1089
26080W        W44934  12.147   1.181   3.664 -0.2437 -0.1229  0.0068
26081W        W44935   7.999  14.498   1.304  0.1392  0.1630  0.2367
26082W        W44936  13.231  12.317   0.664 -0.0140 -0.4011  0.3023
26083W        W44937  11.164   2.901   5.294 -0.0813  0.0636 -0.1612
26084W        W44938  10.603  16.892  12.177  0.0299  0.0197 -0.1328
26085W        W44939   8.038   9.987   3.158 -0.1242 -0.3054 -0.1137
26086W        W44940  16.313  17.035   1.920  0.0489 -0.0610  0.1992
26087W        W44941  14.609   5.694   2.856  0.1590 -0.0316 -0.0888
26088W        W44942   2.078   5.166   3.699 -0.2531  0.1253  0.1765
26089W        W44943   0.735  17.079   3.367 -0.3211 -0.1082  0.1130
26090W        W44944   7.263   4.202   4.824  0.1605 -0.1843  0.1373
26091W        W44945   9.581   8.398  16.614  0.3555  0.1389 -0.0296
26092W        W44946  10.589   2.248  15.915  0.1480  0.2878  0.0590
26093W        W44947   2.265   6.671  14.961 -0.0605 -0.2884 -0.0129
26094W        W44948   8.567  13.106   3.598 -0.2930 -0.0800 -0.2485
26095W        W44949   6.376   1.704   1.394  0.0325 -0.2054 -0.0292
26096W        W44950   7.061   6.492  16.160 -0.0733  0.0672 -0.3712
26097W        W44951  13.217   7.599  17.212  0.0314 -0.3148 -0.0096
26098W        W44952  11.372  13.360   1.269  0.1724  0.2779  0.2269
26099W        W44953  10.786   7.361  16.699  0.0535 -0.1627 -0.0130
26100W        W44954  16.856  11.197   4.322 -0.0255  0.3685 -0.0178
26101W        W44955  10.880  16.824   2.955  0.2186  0.3890 -0.2452
26102W        W44956   3.375  15.730   1.399  0.0681  0.1147  0.0733
26103W        W44957   2.135   5.929   2.025  0.2345  0.4006 -0.1579
26104W        W44958  14.668   5.132  13.964 -0.3563  0.0532  0.0040
26105W        W44959   1.009  12.636  12.705 -0.0517 -0.0264 -0.0890
26106W        W44960   0.765   0.316  13.793  0.0625 -0.0241 -0.2007
26107W        W44961   4.171   2.941  13.255 -0.0556 -0.2744 -0.1484
26108W        W44962   4.126   7.466   1.426 -0.0819 -0.1921  0.1496
26109W        W44963   4.548   8.037   4.466  0.3060  0.0569 -0.0668
26110W        W44964  13.711   5.282   3.284 -0.0841 -0.3756 -0.0133
26111W        W44965  11.370   5.667   1.855  0.0024  0.1705 -0.1001
26112W        W44966   6.255  11.877   3.384 -0.1688  0.3147 -0.1449
26113W        W44967   6.610   2.989   2.131  0.0388 -0.2827 -0.0755
26114W        W44968   4.654   2.737   1.812 -0.1900 -0.0515  0.2869
26115W        W44969   5.413   1.160  17.432 -0.1957 -0.0271  0.1631
26116W        W44970   1.887   7.801  14.880  0.1831 -0.1180  0.0158
26117W        W44971   6.835  14.776  14.056 -0.1693  0.1873  0.0300
26118W        W44972  12.752   3.419  16.136  0.2065  0.1348 -0.0279
26119W        W44973   1.150   7.751  16.857 -0.1036 -0.0132 -0.1011
26120W        W44974   5.550   4.388  17.331 -0.0664 -0.2499 -0.3130
26121W        W44975  12.685   3.859  15.768 -0.0518 -0.1338  0.1560
26122W        W44976   1.956  14.149   4.053  0.1782  0.0598 -0.0121
26123W        W44977   7.050  12.702  14.707  0.0128 -0.0145  0.0338
26124W        W44978   9.954  11.565   4.322 -0.0708  0.1488 -0.3787
26125W        W44979  12.850   6.646  16.918 -0.3535 -0.1722  0.1341
26126W        W44980   0.180  11.938  12.113  0.0017  0.1450 -0.1580
26127W        W44981  13.564   5.953  15.380  0.3433  0.1382  0.1842
26128W        W44982   8.800   4.387   0.971 -0.2890 -0.1433 -0.0451
26129W        W44983  11.165   0.347   0.036 -0.2207  0.1663 -0.0252
26130W        W44984  14.644  11.233   4.004  0.0270  0.0225 -0.2862
26131W        W44985   6.633   8.596  13.458 -0.0709 -0.2236  0.0746
26132W        W44986   8.928  16.183   4.676 -0.0513  0.0046 -0.0025
26133W        W44987   7.065   8.668   5.000  0.3060  0.2402  0.1226
26134W        W44988   7.204   5.868   4.581  0.1260  0.0301  0.4540
26135W        W44989   4.618   4.787   4.445  0.0947 -0.0008  0.1520
26136W        W44990  11.576  16.866  16.816  0.2412  0.2469 -0.0169
26137W        W44991   4.609  12.762  12.828  0.0027  0.2037 -0.6086
26138W        W44992   5.919   1.954  15.837 -0.3469 -0.1195 -0.1411
26139W        W44993   3.628  14.485   1.997  0.1540 -0.0666  0.2410
26140W        W44994  15.876  16.611   4.601  0.0969  0.1696 -0.2251
26141W        W44995   4.399   0.811   4.763 -0.5466 -0.1287 -0.0840
26142W        W44996  11.001  17.001  16.965  0.0404  0.1083  0.4237
26143W        W44997   0.010   1.219   0.601  0.3771  0.4342  0.0353
26144W        W44998   6.507   7.779  14.300 -0.1303  0.0415  0.0241
26145W        W44999   1.909  16.692   4.401  0.0247 -0.2427  0.1678
26146W        W45000   1.434  10.377  14.798 -0.1913  0.1616 -0.3100
26147W        W45001   5.387  12.971  16.023 -0.0642 -0.1132  0.0715
26148W        W45002  10.311  15.546   3.856 -0.0418 -0.0011  0.1234
26149W        W45003   9.158  14.030   4.309  0.0608 -0.1329 -0.2573
26150W        W45004  16.000  10.059  12.786 -0.1396  0.0136 -0.1047
26151W        W45005   2.073   3.767   3.874  0.0691  0.0463  0.0619
26152W        W45006   5.361   0.982   2.344 -0.0055 -0.1882  0.0798
26153W        W45007  14.753  13.550   2.914 -0.2310  0.0512  0.0589
26154W        W45008  10.855   3.507   5.296 -0.0306  0.1568  0.0868
26155W        W45009  10.511   4.187   0.537 -0.1488  0.0222  0.1767
26156W        W45010  11.006   5.557   1.518 -0.1542 -0.0597  0.1560
26157W        W45011   7.678   6.144   3.249 -0.2137 -0.0643 -0.0169
26158W        W45012  11.184  16.380   0.248 -0.0050 -0.0015  0.2089
26159W        W45013  15.119   1.631  12.160  0.0916  0.3587  0.0053
26160W        W45014   5.109   9.474  11.723 -0.0681 -0.0509 -0.0356
26161W        W45015   7.219  11.790   4.174 -0.4127  0.1240 -0.1352
26162W        W45016  12.527  11.531  14.980 -0.0374 -0.2415 -0.2146
26163W        W45017   2.889  10.167  14.617  0.0015 -0.1126 -0.2184
26164W        W45018  13.963   9.051   2.432 -0.1684 -0.2043  0.3764
26165W        W45019  16.252   0.805   4.252 -0.1923  0.3237 -0.1257
26166W        W45020   6.244  13.952   1.883 -0.0323 -0.1379  0.0009
26167W        W45021  12.175  11.608  13.664 -0.0860  0.0043 -0.0459
26168W        W45022   7.224   5.125   4.073 -0.0802  0.1759  0.0873
26169W        W45023   3.444   5.050   1.233 -0.0629  0.1247 -0.2717
26170W        W45024  10.887  11.762   4.417 -0.1082 -0.1417  0.2624
26171W        W45025   0.020  11.244  12.693  0.0771  0.0357 -0.0131
26172W        W45026   4.566   7.102   4.463  0.0129  0.0610  0.1056
26173W        W45027  13.260  12.227  17.072 -0.0402 -0.3086 -0.0923
26174W        W45028   6.731  11.441   4.363 -0.0906  0.2786 -0.2115
26175W        W45029   9.211  14.117   3.805  0.0009  0.1252 -0.0303
26176W        W45030  15.136   8.994   6.190  0.3052 -0.0124  0.2020
26177W        W45031  12.870  11.686  15.350 -0.1672  0.4512  0.3322
26178W        W45032  10.207   7.592   5.312  0.0728 -0.0099 -0.0521
26179W        W45033   2.078  12.585  17.366  0.1544 -0.0604  0.1064
26180W        W45034  16.717   7.507   1.132 -0.3638  0.0509  0.2421
26181W        W45035  11.994   0.242   0.942 -0.2637 -0.1075 -0.1997
26182W        W45036   6.174   9.116  15.422 -0.0947  0.1328  0.0491
26183W        W45037  10.088  16.950  14.486  0.3949 -0.1521  0.0292
26184W        W45038  12.489  11.787   2.762  0.0207 -0.1242 -0.0087
26185W        W45039   2.944  14.453  13.150 -0.1201  0.1906 -0.2213
26186W        W45040   7.278   6.736  13.120  0.0776  0.0314  0.2483
26187W        W45041   3.190   9.956  12.903 -0.1034 -0.0899 -0.1340
26188W        W45042   3.319   1.943   1.633 -0.0500  0.1330 -0.3312
26189W        W45043   2.205   1.807   1.516  0.0526  0.2350  0.1551
26190W        W45044   6.245   4.041   4.778  0.4918  0.1251 -0.3825
26191W        W45045   3.802   6.413  12.483  0.3105 -0.0575  0.2195
26192W        W45046   5.152   4.569  15.901 -0.0907  0.0835  0.0993
26193W        W45047   4.570  16.748   5.361 -0.2946  0.2201  0.1165
26194W        W45048   5.970   4.068  13.673 -0.0928 -0.1101 -0.0396
26195W        W45049   6.365  14.647  14.260  0.0113  0.1963 -0.3470
26196W        W45050   3.055   0.127  13.231 -0.4981  0.1098  0.1309
26197W        W45051   8.410   6.422   4.301 -0.0615 -0.2676 -0.0231
26198W        W45052   5.018   0.183  15.874  0.1210 -0.0784 -0.0222
26199W        W45053  10.006  16.047  15.655 -0.2851 -0.0870  0.0197
26200W        W45054   6.047  10.094  16.621  0.1871 -0.0454 -0.2939
26201W        W45055  10.691  10.574  12.121 -0.1002 -0.1925 -0.2127
26202W        W45056  14.939  10.057   0.764  0.0510  0.0013  0.2617
26203W        W45057   9.008   3.398  16.761 -0.1592 -0.2914  0.0263
26204W        W45058   7.231   5.060   2.641 -0.0991  0.2102 -0.3406
26205W        W45059   6.498   0.432  15.939  0.0625  0.0497  0.0562
26206W        W45060   0.261  11.682  15.974  0.0502  0.3549  0.0729
26207W        W45061   9.930  12.878   4.721  0.0072  0.0547  0.0281
26208W        W45062   1.979   4.671   2.736  0.0541  0.0640  0.2400
26209W        W45063  17.047   8.104  12.784  0.0753  0.0002 -0.0732
26210W        W45064   4.052   5.625   0.577 -0.1485  0.1421 -0.2051
26211W        W45065  16.146   4.276  13.248 -0.0254  0.1719 -0.3105
26212W        W45066   5.924   2.286   4.997 -0.0720 -0.0909 -0.1823
26213W        W45067   6.288  15.796  16.640  0.0559 -0.0686  0.0066
26214W        W45068   3.757   1.161  15.130  0.0244 -0.2112  0.0683
26215W        W45069   0.383  14.804  13.562  0.0211  0.2881 -0.0035
26216W        W45070  14.274  15.759  14.699 -0.0280 -0.2314  0.1009
26217W        W45071   3.641   8.887   1.616 -0.2291  0.0914 -0.0704
26218W        W45072   5.888   6.126   3.527 -0.1653  0.2146 -0.0153
26219W        W45073  16.869   5.224   5.055  0.0479 -0.2131  0.3742
26220W        W45074  10.148   9.744   3.126  0.1295 -0.3155 -0.1364
26221W        W45075   2.342  12.983   0.626  0.0868 -0.1498  0.0819
26222W        W45076   2.052  13.158  14.711 -0.1026  0.5048  0.0525
26223W        W45077   4.409   4.899  15.872 -0.0250 -0.0410  0.2195
26224W        W45078  15.350   1.355   4.085  0.0486 -0.0469  0.0467
26225W        W45079   8.648   0.411  15.245  0.6075  0.3294  0.0312
26226W        W45080   3.260   2.947   3.573  0.0627 -0.0969 -0.0730
26227W        W45081  14.521   1.752   2.115 -0.0506 -0.0101  0.0779
26228W        W45082   3.491   1.273  16.150  0.1512 -0.1061  0.1041
26229W        W45083  10.008  13.230   1.059 -0.0457  0.0247  0.0711
26230W        W45084   8.461  14.197  14.287  0.1307  0.1423  0.0016
26231W        W45085   6.601   2.787   0.062  0.0685  0.1673 -0.1682
26232W        W45086  16.943   6.656   0.666  0.3152 -0.0755 -0.0665
26233W        W45087  10.897   4.660   3.931  0.1074 -0.3428  0.1794
26234W        W45088   7.962  15.739  13.642 -0.1613  0.2418  0.1391
26235W        W45089   2.860   0.463  13.702 -0.1661 -0.2177  0.0194
26236W        W45090   6.061   9.559   5.208 -0.0605 -0.0710 -0.0132
26237W        W45091   3.749  13.891   4.079  0.0955 -0.0630  0.0439
26238W        W45092  11.973   9.213   3.587  0.0472 -0.0289  0.2527
26239W        W45093   8.841   8.150   0.965 -0.0754  0.1697  0.1043
26240W        W45094  12.400  16.041  16.262 -0.1041  0.0825  0.1250
26241W        W45095   6.794  16.954   5.377  0.1149  0.0322 -0.3589
26242W        W45096   1.201   5.202   3.950  0.0607 -0.0993 -0.1417
26243W        W45097  10.924   0.687   1.286 -0.2855  0.0104  0.1693
26244W        W45098   5.614   7.588  13.300  0.0303 -0.0143  0.2263
26245W        W45099   2.638   2.997   2.845  0.1406  0.1056 -0.0068
26246W        W45100  10.641   2.642  16.202 -0.1244  0.1146  0.2414
26247W        W45101   0.990   5.282  17.263  0.0906 -0.0761  0.0637
26248W        W45102   5.559   5.960  13.237 -0.0448  0.0729 -0.3196
26249W        W45103   9.198   8.921  17.406  0.0895 -0.2445  0.2212
26250W        W45104  11.653   0.026  12.768 -0.0932  0.1873  0.0346
26251W        W45105  10.600  12.914   1.486 -0.2603  0.3852  0.0058
26252W        W45106  13.156  13.705  16.926  0.1946  0.1313  0.1090
26253W        W45107   0.063   8.868  15.539 -0.0090 -0.1457  0.1112
26254W        W45108  15.635  12.229  15.760  0.2117 -0.0652 -0.1183
26255W        W45109   8.409   7.067   3.598 -0.2526 -0.3382  0.0159
26256W        W45110   7.348   3.748  14.109 -0.1558 -0.0843 -0.0678
26257W        W45111  11.053   4.735   5.274  0.2204  0.2034  0.0712
26258W        W45112  12.404  15.906  14.226  0.0979 -0.2837 -0.0978
26259W        W45113  11.490  11.225  14.890  0.0955  0.1083 -0.1202
26260W        W45114  16.272  10.865  14.580 -0.1400  0.1467  0.0225
26261W        W45115   9.158   3.922  14.924  0.2528  0.0577 -0.2203
26262W        W45116   5.734   4.773  15.865  0.0818 -0.1470 -0.2255
26263W        W45117  16.445   0.004   3.721 -0.2119  0.3132 -0.0962
26264W        W45118  10.562   4.584   3.482 -0.0022  0.0399 -0.0268
26265W        W45119  16.897  13.157  16.030  0.0192 -0.1181  0.4014
26266W        W45120   8.373   6.102  15.658 -0.0132 -0.3090  0.1971
26267W        W45121   7.758   4.382   4.541  0.3311  0.0108  0.0604
26268W        W45122   0.695   3.064   2.826 -0.0581 -0.0920 -0.0071
26269W        W45123   4.603   6.779   1.195 -0.1042 -0.1990  0.0085
26270W        W45124   0.064  11.964   0.407 -0.1293  0.3407 -0.1472
26271W        W45125  16.096  11.654  13.900  0.1519  0.2199  0.1445
26272W        W45126   9.745   4.891   1.252  0.0770  0.2546  0.3062
26273W        W45127   7.794  16.673  12.576 -0.2252 -0.0943 -0.0428
26274W        W45128  14.810  11.947  12.788 -0.1086  0.0648  0.2798
26275W        W45129   2.372   1.573   1.918 -0.0572 -0.1796 -0.0290
26276W        W45130   3.388   9.985  13.394  0.2399  0.1349  0.0266
26277W        W45131   6.737  16.262   5.234 -0.0128  0.5269 -0.0730
26278W        W45132  11.743   5.125  14.323  0.1817 -0.1406  0.0293
26279W        W45133   6.466  15.144   0.270  0.1530 -0.1930  0.0896
26280W        W45134  16.621   8.342  15.505  0.0537 -0.2817 -0.0524
26281W        W45135  17.207   7.451   1.193 -0.3644 -0.0301  0.0364
26282W        W45136  13.765   1.445  16.509 -0.4266  0.0886 -0.0652
26283W        W45137   0.638   9.410  14.370 -0.0976  0.0813 -0.1560
26284W        W45138   1.417  12.584  12.460 -0.0253  0.4790  0.0239
26285W        W45139   3.366   8.964   1.184 -0.0434  0.0401  0.0562
26286W        W45140   9.329  13.727   3.442 -0.2396  0.1375  0.1924
26287W        W45141   6.818  15.078   1.962  0.2828  0.0560  0.5578
26288W        W45142   6.472  16.064   4.429 -0.0188 -0.1853 -0.0660
26289W        W45143  12.960  14.641   4.681 -0.1356  0.2070  0.3091
26290W        W45144   4.352   0.490   1.134 -0.1507 -0.0757  0.1848
26291W        W45145  12.646   3.207   4.462  0.4538  0.1751 -0.2701
26292W        W45146   9.608   4.085  13.925 -0.2423  0.0370 -0.0444
26293W        W45147  13.700   3.359   2.111 -0.0997  0.1192  0.2515
26294W        W45148  15.672  16.314   4.953 -0.1711  0.0978 -0.1381
26295W        W45149  13.061   9.189  14.703  0.3349  0.1253  0.1489
26296W        W45150  13.388  16.207  13.373 -0.2405 -0.1267  0.3597
26297W        W45151  16.509  16.641  16.967 -0.0653 -0.0029  0.1261
26298W        W45152   0.206  13.518   2.201  0.1090 -0.1401 -0.2244
26299W        W45153   3.855  16.929   1.598 -0.2754 -0.3020 -0.2346
26300W        W45154  10.204   8.505  14.109 -0.0458  0.0899  0.0713
26301W        W45155   3.465   7.658  16.321 -0.4413  0.3662  0.2088
26302W        W45156   7.513  12.969  14.897 -0.0252  0.0096 -0.1392
26303W        W45157  14.762   2.210   0.859 -0.0730 -0.5715 -0.3477
26304W        W45158   9.814   3.712  16.501 -0.1043  0.0916 -0.3169
26305W        W45159   7.379   3.424  13.007  0.0672  0.0919  0.2670
26306W        W45160   6.971   9.385   3.396 -0.0507 -0.1996 -0.0235
26307W        W45161  13.445   4.266  17.385 -0.1560  0.0398  0.1377
26308W        W45162  15.354   3.839  14.792  0.1149 -0.1277 -0.0783
26309W        W45163  16.657   7.323   2.100  0.0974 -0.3524  0.0713
26310W        W45164  12.403   8.685  16.761 -0.2521  0.0534 -0.2012
26311W        W45165   2.931   6.901  16.090  0.1508 -0.3007 -0.0646
26312W        W45166   0.392   8.992   1.364  0.1945  0.1487 -0.0857
26313W        W45167   1.793   5.144   4.462  0.0897 -0.0998  0.1013
26314W        W45168   9.286   7.297  14.297 -0.0076  0.0653  0.2740
26315W        W45169  11.534   4.281   1.554  0.1967 -0.2063 -0.1784
26316W        W45170  15.563   8.998   5.456  0.4629  0.0537 -0.1592
26317W        W45171   7.211  10.745   4.610 -0.1330  0.1325 -0.2087
26318W        W45172  15.287   0.196  17.096  0.2592  0.3725 -0.0060
26319W        W45173  17.178   4.429   2.077 -0.0785 -0.0219  0.3423
26320W        W45174  17.302   0.258   0.504  0.1083  0.2143 -0.0710
26321W        W45175   6.764  12.088  13.977  0.1560  0.1309 -0.0177
26322W        W45176  14.264  12.613  12.380 -0.0719  0.1596  0.0666
26323W        W45177   9.584   4.687   4.161 -0.0173  0.0333  0.0207
26324W        W45178  10.784   8.709   2.419  0.1618  0.0065  0.4003
26325W        W45179   1.655  15.970  15.066 -0.3444 -0.1896 -0.1965
26326W        W45180   5.267   4.206  13.242 -0.0187  0.0500 -0.1736
26327W        W45181  13.603   4.347  15.559  0.0126  0.1729 -0.2125
26328W        W45182   6.546   5.137   2.069 -0.3213  0.0484  0.0585
26329W        W45183  11.689  11.922  15.528  0.1936 -0.1492  0.1278
26330W        W45184  17.011   5.540  15.329  0.1757  0.1854 -0.2894
26331W        W45185   6.630  10.541  17.390  0.1971  0.0859 -0.1754
26332W        W45186  11.306  12.171  14.680  0.0167 -0.0267  0.4885
26333W        W45187   2.688   7.956   3.888 -0.0028 -0.0803  0.1450
26334W        W45188   4.090  13.260   2.145  0.0505 -0.1361  0.0262
26335W        W45189   3.535   3.901   0.468 -0.0710  0.4027 -0.0970
26336W        W45190   0.840   3.370   5.315  0.1824  0.2865 -0.2953
26337W        W45191  10.039  13.546   4.713  0.0254 -0.0795  0.1301
26338W        W45192   2.420  16.896   0.321 -0.0129  0.1089 -0.0250
26339W        W45193  11.500   3.919  13.324  0.1004  0.0050 -0.1144
26340W        W45194   3.710   0.658   4.067  0.1856 -0.0383 -0.1607
26341W        W45195   8.615   4.910   3.509  0.3155  0.0564 -0.1878
26342W        W45196   2.170   8.924  14.609  0.3045 -0.1493 -0.2259
26343W        W45197   0.190  11.052   3.364  0.1110  0.0665  0.0652
26344W        W45198   9.147   3.180  13.980 -0.0813  0.0059 -0.2112
26345W        W45199  15.299  12.170   0.331  0.1682 -0.0807  0.0235
26346W        W45200  15.871  12.425  16.401 -0.0503  0.1824 -0.1157
26347W        W45201   2.723   9.640   1.019  0.1218  0.0455 -0.1537
26348W        W45202  15.411   5.866  11.101  0.1474  0.0468 -0.3301
26349W        W45203  11.342   3.621  12.865  0.0226  0.0962  0.1907
26350W        W45204   8.918   2.134  15.495  0.0605 -0.1100  0.0603
26351W        W45205   1.807  15.010   1.202 -0.0669  0.0404  0.0037
26352W        W45206   6.246   2.194   1.244 -0.2495  0.1145  0.1253
26353W        W45207   1.601   3.394  15.653 -0.3176  0.1395  0.0254
26354W        W45208   2.062  12.681   0.984 -0.2248 -0.0309  0.0022
26355W        W45209   7.395   2.394   4.562 -0.1332 -0.0749 -0.0021
26356W        W45210   9.613  14.143   2.021  0.0825 -0.1788  0.0625
26357W        W45211   9.138   2.504   2.255 -0.1474 -0.3138 -0.0632
26358W        W45212   9.324  13.648   0.703  0.2689 -0.1399 -0.0243
26359W        W45213   3.568  15.130  16.318 -0.0076  0.0186  0.3482
26360W        W45214   1.541  17.081   3.742  0.3046 -0.0574 -0.2564
26361W        W45215  12.321   7.611  14.210  0.3701  0.2472  0.1905
26362W        W45216   5.415  13.605   4.814 -0.1993  0.2363  0.0810
26363W        W45217  15.996   6.288   0.591 -0.0079 -0.1082 -0.0534
26364W        W45218  14.395   8.617  14.213  0.0969 -0.1026 -0.0166
26365W        W45219   6.225   9.043  16.689  0.1982 -0.0679  0.0096
26366W        W45220   4.066   8.508   0.901  0.1781  0.2275  0.1618
26367W        W45221   6.989   5.503  15.976  0.2841  0.0046  0.1866
26368W        W45222   9.096  13.189   0.778 -0.0465  0.0887  0.2769
26369W        W45223   6.745   4.017   3.468  0.1335 -0.0891  0.1252
26370W        W45224   9.149  15.939  14.609  0.0510  0.0284 -0.0882
26371W        W45225   9.019   0.116   0.643 -0.1638 -0.2061 -0.4084
26372W        W45226   2.084  12.021   2.899  0.0321 -0.0427 -0.0945
26373W        W45227   1.790   7.896  13.164 -0.1120  0.2985 -0.4830
26374W        W45228  11.846   1.915  15.508 -0.3407 -0.0130  0.0526
26375W        W45229   5.123  12.900   1.210  0.2023  0.2658  0.0435
26376W        W45230   2.944   7.220  15.668  0.0625  0.0721 -0.1453
26377W        W45231   7.645  16.674  13.822  0.0259 -0.1690 -0.4895
26378W        W45232   5.124   1.076   1.551 -0.0823  0.0910  0.1525
26379W        W45233  13.912   9.763   3.061 -0.1130 -0.0404  0.4186
26380W        W45234   3.709  11.102   2.433  0.1796 -0.0861  0.4065
26381W        W45235   2.902   0.632   2.361 -0.0844 -0.0308 -0.0945
26382W        W45236  15.433   5.556   2.856  0.0254 -0.3167 -0.1891
26383W        W45237   6.563  12.644  13.141  0.1053 -0.2313  0.3249
26384W        W45238   4.502  12.948   1.337 -0.1274  0.1161 -0.1013
26385W        W45239   9.117  16.904  13.799  0.0024  0.0304 -0.1362
26386W        W45240   3.757   2.687   3.678 -0.1113  0.0219  0.1437
26387W        W45241  16.823   4.051  17.386 -0.0533  0.1625 -0.0464
26388W        W45242   7.037  14.636   2.080 -0.0964 -0.2138  0.1668
26389W        W45243  14.998  16.185  13.807 -0.1440 -0.1238 -0.0133
26390W        W45244   7.667  12.939   4.359 -0.0942  0.2570  0.2887
26391W        W45245  10.958   1.212   5.098  0.1988 -0.0017  0.2953
26392W        W45246   4.356   3.600   0.278 -0.0714  0.0455 -0.1274
26393W        W45247   3.179   3.935   0.093 -0.1666 -0.0962 -0.0956
26394W        W45248   8.720   7.374   5.286  0.2515  0.0088  0.0580
26395W        W45249  15.271   9.465  14.899  0.0076 -0.1942 -0.2633
26396W        W45250   5.834   0.555   4.183  0.1399 -0.0267 -0.2027
26397W        W45251   2.481  10.562  14.634 -0.1504  0.4048  0.1769
26398W        W45252   0.118  13.024   0.850  0.1289 -0.1222 -0.0921
26399W        W45253   6.044   1.524   0.108  0.3418  0.0070 -0.3207
26400W        W45254   7.914  14.546   2.904  0.1625 -0.0841 -0.2061
26401W        W45255   0.230   8.912  13.309  0.0288 -0.1128 -0.1667
26402W        W45256   1.539   2.254   2.115 -0.0206  0.0651  0.0834
26403W        W45257  11.982  12.090   4.451  0.0824  0.1441 -0.0204
26404W        W45258   0.416  12.016   2.184 -0.1182 -0.0209 -0.0867
26405W        W45259  16.471   0.494   4.572  0.1511  0.0371 -0.3154
26406W        W45260  15.926  12.761  16.905 -0.2057 -0.0844 -0.1649
26407W        W45261  17.317  13.521  12.441 -0.1581 -0.2155  0.0125
26408W        W45262  14.214  11.431  12.456  0.0734 -0.0417  0.1286
26409W        W45263   8.039  12.963  12.315  0.1196  0.0699  0.1314
26410W        W45264  16.060  14.144  15.056 -0.0997  0.0071  0.2946
26411W        W45265   4.047   1.620  13.639  0.0160 -0.2256 -0.0791
26412W        W45266   0.624   9.572  13.868 -0.0895  0.2760  0.3789
26413W        W45267  17.124  11.473   5.205  0.1909  0.0948 -0.3080
26414W        W45268   1.028   4.042  14.510  0.3540  0.2358  0.2359
26415W        W45269   4.860   6.068   3.140 -0.0823 -0.0257  0.1379
26416W        W45270   6.105   8.048  16.847 -0.0957  0.0098 -0.1565
26417W        W45271   8.462   5.517  12.690 -0.1958  0.0936 -0.0521
26418W        W45272  14.974  10.021   1.807 -0.0491  0.0382 -0.3677
26419W        W45273  11.494   3.976   0.378 -0.0800  0.0153  0.1260
26420W        W45274   9.541   0.703   4.650 -0.0470 -0.0362  0.0113
26421W        W45275   5.349   1.424   2.673  0.2318  0.0026  0.1308
26422W        W45276  11.179   8.456   2.205 -0.1845 -0.0797 -0.0794
26423W        W45277   4.374   1.185   2.647 -0.2100  0.2179 -0.0603
26424W        W45278   9.524   4.917  14.084 -0.2403  0.0574 -0.0789
26425W        W45279  13.766   2.512  12.933  0.0777 -0.0032 -0.0691
26426W        W45280  14.545  16.926  13.071  0.0264  0.0411  0.2742
26427W        W45281  17.176   9.753   1.480  0.0750 -0.1174 -0.0615
26428W        W45282  13.401   2.116   0.462  0.0431 -0.0225 -0.1979
26429W        W45283  13.596  11.123  15.791 -0.3085  0.2368 -0.0725
26430W        W45284   5.063   5.505  15.214 -0.0577 -0.1479  0.4037
26431W        W45285  11.794   5.254   2.685  0.3287  0.1941 -0.0576
26432W        W45286  12.714  15.843  16.618 -0.0050  0.2017 -0.1025
26433W        W45287  14.142  13.271   0.927 -0.0861  0.1359 -0.0572
26434W        W45288  13.050   6.806  14.452 -0.0547  0.0497  0.0397
26435W        W45289  12.572   9.327   2.596 -0.1497 -0.0723  0.2512
26436W        W45290   8.290  11.622   4.282  0.0859  0.1048  0.0009
26437W        W45291  14.226  12.001  14.083  0.0499 -0.1776  0.1973
26438W        W45292  16.162   8.611  16.580  0.1081  0.2681  0.1536
26439W        W45293   7.047   0.052   3.601 -0.0870 -0.1323  0.0015
26440W        W45294  15.566  15.788   2.980 -0.3557 -0.0333  0.2747
26441W        W45295  10.963   9.279  17.145  0.0412 -0.1536 -0.0033
26442W        W45296   7.733  14.486  16.462 -0.0387  0.3402 -0.1154
26443W        W45297   7.282   3.370   1.864 -0.0448 -0.0470  0.1682
26444W        W45298   6.850  12.607  13.854 -0.0010 -0.2037  0.0502
26445W        W45299  13.700  12.723  15.520 -0.0640 -0.1294 -0.1664
26446W        W45300  15.124   6.458  14.709  0.1247  0.0291 -0.2125
26447W        W45301   7.654  12.118   3.140  0.2699 -0.1111  0.1583
26448W        W45302   6.193  10.317   0.868 -0.2001  0.1341  0.0862
26449W        W45303   5.495   6.785  12.918 -0.1295 -0.0354 -0.1784
26450W        W45304  16.065   8.342  12.445  0.0289 -0.1330 -0.1668
26451W        W45305   7.254  11.350   0.155 -0.0551 -0.0034 -0.1197
26452W        W45306   0.414  13.992  15.089  0.0365 -0.2146  0.0062
26453W        W45307  14.605  15.603  13.309 -0.1020 -0.3487 -0.0359
26454W        W45308   7.476   4.153  14.778 -0.4606 -0.1369 -0.1911
26455W        W45309   5.868   5.776  16.441 -0.1828 -0.0093  0.0234
26456W        W45310  15.724   0.382  16.866 -0.1585  0.0045  0.0279
26457W        W45311  16.872   7.397  15.376 -0.0304  0.1505 -0.2023
26458W        W45312  12.045  15.394   0.321 -0.2737  0.3484  0.2413
26459W        W45313   9.300   3.421  11.604  0.1695 -0.0297  0.0936
26460W        W45314   5.158  16.525   1.255 -0.2128 -0.1553  0.0089
26461W        W45315   1.301   5.005  13.169 -0.1181  0.3270 -0.3092
26462W        W45316   9.298  15.100  16.232  0.1100 -0.1772  0.0924
26463W        W45317  14.577  10.217   4.253 -0.2266  0.0955 -0.1093
26464W        W45318   7.866  11.908   4.535 -0.1096  0.3405  0.0083
26465W        W45319  17.256   3.238  13.264 -0.0476  0.1100  0.0807
26466W        W45320   6.214   4.690  14.117 -0.4606  0.0806  0.1087
26467W        W45321   0.146  15.025   2.053  0.1489  0.3322 -0.0181
26468W        W45322   4.996  12.353   2.010  0.0342 -0.1448  0.2134
26469W        W45323   2.504  16.391  14.419 -0.0172  0.1809 -0.2595
26470W        W45324   0.871  16.525   0.148  0.1519  0.0389  0.0668
26471W        W45325   2.758  12.250  16.965  0.4094 -0.0393  0.2943
26472W        W45326   4.521  14.236   1.577 -0.2181  0.2361 -0.3453
26473W        W45327   1.645  11.769   1.333  0.1837  0.0458  0.0333
26474W        W45328   5.008   5.355   2.626 -0.2499 -0.1424  0.2231
26475W        W45329  12.436   4.301  13.127 -0.0200 -0.1631  0.3035
26476W        W45330  14.806  12.136   0.198 -0.0064  0.0284  0.0160
26477W        W45331   3.662   2.316   4.207 -0.1031 -0.0764 -0.0525
26478W        W45332   1.220   7.652   2.854 -0.0602 -0.0395 -0.0936
26479W        W45333  17.239   1.150  14.136  0.4092 -0.0779 -0.1776
26480W        W45334   0.854  15.776  15.768 -0.1232  0.0515 -0.1223
26481W        W45335   3.644  13.821  15.818  0.1370 -0.0088  0.0929
26482W        W45336  11.169  10.231   2.564 -0.0177  0.2428 -0.1169
26483W        W45337   3.100   1.923  14.423  0.2098  0.0045 -0.1309
26484W        W45338  16.073  14.370  11.433 -0.4787  0.0894  0.2162
26485W        W45339   8.739  12.864   1.856  0.1197  0.1067  0.1046
26486W        W45340  11.292   4.723  13.702 -0.2613  0.0167  0.0188
26487W        W45341  16.839  16.299   4.755 -0.0427 -0.5519 -0.1423
26488W        W45342   9.912   9.097   0.452  0.0299  0.0735 -0.0259
26489W        W45343  15.239   6.348   2.858  0.1430 -0.1860  0.2571
26490W        W45344   5.507   5.623   5.671  0.0703 -0.0582 -0.1654
26491W        W45345   9.782   8.131  16.226  0.0748  0.0789  0.0492
26492W        W45346  13.727  13.520   1.870 -0.2106  0.0362 -0.1787
26493W        W45347   4.654  11.935  12.990 -0.2122 -0.0652  0.2342
26494W        W45348   4.518  12.939  16.520 -0.3045 -0.1423 -0.1595
26495W        W45349   9.728   4.131  16.004  0.1572  0.2074 -0.1009
26496W        W45350   7.646   3.382  12.491 -0.1514 -0.2051 -0.0950
26497W        W45351   4.739   4.332   4.653 -0.1314  0.1686  0.0941
26498W        W45352  10.248  12.645   1.714  0.2764 -0.2852 -0.2846
26499W        W45353   7.157  15.702   4.539 -0.1013 -0.1192  0.0996
26500W        W45354  12.447   1.404   0.986 -0.0544  0.1348  0.1510
26501W        W45355   6.046   2.749  13.964  0.1286 -0.0270 -0.0333
26502W        W45356   6.377  11.137   4.639 -0.0529 -0.1141 -0.0456
26503W        W45357   0.881   3.643   4.346 -0.1515 -0.1661  0.2592
26504W        W45358  12.276  13.129  14.272  0.1607  0.0494  0.1782
26505W        W45359  16.648   7.582   4.997 -0.4726  0.0080  0.0798
26506W        W45360  11.324   7.909  15.270  0.1740  0.0668  0.1667
26507W        W45361  11.784   7.674  12.510 -0.0029 -0.0970  0.0681
26508W        W45362   3.819  15.005   5.569  0.0571 -0.1315 -0.2898
26509W        W45363   4.504  13.356  15.463  0.1717  0.1105  0.3317
26510W        W45364  17.335  15.402  16.094 -0.3489  0.0605  0.0933
26511W        W45365  16.449   9.456  14.987 -0.0207  0.0282 -0.0830
26512W        W45366   6.965  10.070   3.209 -0.1272  0.1988 -0.0179
26513W        W45367  13.485  15.494  16.529 -0.2200 -0.1387 -0.0262
26514W        W45368   4.536  12.243   1.846  0.0586 -0.1451  0.1166
26515W        W45369   6.749  15.138   1.488  0.0010  0.1655 -0.2501
26516W        W45370   0.292   7.791  13.120 -0.0865  0.3270  0.0313
26517W        W45371   1.496  13.450  12.907  0.0288  0.1736  0.0815
26518W        W45372   6.283   2.972  12.873  0.0013 -0.0730  0.3483
26519W        W45373   8.079  15.708  14.988  0.0763 -0.1738  0.1652
26520W        W45374  11.252   2.246  17.199  0.0485  0.1421 -0.3178
26521W        W45375  14.088   5.209  15.376  0.3173 -0.2537  0.1131
26522W        W45376   6.554   1.033  16.735  0.2426 -0.1449  0.2437
26523W        W45377   0.872   2.453  12.585  0.0390 -0.2361  0.2196
26524W        W45378  13.162  11.480   3.931  0.2981  0.1009  0.3157
26525W        W45379   6.230  13.406  14.869  0.0564 -0.1657  0.1742
26526W        W45380   4.770  11.209  15.148  0.3298 -0.0823 -0.2654
26527W        W45381   8.011  14.301  14.732  0.3462 -0.1718  0.1067
26528W        W45382   3.892  13.546   1.760 -0.0670  0.1392 -0.0684
26529W        W45383  11.066   0.567  16.489 -0.0815 -0.0115  0.1002
26530W        W45384  10.965   2.883   2.731  0.3242  0.0026  0.2346
26531W        W45385   1.076  12.937   1.410  0.1831 -0.2318  0.0056
26532W        W45386   6.444  16.142   0.823  0.0256  0.2226 -0.0163
26533W        W45387  16.295   0.253  16.995 -0.3335  0.2510 -0.2644
26534W        W45388   9.158  10.346  17.076 -0.4069  0.1904 -0.0933
26535W        W45389  14.033   5.392  14.821 -0.1878 -0.0593 -0.1558
26536W        W45390   7.201   8.199  15.895 -0.1956 -0.0508 -0.1871
26537W        W45391   6.546  11.847   1.127  0.0631 -0.1361  0.3089
26538W        W45392  16.817   6.673   2.249 -0.0666 -0.2886  0.1825
26539W        W45393   3.562   0.349   4.949  0.1363  0.1381  0.0210
26540W        W45394   6.144  11.195   2.876  0.2636 -0.1007  0.1913
26541W        W45395   0.830  13.719   3.863 -0.0497  0.4050  0.0012
26542W        W45396  10.484   9.157   3.733  0.0642 -0.0777  0.0311
26543W        W45397   2.572   4.267   0.811  0.1110 -0.0570 -0.0056
26544W        W45398   6.713   2.145   1.419  0.0233  0.3311 -0.1511
26545W        W45399   2.237   6.395  14.087  0.0567  0.0844  0.0510
26546W        W45400   4.519  14.803  13.682  0.0721 -0.0096  0.0695
26547W        W45401  13.709  15.721  15.166 -0.1143 -0.1451  0.1517
26548W        W45402  10.062  11.504  10.999  0.0623  0.1074  0.2526
26549W        W45403   6.638   7.327  16.952 -0.1791  0.0252  0.1947
26550W        W45404   1.131   1.222   4.979  0.1814 -0.1614 -0.1109
26551W        W45405  15.170  11.956  13.208  0.4077  0.0497 -0.0340
26552W        W45406   9.737   5.055  17.050 -0.0490  0.1654  0.0422
26553W        W45407   0.647   1.176   3.607  0.1914  0.0406  0.2149
26554W        W45408   3.186   1.017   2.060 -0.1766  0.1004 -0.0503
26555W        W45409  14.387   4.539  13.281  0.0685  0.0360 -0.1865
26556W        W45410   2.839   0.743   4.345 -0.3811  0.4209 -0.3489
26557W        W45411   3.203  10.640   5.016  0.0080  0.1532  0.2408
26558W        W45412   2.557  12.660  17.082  0.1800 -0.3314 -0.2295
26559W        W45413  12.480   3.329   1.020 -0.1230  0.2291 -0.0599
26560W        W45414   4.169  12.524  14.345  0.0839 -0.1319 -0.0860
26561W        W45415   9.626  12.050  13.547  0.2310 -0.2191  0.3085
26562W        W45416  15.299  13.926  13.978  0.0506  0.1576 -0.2588
26563W        W45417   7.212   7.284   1.999 -0.1011 -0.1439 -0.2157
26564W        W45418  10.597   8.392  16.373  0.0643 -0.2714 -0.3494
26565W        W45419   5.950   9.553  15.528  0.3212  0.2508 -0.3120
26566W        W45420   6.723  11.954   4.530  0.2221 -0.0208  0.1251
26567W        W45421  13.132  16.382   0.963 -0.1405 -0.3870  0.0914
26568W        W45422  11.633  16.170  17.335  0.3940  0.1938  0.0529
26569W        W45423   6.611  15.085  14.986  0.0768  0.1206  0.1950
26570W        W45424   3.695  10.234  14.232  0.3545  0.1179 -0.0821
26571W        W45425  13.629   9.342  16.392  0.0828 -0.0726  0.2618
26572W        W45426   5.196  16.936  14.685  0.0684  0.2461  0.2536
26573W        W45427   8.465   7.564   1.514 -0.0536 -0.2157 -0.3527
26574W        W45428   3.649   9.589   3.433 -0.1264 -0.1101 -0.1292
26575W        W45429   5.031   4.747   4.727  0.2133  0.1206  0.1975
26576W        W45430  13.475  14.368  12.332  0.1673  0.0602 -0.2364
26577W        W45431  12.293   2.019   1.686  0.0200  0.0720  0.0539
26578W        W45432  10.711   1.857   2.808  0.3337 -0.2129  0.2622
26579W        W45433   7.809   2.996  14.252 -0.1356  0.0966  0.2808
26580W        W45434  15.722   2.680  15.830 -0.5032 -0.0038 -0.0753
26581W        W45435  10.014   6.966   0.668  0.1880 -0.0566  0.0361
26582W        W45436  11.787   0.729   0.509 -0.1096 -0.1029  0.0372
26583W        W45437  16.801   4.550   1.724  0.0095 -0.2424  0.2688
26584W        W45438   9.888   3.789  13.677  0.1960 -0.0953 -0.1136
26585W        W45439   4.946  14.529  15.379 -0.0601 -0.0436  0.0869
26586W        W45440   7.443   1.642   4.607 -0.1497 -0.3122 -0.2181
26587W        W45441  13.895  10.256   3.214  0.0531 -0.2549 -0.0312
26588W        W45442  14.066  12.165   3.319 -0.0387 -0.0787  0.0792
26589W        W45443   1.882  13.491   2.598 -0.2402 -0.1517 -0.0599
26590W        W45444   2.246   7.305  14.278 -0.0288  0.0713  0.1562
26591W        W45445  13.628   4.432   4.501 -0.1223 -0.0199 -0.1128
26592W        W45446  11.561   3.658  15.632  0.1922  0.0002 -0.0144
26593W        W45447  11.847   9.486  13.073  0.2717 -0.3568 -0.0510
26594W        W45448   1.228  16.574   0.855 -0.0056  0.2520 -0.2271
26595W        W45449  12.787   9.118  16.994  0.1818  0.2086  0.1591
26596W        W45450  16.959  12.275  14.549  0.1565  0.4536  0.0645
26597W        W45451  15.732  10.720  17.342  0.3453  0.0122  0.0505
26598W        W45452  10.279   2.966   2.817  0.0139 -0.4494 -0.2109
26599W        W45453   0.414   1.293  14.863 -0.2086 -0.2073 -0.0547
26600W        W45454   5.828   3.036  12.587 -0.0768  0.0928  0.2024
26601W        W45455  16.799   1.036  14.568  0.2043  0.2003  0.0079
26602W        W45456   3.866  11.798   0.476 -0.4636  0.1596 -0.1845
26603W        W45457  14.804   6.169   2.999 -0.1782  0.1989 -0.0205
26604W        W45458   8.865   3.483  14.218 -0.0014  0.2254  0.2203
26605W        W45459   5.930   0.852   3.132 -0.0288 -0.2383 -0.2275
26606W        W45460  17.120   6.338   1.126  0.0166  0.1436 -0.2455
26607W        W45461   4.474  11.270   1.831 -0.1471  0.2097 -0.1680
26608W        W45462   1.903   1.853  12.473 -0.1945  0.4984 -0.0209
26609W        W45463   5.009   7.677   1.842 -0.3428  0.0753  0.0282
26610W        W45464   6.292   7.832   0.713  0.2483  0.0301 -0.0749
26611W        W45465  11.132  16.065  13.414  0.1443 -0.0389 -0.0548
26612W        W45466   3.219  10.722  13.487 -0.1108  0.0515  0.1983
26613W        W45467   7.987  12.639   4.045  0.0579  0.2407 -0.2359
26614W        W45468   5.239   6.716  14.974  0.0258 -0.2226  0.0865
26615W        W45469   5.930  11.807  12.907  0.0241  0.0369 -0.1255
26616W        W45470  12.408  17.183  12.345  0.2935 -0.1345  0.0850
26617W        W45471  14.243  10.246  16.269 -0.0226  0.0599 -0.0372
26618W        W45472   4.675  11.130   3.057 -0.1426  0.0856 -0.1437
26619W        W45473   5.729   6.641  12.521  0.1291  0.0478 -0.3251
26620W        W45474   4.254  16.647  14.429 -0.0098  0.0482 -0.1125
26621W        W45475   5.379  10.682  16.918  0.1148 -0.3268  0.1832
26622W        W45476   7.039  10.332   3.883  0.4030  0.0291  0.2263
26623W        W45477   9.038   7.440  12.928  0.0056  0.1468  0.0420
26624W        W45478   2.524   6.892   1.242 -0.1671 -0.0848 -0.0294
26625W        W45479   4.704   8.056  12.364  0.0810 -0.0847 -0.2503
26626W        W45480   3.178  14.129  15.130  0.0865  0.0124 -0.2772
26627W        W45481   2.430  13.421   4.795  0.2478 -0.1143  0.0419
26628W        W45482   8.130  12.765  15.657 -0.0170 -0.1012 -0.3566
26629W        W45483   1.751  14.023   2.178  0.3248  0.0333  0.0038
26630W        W45484   6.161   6.994   1.596 -0.0627  0.1609 -0.2028
26631W        W45485  10.865   7.544  16.212 -0.2718  0.1549  0.3011
26632W        W45486   8.179   5.038   4.319  0.2888  0.0372  0.0341
26633W        W45487   5.513  11.973  12.565  0.3780  0.2266 -0.0656
26634W        W45488  11.408  13.765  15.658 -0.2122 -0.0977 -0.1403
26635W        W45489  17.216  10.828  15.840  0.1821  0.1441 -0.4439
26636W        W45490   1.951   0.866   5.215  0.0920 -0.1464  0.0819
26637W        W45491   7.015   7.546   4.981  0.0890 -0.2564  0.2218
26638W        W45492   6.285   9.400  12.789  0.0803 -0.3507 -0.1763
26639W        W45493   6.749   2.222  17.423 -0.1089  0.1824 -0.1926
26640W        W45494  10.201   2.680   1.069  0.1422 -0.0659 -0.0096
26641W        W45495   2.486  17.267  15.547 -0.2199 -0.1951 -0.0752
26642W        W45496   4.289   0.234  12.545 -0.2205  0.2101  0.2612
26643W        W45497  15.100   0.072   0.067  0.2440  0.2201 -0.0075
26644W        W45498   0.065   1.716   3.170  0.0254  0.2660  0.3564
26645W        W45499   7.493  11.539  17.197  0.1330 -0.1169  0.0528
26646W        W45500  14.749  10.981  14.664  0.2613  0.0860 -0.1025
26647W        W45501   2.809  14.488  15.047 -0.0667  0.1856  0.1981
26648W        W45502   9.597   5.095  16.248  0.0916 -0.0989  0.0523
26649W        W45503   0.026   5.787  15.150  0.0380 -0.0320 -0.1447
26650W        W45504   1.905  11.064  16.844  0.0551  0.2860 -0.2723
26651W        W45505  17.333   6.186   2.700 -0.0128 -0.0915  0.0871
26652W        W45506  10.772  11.540  16.559 -0.0854 -0.0618 -0.2182
26653W        W45507   1.371  12.701   3.704 -0.0305  0.1926 -0.1893
26654W        W45508   4.604   9.817  17.465 -0.0633 -0.0797  0.0080
26655W        W45509  10.889  10.363  15.395 -0.1848  0.1610 -0.1614
26656W        W45510  12.563  15.586  16.176 -0.2415  0.0336 -0.0754
26657W        W45511  12.976   6.110  13.123  0.0257 -0.1333  0.2297
26658W        W45512   9.758  12.765   1.814 -0.3717  0.0189 -0.0761
26659W        W45513  10.106  12.299   5.166  0.0433 -0.1946 -0.0840
26660W        W45514   3.280  14.789   1.292 -0.0887 -0.1396 -0.0793
26661W        W45515   2.913   3.459  16.766  0.1026 -0.1268 -0.0968
26662W        W45516   5.527  16.914   5.438 -0.0292 -0.0385  0.1720
26663W        W45517   3.378  14.361   4.850 -0.1238 -0.1304  0.4740
26664W        W45518  14.361   7.427  16.337  0.0490  0.0304 -0.1755
26665W        W45519   0.208  13.298   3.135  0.0466  0.0424  0.0498
26666W        W45520   3.442  12.076  14.619 -0.0323  0.0463  0.2471
26667W        W45521   1.620   8.815   3.226  0.4183  0.1377  0.1227
26668W        W45522   9.211   8.908   5.285  0.1223 -0.0637 -0.2469
26669W        W45523  11.329   1.467  16.799 -0.0282 -0.0078 -0.1755
26670W        W45524   6.172   3.530   3.473  0.0625  0.0868  0.0796
26671W        W45525  11.935  13.775  12.626 -0.0707  0.0553 -0.2063
26672W        W45526   9.768  16.614   2.616 -0.0809 -0.2263 -0.1315
26673W        W45527   8.592  16.541   3.190  0.2032 -0.1227  0.2294
26674W        W45528  14.601  16.965  16.740  0.0662 -0.1852 -0.1619
26675W        W45529  12.471   8.571   4.122  0.1039 -0.1517 -0.2741
26676W        W45530  10.520   7.891   1.695 -0.1226  0.2644 -0.0362
26677W        W45531  10.586   0.861  12.356 -0.0685  0.1907  0.1372
26678W        W45532  12.031  11.162  17.438  0.0465  0.1665  0.0120
26679W        W45533  16.065   9.675   0.710  0.0907  0.0531  0.0606
26680W        W45534   5.503   1.309   3.119  0.0699  0.2413 -0.2910
26681W        W45535   4.687   5.516  17.247 -0.0216  0.0831  0.2892
26682W        W45536   8.294   8.976  17.458 -0.0516  0.3040  0.1150
26683W        W45537  16.477   3.628   4.601 -0.0892  0.3203 -0.1353
26684W        W45538  17.099  11.954  17.442 -0.0782  0.3639 -0.0698
26685W        W45539   3.767   4.068   1.880  0.0829 -0.0523 -0.0363
26686W        W45540   5.847   1.451  13.352  0.0471  0.2658 -0.3425
26687W        W45541   5.259   1.261  14.486 -0.1783 -0.1086  0.4178
26688W        W45542   7.874   0.762  11.771 -0.0925 -0.1245 -0.1371
26689W        W45543  13.681   2.857  16.520  0.0538  0.1595 -0.1183
26690W        W45544  15.058  11.167  16.398  0.0759 -0.0359 -0.0001
26691W        W45545   0.964  11.886  16.431 -0.3369  0.0410  0.0800
26692W        W45546   7.442   1.762  14.013 -0.1795  0.3235 -0.4421
26693W        W45547  10.730   3.335   1.840 -0.0726  0.2297 -0.0233
26694W        W45548   5.686  11.028  14.627 -0.0141 -0.1610 -0.0516
26695W        W45549  11.088  17.173  17.397  0.3252 -0.1810 -0.0468
26696W        W45550   3.665  16.263  12.824 -0.1353 -0.3602 -0.0916
26697W        W45551   8.740   8.058   2.751 -0.1180 -0.1538  0.0368
26698W        W45552  11.700   4.106  15.636 -0.1689  0.2933  0.1207
26699W        W45553  10.210   5.355   1.479  0.1238  0.2275 -0.3979
26700W        W45554   2.684   0.669  13.282  0.0347 -0.2355 -0.0437
26701W        W45555  15.345  12.994   0.670 -0.2465 -0.1977  0.0660
26702W        W45556  14.380  11.629   0.750  0.0885  0.4956  0.0531
26703W        W45557  10.705   4.424  15.771  0.1624  0.2932 -0.0181
26704W        W45558   6.758  14.715   0.300  0.1943 -0.0780 -0.1400
26705W        W45559   9.526   8.221   3.681 -0.3422  0.1552 -0.1021
26706W        W45560   2.014   9.299   2.854 -0.0375  0.0500  0.0541
26707W        W45561  11.377   2.400  15.071 -0.3094 -0.1096  0.0730
26708W        W45562  11.498  12.803   0.842 -0.0128  0.1671 -0.3151
26709W        W45563  12.234   0.768  14.854 -0.2814  0.0813  0.1138
26710W        W45564   6.737   0.389  17.141  0.1086 -0.0848  0.3512
26711W        W45565  14.501   2.520   3.026 -0.1939  0.0038 -0.0256
26712W        W45566  10.473   4.046  13.048  0.0573 -0.1655  0.0884
26713W        W45567  16.033   6.854  14.967  0.2161 -0.1800 -0.1092
26714W        W45568   9.467   9.287  11.902  0.0336  0.1971  0.2694
26715W        W45569  12.594   9.138  14.972 -0.1895 -0.1220 -0.1323
26716W        W45570   9.146   5.220   0.531 -0.1279  0.2457  0.0848
26717W        W45571   6.628  12.070   3.144 -0.0310 -0.1084  0.3332
26718W        W45572   7.796  12.526  12.165  0.0471 -0.4745 -0.1367
26719W        W45573   6.127  14.121  14.338  0.4207  0.2197 -0.0964
26720W        W45574   4.351   4.621   1.130 -0.0015  0.2547 -0.1322
26721W        W45575  13.938   4.398  14.957  0.0643 -0.0840 -0.2630
26722W        W45576  16.085   1.307   4.527 -0.1679 -0.3593  0.1259
26723W        W45577  16.681  12.432   1.713  0.3243 -0.1748 -0.0827
26724W        W45578  16.402  10.511  12.335 -0.2762 -0.2311 -0.0567
26725W        W45579  11.781  13.219  14.996  0.1968  0.2118  0.0851
26726W        W45580  14.973   7.582   0.405 -0.4285  0.4011  0.0153
26727W        W45581   4.545  15.150   3.504  0.3377 -0.1200 -0.0322
26728W        W45582  16.709  10.123  16.682 -0.2565  0.0884  0.0325
26729W        W45583  10.467  14.909   4.742 -0.0171 -0.0610  0.1877
26730W        W45584   2.279  15.268   5.183 -0.0710  0.0445  0.0484
26731W        W45585   8.717   3.315  14.670 -0.1935  0.0999 -0.1355
26732W        W45586  16.323   7.654  15.167 -0.1218  0.0493  0.0911
26733W        W45587  12.989  14.915  17.261  0.4017  0.0974 -0.0369
26734W        W45588   6.943  12.091   4.940  0.1042  0.1731 -0.1150
26735W        W45589  12.340   0.164   3.869  0.0315  0.0313 -0.2164
26736W        W45590  17.017   8.949   3.580  0.1223  0.0951 -0.3281
26737W        W45591   4.483   0.713  13.183 -0.0497 -0.1140  0.0818
26738W        W45592  14.170   9.283  12.245 -0.0262  0.0575  0.1441
26739W        W45593   8.741   9.902  17.198  0.2211 -0.0197 -0.4216
26740W        W45594   1.015  10.367   0.330  0.0891 -0.0539  0.2381
26741W        W45595   5.407  13.007   2.990 -0.2635 -0.2226  0.0212
26742W        W45596   2.259   9.601  15.165  0.0225  0.0790 -0.0896
26743W        W45597   3.646   2.733   5.080  0.0505 -0.1076  0.3225
26744W        W45598   6.900   3.101   3.828 -0.1534  0.1873 -0.0835
26745W        W45599   3.514   4.358   0.676  0.0893  0.2684 -0.1864
26746W        W45600  13.295   8.898   3.589 -0.1408 -0.0894  0.3358
26747W        W45601   2.400   5.782  17.158 -0.3074 -0.0176  0.1039
26748W        W45602   2.342   0.303  14.440  0.0053 -0.0424  0.6399
26749W        W45603  15.157   0.773  16.326  0.0575 -0.0682  0.1053
26750W        W45604   0.785   3.260  12.286  0.2061  0.2485  0.1630
26751W        W45605  13.971  14.772  12.966 -0.0629  0.2865 -0.2173
26752W        W45606   3.638   4.678   2.650  0.1916  0.0978 -0.0781
26753W        W45607   7.501   7.418  16.505  0.1554  0.1744  0.2136
26754W        W45608   5.117   4.352   1.621  0.0831 -0.0238 -0.2483
26755W        W45609   7.270  12.591  15.162 -0.2713 -0.0743  0.2707
26756W        W45610  14.423   6.478   2.998  0.0826  0.2287  0.2692
26757W        W45611   1.596  11.374  14.707 -0.2208 -0.2132  0.0429
26758W        W45612  15.098   6.692  16.180 -0.0577 -0.0465  0.1806
26759W        W45613  13.359  11.751   4.274 -0.1953  0.0867  0.1052
26760W        W45614   5.350   2.683  15.850 -0.1462  0.2727 -0.0788
26761W        W45615   5.259   4.982  16.664 -0.1083  0.0029 -0.0227
26762W        W45616   3.819   9.724   2.297 -0.0251  0.2669 -0.3175
26763W        W45617   4.943  15.506   2.194 -0.2570 -0.4256 -0.1764
26764W        W45618   2.426   8.970  15.058 -0.0136  0.1588  0.1035
26765W        W45619  15.107  11.698   4.190  0.3065  0.0164 -0.0040
26766W        W45620   8.902  16.967   4.459 -0.1256  0.0556  0.1634
26767W        W45621  11.093   8.682   4.256 -0.2649  0.1991 -0.1284
26768W        W45622   4.231   7.194  13.334  0.0842 -0.0814  0.0671
26769W        W45623  10.000   1.542   1.314  0.1082  0.0414  0.3248
26770W        W45624  15.083  15.014  15.440 -0.0779 -0.0916 -0.0766
26771W        W45625  17.261  14.852  15.890  0.2319  0.1440  0.1513
26772W        W45626   3.880  13.015  15.779  0.2253  0.0401  0.1806
26773W        W45627   8.536   9.505   1.569  0.2065 -0.0852  0.1389
26774W        W45628   5.719   6.123  12.604  0.2941 -0.2552 -0.0840
26775W        W45629  13.451   3.325  13.886 -0.4520  0.0243  0.0999
26776W        W45630   7.891   8.855  17.196 -0.0046  0.1445  0.2510
26777W        W45631   9.361   5.396  12.707 -0.2457  0.0206 -0.0271
26778W        W45632  12.621   3.521  13.450 -0.1479 -0.0614  0.2747
26779W        W45633   0.435   2.303  17.327 -0.2353 -0.1633  0.0199
26780W        W45634  10.600  10.608  13.049 -0.0362  0.0191 -0.0372
26781W        W45635  15.005   4.653   3.835 -0.3741 -0.0885 -0.0735
26782W        W45636  11.938   9.490   0.539  0.1109  0.1002 -0.0013
26783W        W45637   3.868   8.423  11.496  0.2566 -0.0432 -0.2426
26784W        W45638   0.380   3.934  15.260  0.0225 -0.0484 -0.5863
26785W        W45639  15.140  13.879   2.754 -0.0174  0.2593 -0.0755
26786W        W45640  14.768  17.113  17.184 -0.1442 -0.2836  0.1730
26787W        W45641   1.852  10.589  17.100  0.0618 -0.2156 -0.0592
26788W        W45642  14.239  10.466   2.661  0.1462 -0.4066 -0.2330
26789W        W45643  15.890  10.119   2.402 -0.1390  0.1877  0.1194
26790W        W45644  13.975   2.583   4.824  0.1467 -0.2071 -0.0243
26791W        W45645  10.661  11.852   2.549 -0.0818 -0.0000 -0.0631
26792W        W45646   7.238   3.952  16.430 -0.2159 -0.1011  0.0740
26793W        W45647   0.947   0.025  16.787  0.0604  0.0230 -0.0252
26794W        W45648   7.973   5.767   3.131 -0.0681  0.0082  0.0553
26795W        W45649   6.576   8.337  12.342 -0.0551 -0.1966  0.4246
26796W        W45650   4.432   7.835  15.378  0.0713  0.3855  0.1326
26797W        W45651   4.439  11.557   3.154 -0.0438  0.0258 -0.0279
26798W        W45652  12.025   7.586  13.257  0.1049 -0.3085 -0.2374
26799W        W45653   8.595  17.313   4.194  0.0392 -0.0378 -0.1441
26800W        W45654   1.392  14.811   2.533 -0.2533  0.0097 -0.1159
26801W        W45655   1.210   9.205   2.235 -0.1876  0.1509  0.0717
26802W        W45656   3.037  12.666  16.932  0.1701  0.0150  0.0011
26803W        W45657   1.328   9.666   4.688  0.2488 -0.1478 -0.0460
26804W        W45658  15.034   8.023  14.933  0.0965  0.1064 -0.3812
26805W        W45659   8.141  10.434  12.710  0.1833  0.3764 -0.1134
26806W        W45660  13.988  11.594  13.780 -0.3983 -0.2508  0.1513
26807W        W45661   4.808   2.929  14.204 -0.0952  0.1535  0.2592
26808W        W45662  14.907  16.416  11.298 -0.0455  0.0160  0.1028
26809W        W45663   5.160   0.825   0.259  0.0613 -0.0589 -0.1832
26810W        W45664  13.196  11.247  15.437  0.2386  0.5176 -0.3969
26811W        W45665   5.342   4.845  14.621  0.0722 -0.0643 -0.2863
26812W        W45666   3.077  15.506  15.089 -0.1152 -0.1051  0.2941
26813W        W45667   5.743   5.358   3.111  0.4304 -0.1833  0.1489
26814W        W45668   8.264   7.197   2.394  0.0371  0.0139  0.3271
26815W        W45669  16.128  16.090  13.795 -0.0065 -0.0614 -0.1937
26816W        W45670  11.450  11.256   2.894  0.0171  0.2423 -0.3090
26817W        W45671  14.862  13.403   5.124  0.0120  0.1760 -0.1868
26818W        W45672  15.515   8.824   1.685 -0.1287 -0.0758  0.0745
26819W        W45673  15.812   9.066   2.553  0.0474  0.2766 -0.1952
26820W        W45674   6.492   0.754  12.667  0.0558 -0.0144 -0.2973
26821W        W45675  16.718  15.836  15.630 -0.0629  0.0778 -0.0342
26822W        W45676  13.815   9.915   1.704  0.0069  0.0218 -0.0185
26823W        W45677  15.888   8.577   5.764 -0.1490 -0.1298  0.0041
26824W        W45678   6.943  11.941  16.348  0.1041  0.1387 -0.0289
26825W        W45679  15.995  15.051  16.910 -0.1383 -0.3055  0.0108
26826W        W45680   5.047  11.688  13.241  0.0640  0.0089  0.0506
26827W        W45681  12.075  14.684   3.650 -0.0158  0.0300 -0.3646
26828W        W45682   2.301   7.421  16.427 -0.3961  0.1885 -0.1502
26829W        W45683   7.512   4.194   0.730 -0.0488  0.0990  0.2374
26830W        W45684  13.756   2.427   0.057 -0.1428 -0.1004  0.1356
26831W        W45685  11.275  12.828   1.283  0.0669 -0.0821  0.2056
26832W        W45686   9.782   6.266   2.517  0.0507  0.2054  0.2044
26833W        W45687  15.476   5.231  17.239  0.1822 -0.3374  0.2421
26834W        W45688  15.475   3.505  13.424 -0.0971  0.2964  0.0023
26835W        W45689   6.105   4.475  16.365  0.1337  0.0738 -0.2701
26836W        W45690   4.206   5.201   3.855 -0.2524 -0.0013 -0.2586
26837W        W45691   3.880   0.307   1.083 -0.0483  0.0906  0.0420
26838W        W45692   0.629  10.997  16.825  0.0822 -0.0412 -0.0978
26839W        W45693   4.545   7.469   2.211 -0.2478 -0.1740  0.0834
26840W        W45694   9.361  15.000  17.343  0.2069 -0.3446  0.0820
26841W        W45695  17.251  17.160  16.768  0.0479 -0.0221 -0.0257
26842W        W45696   7.755  15.978   4.137 -0.2717 -0.3826 -0.0639
26843W        W45697  16.819   6.143   3.612  0.1419 -0.2987  0.0529
26844W        W45698  14.999   4.819  15.855  0.0674 -0.3560  0.1191
26845W        W45699  11.433   0.919  16.706  0.1624 -0.1093  0.0797
26846W        W45700   8.660  12.252   4.592  0.0745  0.2885  0.4529
26847W        W45701  12.847   5.146   5.200  0.1107 -0.1768  0.0535
26848W        W45702   1.222  12.742   0.968  0.0325  0.1984  0.2822
26849W        W45703   5.191  16.102   2.753 -0.0447  0.1032  0.1355
26850W        W45704  14.013   6.234  15.478  0.1108  0.2420 -0.1908
26851W        W45705   8.808  12.014  12.493  0.1172  0.2562 -0.1506
26852W        W45706  11.753   2.328   4.201 -0.1805  0.3220  0.1471
26853W        W45707   0.464  11.612   2.480 -0.1205 -0.0912  0.0648
26854W        W45708   9.197   9.208  15.652 -0.2668 -0.0435  0.1371
26855W        W45709  11.914  15.091  14.623 -0.0412 -0.2182  0.1606
26856W        W45710   3.804  16.924  17.058  0.1573 -0.3837 -0.5408
26857W        W45711   9.579   7.571   4.909  0.1684 -0.1297 -0.3254
26858W        W45712  12.189   2.632   3.300 -0.0893  0.0284  0.0897
26859W        W45713   9.723   9.783  13.510  0.0834 -0.1361 -0.0321
26860W        W45714  15.838   5.707   3.653  0.2180  0.2103  0.1743
26861W        W45715   3.118   8.957  13.883  0.0385 -0.0871 -0.2367
26862W        W45716  16.988  13.600   0.549  0.1661 -0.2254 -0.0264
26863W        W45717   6.806  10.439  15.007  0.2111 -0.1637 -0.0199
26864W        W45718  14.801   8.343  14.044  0.4181  0.0061 -0.1252
26865W        W45719  14.573   2.529   1.590  0.1613 -0.1510  0.0568
26866W        W45720   6.598  11.587   4.916  0.0321 -0.1007  0.1774
26867W        W45721   6.368  10.312  16.142  0.2669  0.1384  0.3341
26868W        W45722  13.482  14.460  15.078  0.0767  0.0708 -0.1418
26869W        W45723  12.303   9.659   5.230 -0.3809 -0.3590  0.0258
26870W        W45724  10.593  11.632   5.063 -0.3850  0.0684 -0.0072
26871W        W45725  10.488   1.058  14.051 -0.0048  0.0927 -0.0870
26872W        W45726   4.710  12.950  12.375  0.2134  0.0216  0.0800
26873W        W45727   8.826  11.051   3.883 -0.0318  0.1153  0.1490
26874W        W45728  14.171  16.032  15.123  0.0269 -0.1008 -0.0072
26875W        W45729   3.815  17.161   4.222  0.1024  0.3785 -0.1993
26876W        W45730   0.302   8.866   4.243  0.1882  0.0366  0.1493
26877W        W45731   2.063   2.169   5.454  0.0506 -0.1201  0.1203
26878W        W45732   4.619   8.191   2.983 -0.1131  0.1706  0.0753
26879W        W45733  16.262  13.401   1.183  0.0088 -0.1616  0.2575
26880W        W45734   7.988   9.701   4.846  0.1129 -0.1086  0.0896
26881W        W45735  12.139   5.713  13.069  0.5844  0.0530 -0.0534
26882W        W45736   6.686  16.526  16.741  0.0198 -0.0306 -0.0852
26883W        W45737   6.168  11.551   0.302 -0.0252 -0.0805 -0.2028
26884W        W45738   4.367   7.964  16.408 -0.4236 -0.1455 -0.1305
26885W        W45739   7.307   8.704   0.563  0.0493  0.1082  0.2516
26886W        W45740  12.259  14.277  14.041  0.0502  0.1832 -0.0493
26887W        W45741   6.015   7.906  13.415 -0.0116 -0.2192 -0.2477
26888W        W45742   9.060   4.948  15.042  0.1818  0.1705 -0.2850
26889W        W45743   5.521   8.765  16.869 -0.1526 -0.1918  0.2575
26890W        W45744   4.840  11.577  15.951  0.3382  0.1923  0.2412
26891W        W45745   7.659  13.718   0.837 -0.0921 -0.0074  0.2334
26892W        W45746   2.031  14.580  12.852 -0.2296  0.2036  0.1556
26893W        W45747   3.780   4.107   1.379 -0.1532 -0.1699 -0.4160
26894W        W45748  13.128   4.404  16.416 -0.1185 -0.2326 -0.3763
26895W        W45749   0.853   7.935  15.603  0.2360 -0.0851 -0.1928
26896W        W45750  10.900   2.321   0.577 -0.1457  0.0393  0.0140
26897W        W45751   1.327   5.073  12.536  0.1719  0.0398  0.0074
26898W        W45752   7.477  15.143   0.688 -0.1401  0.1755 -0.1381
26899W        W45753   6.989   2.029  12.523 -0.0144 -0.1871  0.1654
26900W        W45754  12.867  12.409   4.923 -0.0301 -0.0765 -0.3029
26901W        W45755  10.699   9.122  14.627  0.2147 -0.1897 -0.0848
26902W        W45756   6.126  16.907  14.594 -0.2666  0.0509 -0.3895
26903W        W45757   5.343   4.575   5.055 -0.1737  0.0240  0.0456
26904W        W45758  16.128   9.816   3.098 -0.2498 -0.1651  0.3492
26905W        W45759  14.157   4.594   1.531  0.0661 -0.2161  0.0440
26906W        W45760  11.987   3.754   4.683  0.1097  0.0269  0.0328
26907W        W45761   6.479   8.274   3.920 -0.0958  0.0259  0.2273
26908W        W45762   4.489   2.198   3.547 -0.0354 -0.1204  0.0473
26909W        W45763  12.602   8.325  16.374  0.2171 -0.2183  0.1867
26910W        W45764   7.320  11.870   0.096 -0.0989  0.1257  0.0330
26911W        W45765   5.687  13.873  16.764 -0.2780  0.1012 -0.3060
26912W        W45766   9.352  11.675  15.583  0.0430 -0.1454  0.0075
26913W        W45767   0.490  11.780   4.291 -0.0975 -0.1121 -0.1561
26914W        W45768   9.523   5.596   1.276  0.0086  0.2327  0.1415
26915W        W45769  13.973  17.099   4.078 -0.2129 -0.0663  0.3366
26916W        W45770  16.818   1.348   1.605 -0.1963  0.0940 -0.1186
26917W        W45771   9.005   8.919   2.654  0.0569  0.4186 -0.0005
26918W        W45772  15.144   3.353  17.160 -0.1082  0.1272  0.0001
26919W        W45773   0.666  16.654   4.199 -0.4308  0.0687  0.0419
26920W        W45774  11.086  10.159   0.802 -0.0366 -0.0529 -0.0998
26921W        W45775  14.384   3.877  16.496  0.0681  0.1396 -0.1362
26922W        W45776   0.165   0.629   1.769  0.0648 -0.0698  0.2858
26923W        W45777   4.801   6.245  15.784  0.0035 -0.0750 -0.0581
26924W        W45778   6.279  16.120  13.429  0.0045 -0.1621  0.1118
26925W        W45779   6.448  14.272  15.809 -0.1904  0.1741  0.1389
26926W        W45780  16.348   6.301  16.782  0.3237 -0.2899  0.1445
26927W        W45781   8.785   3.187  15.724  0.1243  0.0088  0.1207
26928W        W45782   0.870  13.976   5.337  0.1785 -0.0666  0.3564
26929W        W45783   5.014   9.378   1.996  0.2133  0.1919 -0.1053
26930W        W45784   6.489   7.122  13.005 -0.0961 -0.2048  0.2226
26931W        W45785   7.038   4.928   2.173 -0.3482  0.0099 -0.2075
26932W        W45786  14.630  17.343  14.368 -0.2587 -0.0284  0.0616
26933W        W45787   9.645   8.277  14.412 -0.2874 -0.1507 -0.2799
26934W        W45788   0.518   5.442   4.723  0.1576  0.3946 -0.2213
26935W        W45789   2.292   7.231   0.782  0.2354 -0.0559 -0.3347
26936W        W45790  10.711  13.332  13.570  0.0614  0.2879 -0.1012
26937W        W45791   5.681   9.444   3.689  0.2092 -0.1416 -0.3433
26938W        W45792  13.872   0.546   1.211 -0.2373 -0.0217  0.0111
26939W        W45793  15.002   5.742   0.564 -0.0255  0.3379 -0.1239
26940W        W45794   6.743   3.271  15.538  0.2255  0.0890  0.1547
26941W        W45795  12.442  17.161   1.631  0.0013  0.1607  0.0230
26942W        W45796   6.623   8.462   4.892  0.2192 -0.1132  0.0803
26943W        W45797  10.080   3.336   2.578  0.0353 -0.1574  0.0006
26944W        W45798  15.363   8.221   3.822 -0.2024 -0.0711  0.1664
26945W        W45799   9.408   2.185  16.318  0.0573  0.1088 -0.1500
26946W        W45800   6.737  15.206   2.948 -0.1089  0.2850 -0.0550
26947W        W45801  12.146  17.004  14.717 -0.2241 -0.3527 -0.0179
26948W        W45802  12.604   3.625   4.806 -0.0638  0.1880 -0.0225
26949W        W45803  15.231  11.729   2.345  0.0850  0.0478 -0.0399
26950W        W45804   7.981   1.927   0.098 -0.2127 -0.2218  0.2259
26951W        W45805   8.200   8.846   1.073 -0.1818 -0.1644 -0.0734
26952W        W45806   8.944   0.996   0.471 -0.1511 -0.0149  0.0627
26953W        W45807   1.185   6.518  13.789  0.0315 -0.0730 -0.0027
26954W        W45808  16.806   8.764  13.507  0.0458 -0.1708 -0.0365
26955W        W45809  15.657   9.034   3.610 -0.0196 -0.0185 -0.3479
26956W        W45810   5.344  11.596   5.426 -0.2555  0.1594  0.0781
26957W        W45811   6.923   9.860   0.333  0.1291 -0.2005  0.0384
26958W        W45812   4.590  16.778  16.504 -0.1352 -0.1521  0.0733
26959W        W45813   6.351   1.192   2.224  0.0308  0.0497 -0.2622
26960W        W45814   8.680   1.701   4.276  0.0256 -0.2426  0.2003
26961W        W45815   8.892   7.762   1.839 -0.1126  0.0761  0.1159
26962W        W45816   9.679   1.105   4.930  0.1009  0.0813  0.0059
26963W        W45817  12.300  13.006  15.078  0.0233 -0.0909 -0.1314
26964W        W45818  14.525  13.414  13.486 -0.0038  0.1487  0.0066
26965W        W45819  14.719   9.835  12.921 -0.1908  0.1863  0.0612
26966W        W45820   0.506   9.646  12.774 -0.1238  0.2506  0.1302
26967W        W45821   6.876   4.273   0.011  0.0484 -0.1436  0.1946
26968W        W45822   5.088  16.065   2.244  0.0640  0.0015  0.0894
26969W        W45823  11.982  13.298  12.948  0.0320 -0.1089  0.0991
26970W        W45824  14.148  16.079  13.251  0.0098  0.1284 -0.0769
26971W        W45825   3.287   3.628   5.737  0.0500 -0.0820  0.0519
26972W        W45826   8.479   3.775   2.099 -0.0306  0.0976  0.2352
26973W        W45827   4.267  10.936  13.209  0.0747  0.0716 -0.2331
26974W        W45828   1.803   8.977   5.292  0.1957  0.1156 -0.0460
26975W        W45829  16.072   4.765   4.802 -0.0132 -0.2375  0.4581
26976W        W45830  17.211  14.953   3.944 -0.1743 -0.1591  0.0318
26977W        W45831  16.269   6.112   1.035 -0.2705 -0.2686  0.1571
26978W        W45832   6.756   4.169   5.694  0.1322  0.0323  0.1066
26979W        W45833   1.658   9.705  15.185  0.0242  0.1465  0.0504
26980W        W45834   1.057  14.296   4.241 -0.0322 -0.0455 -0.3130
26981W        W45835   9.335   0.084  12.899 -0.1466  0.1597 -0.0122
26982W        W45836   2.383  13.422   2.977  0.2478  0.2351  0.0937
26983W        W45837  13.010   8.105  13.825 -0.0468  0.3382  0.3600
26984W        W45838   2.264   3.023  15.224 -0.1790 -0.0880 -0.0587
26985W        W45839   5.338  15.166   2.141  0.1186 -0.0148  0.1984
26986W        W45840   0.223   4.764   0.638  0.1862 -0.2622  0.0027
26987W        W45841   9.203   3.818   4.548  0.0352 -0.1386  0.1386
26988W        W45842   5.692   2.144   0.906 -0.1643 -0.3818 -0.1440
26989W        W45843   0.776   1.978  12.628  0.1964 -0.3219  0.0611
26990W        W45844  12.568   9.875   4.197 -0.2929  0.3273  0.1004
26991W        W45845  13.247  14.181  17.179  0.0302 -0.0246  0.0370
26992W        W45846   2.138   5.586   2.777 -0.0565 -0.1755 -0.0047
26993W        W45847  15.568   2.548   2.153  0.3116  0.0792 -0.1585
26994W        W45848  14.171   5.150  14.000  0.3096  0.0254 -0.1674
26995W        W45849  12.138   1.353  17.189  0.0295 -0.0983  0.2939
26996W        W45850   9.389  16.017   3.833  0.2040  0.1273 -0.1500
26997W        W45851   2.306  11.249  17.096  0.2369 -0.1281 -0.0582
26998W        W45852   5.689   3.547   4.424 -0.0948 -0.0868 -0.1823
26999W        W45853   0.221  10.300  16.751  0.1889  0.0540 -0.0056
27000W        W45854   0.136   4.782  14.887  0.2423  0.3313 -0.3496
27001W        W45855  10.275  14.849   1.611 -0.0799 -0.0479 -0.1673
27002W        W45856  10.057   4.258  16.540 -0.1648  0.0256  0.2559
27003W        W45857  13.481   7.859  15.027 -0.0726 -0.1332  0.0324
27004W        W45858   3.258  10.786   4.540 -0.1158  0.0223  0.5209
27005W        W45859   2.524   0.813  17.059  0.1373 -0.3179 -0.2888
27006W        W45860   7.690   0.050   1.506 -0.0299 -0.3467  0.1867
27007W        W45861  10.187  11.776  13.106  0.2381 -0.0265  0.0691
27008W        W45862  16.898  11.206  16.084  0.3316  0.1171 -0.0445
27009W        W45863   1.264   9.170  16.837 -0.0880  0.1531  0.2110
27010W        W45864   9.196   9.904  15.713 -0.0026 -0.1090  0.2185
27011W        W45865   5.204  13.545   0.565 -0.1515  0.1619  0.0259
27012W        W45866  11.147  10.223   4.248  0.0987 -0.0370  0.0366
27013W        W45867  11.352   9.397   0.401 -0.0696 -0.0445  0.0742
27014W        W45868   1.334  13.920  13.051 -0.1814 -0.1686 -0.4022
27015W        W45869  14.740   0.872   0.311 -0.0423 -0.0375  0.5597
27016W        W45870  13.190  17.173  16.570  0.1829 -0.1160 -0.2540
27017W        W45871  11.405  13.756  16.862 -0.1636  0.0353 -0.1175
27018W        W45872   9.628   8.285  14.879 -0.1469  0.2866 -0.0382
27019W        W45873  15.643   9.786  17.197 -0.1557 -0.2178  0.1131
27020W        W45874  11.622  14.932  15.467 -0.0126 -0.1843  0.1790
27021W        W45875   7.043  15.033  12.636  0.0935 -0.1006  0.2045
27022W        W45876  17.118  11.199   0.766 -0.1334  0.1158 -0.2103
27023W        W45877   3.910   6.365   4.146  0.0573 -0.2215  0.1330
27024W        W45878  13.154   6.225   4.101  0.1883  0.0705 -0.0714
27025W        W45879  13.995  15.592   4.489 -0.4405  0.1241  0.0901
27026W        W45880   0.006  10.532   0.207  0.1866 -0.1513 -0.0403
27027W        W45881  12.191  13.305   3.217 -0.0717  0.0636  0.0602
27028W        W45882  14.002   0.720   3.694 -0.1760  0.2883 -0.1046
27029W        W45883   6.326   2.717   1.195 -0.1132  0.1576  0.0034
27030W        W45884  16.592  14.890  15.697 -0.0990  0.1240 -0.0324
27031W        W45885  11.637  16.527  13.493 -0.3470  0.1349 -0.0685
27032W        W45886  11.199   9.265  12.505 -0.2704  0.0620  0.3784
27033W        W45887   4.479   6.587  15.986  0.0213  0.0102 -0.3513
27034W        W45888   2.374   4.887  13.585 -0.0018 -0.0229 -0.0255
27035W        W45889   6.751   6.804   5.535  0.0378 -0.1216  0.2336
27036W        W45890   7.551  12.178  16.039 -0.1739  0.1614 -0.3335
27037W        W45891  15.193   0.316   5.107  0.1069 -0.0046  0.1851
27038W        W45892   4.313  14.654  16.748  0.1717 -0.0999  0.1525
27039W        W45893   8.083   4.854   3.189 -0.0710 -0.2422  0.1590
27040W        W45894   8.508  16.922  13.935  0.1577  0.1367  0.1100
27041W        W45895  15.215  11.889  15.729  0.4520  0.0967 -0.1460
27042W        W45896   9.838   8.672   2.578 -0.2268 -0.2098 -0.0322
27043W        W45897   4.940  16.362   5.304  0.2515 -0.2305  0.0547
27044W        W45898   9.709   5.813   0.459  0.2725  0.1462  0.0732
27045W        W45899   3.300  16.124   5.215  0.1538  0.0739 -0.1280
27046W        W45900   6.483   1.329   0.132 -0.1469  0.3098 -0.2272
27047W        W45901  16.221   3.999   4.320  0.0705  0.2309  0.1727
27048W        W45902   7.394   3.415   0.273 -0.1307 -0.0334  0.0376
27049W        W45903   7.608   9.663  15.914 -0.0577 -0.1009  0.2750
27050W        W45904  10.311   2.262  12.929  0.0842  0.0370 -0.0084
27051W        W45905  15.097   4.181  12.828  0.1070 -0.2240 -0.1346
27052W        W45906   2.672  16.070  13.099 -0.0546  0.0079 -0.1381
27053W        W45907   6.612   2.969  16.325  0.1273 -0.0788 -0.0373
27054W        W45908   4.652   0.876  13.661 -0.0884 -0.1020 -0.1184
27055W        W45909   7.433  16.493   1.404  0.1890 -0.1113  0.1136
27056W        W45910  10.123  12.033  16.912  0.1627 -0.0532 -0.0183
27057W        W45911  17.241   6.503   4.759  0.0085 -0.1727 -0.0156
27058W        W45912   1.886  15.040  12.721 -0.0392 -0.2260  0.0394
27059W        W45913  13.897   0.743  17.168  0.1427  0.0669 -0.1233
27060W        W45914  10.333  15.907  17.442  0.0084  0.2658 -0.3795
27061W        W45915  11.363   5.064   3.245 -0.2245 -0.1225 -0.0987
27062W        W45916  11.120   1.371  12.964 -0.1189  0.0048  0.2571
27063W        W45917  14.474  14.535   4.177 -0.0405  0.0310 -0.0689
27064W        W45918   1.774   4.355  15.291 -0.0316  0.1774  0.0451
27065W        W45919   3.785   6.794   3.328  0.3447 -0.1097 -0.3559
27066W        W45920  14.522  12.029   2.824  0.0488  0.0220  0.3581
27067W        W45921   6.560  12.064  11.906  0.1980  0.2937 -0.1574
27068W        W45922  16.298   6.363  15.831 -0.1605  0.2205 -0.1776
27069W        W45923  16.683   8.377  13.046  0.1877  0.2035 -0.0492
27070W        W45924   0.896   4.567   1.111 -0.0494  0.0867 -0.0838
27071W        W45925   9.425   7.962   3.249  0.0261 -0.0207 -0.0361
27072W        W45926   1.374  12.313   4.480  0.1614 -0.1474  0.0507
27073W        W45927   6.764  12.950  14.384 -0.2101 -0.1627  0.1880
27074W        W45928   9.889   0.512   1.373 -0.0867 -0.0368  0.0975
27075W        W45929  15.188   0.719  15.055  0.2614  0.2147  0.0111
27076W        W45930  16.081   0.265  14.626  0.2832 -0.2536  0.0216
27077W        W45931   0.496   6.470   0.417 -0.1964 -0.2062 -0.0854
27078W        W45932   4.065   4.310   3.847 -0.1344  0.0507 -0.1229
27079W        W45933  11.802   4.450  15.983  0.1345 -0.1019 -0.1765
27080W        W45934  15.599  15.867  15.210 -0.2605 -0.1375 -0.0745
27081W        W45935   2.218   3.462  13.997  0.0098 -0.0889 -0.1060
27082W        W45936  16.433  10.982   3.273 -0.1962  0.2224  0.1551
27083W        W45937   2.916   1.196   4.154 -0.0594  0.0942  0.2334
27084W        W45938  14.853  12.907   5.134  0.2522 -0.0755 -0.2795
27085W        W45939  13.020   0.139   2.984 -0.2645 -0.2834 -0.0991
27086W        W45940  12.677   3.161  14.576 -0.1233  0.1419  0.1048
27087W        W45941   6.536  15.989  13.960  0.0660 -0.1514 -0.1092
27088W        W45942  14.011  11.563  15.620  0.1958 -0.0798  0.0195
27089W        W45943  14.816   7.049   0.529 -0.1098  0.0221 -0.2376
27090W        W45944  16.192   8.769   0.492 -0.0334 -0.2865  0.2221
27091W        W45945  15.919   8.258   4.243 -0.3067  0.1742 -0.0914
27092W        W45946  17.071  14.811  16.555 -0.0321  0.1217  0.1411
27093W        W45947  10.641   5.693   0.506  0.1434 -0.0880  0.0458
27094W        W45948   5.881   3.154   3.585  0.0029  0.0525 -0.2107
27095W        W45949  16.326   5.767  16.605 -0.0020  0.2388  0.0614
27096W        W45950  10.769   1.815   0.574  0.1044 -0.0473  0.3923
27097W        W45951  10.264  14.279  12.460 -0.1461 -0.2673 -0.1604
27098W        W45952  10.554   3.557  12.817 -0.1961  0.2944  0.2384
27099W        W45953  13.526   7.853  16.465 -0.3997 -0.1021 -0.2053
27100W        W45954   6.116   1.910  12.412 -0.1256  0.0540  0.0502
27101W        W45955   5.389   1.902  15.084 -0.1777  0.0671 -0.0460
27102W        W45956  10.860   4.503  16.447  0.2093  0.0349 -0.1281
27103W        W45957  15.300   6.511   4.442  0.1253  0.2689  0.0015
27104W        W45958   0.197  14.714  14.959 -0.1750  0.0039 -0.3100
27105W        W45959   9.398  16.079   4.442 -0.0017  0.1366 -0.0114
27106W        W45960  11.061   7.602   3.232  0.0607  0.0623  0.4553
27107W        W45961  10.451   7.224   1.843  0.1204 -0.0270 -0.1300
27108W        W45962   4.816   7.902   0.087 -0.0916 -0.1764  0.0091
27109W        W45963   3.354  17.259   1.880  0.0101 -0.0990  0.2321
27110W        W45964  12.082   8.711  12.513 -0.1396 -0.0089 -0.2216
27111W        W45965   0.199   2.659  13.706 -0.3343 -0.1631  0.0683
27112W        W45966  11.040   5.186  13.599 -0.2928 -0.1300  0.1100
27113W        W45967   8.318   2.231   1.644 -0.0524 -0.1410 -0.3322
27114W        W45968  10.312   4.179   1.592  0.2050  0.2402 -0.0734
27115W        W45969   0.737  17.070  14.417  0.0718 -0.1599  0.0216
27116W        W45970   5.052   7.165   4.266 -0.2330  0.1419 -0.1564
27117W        W45971  15.697  16.963   3.965  0.0503 -0.2654 -0.2732
27118W        W45972   5.248  12.376   3.472 -0.2197 -0.0864  0.0362
27119W        W45973  13.840   6.591  14.117  0.0645  0.0566  0.1040
27120W        W45974   5.781   4.449   5.388 -0.0897  0.1810  0.1369
27121W        W45975  10.852   6.336  14.325 -0.1778  0.1776 -0.1242
27122W        W45976   4.402  11.829   0.611 -0.2120 -0.3382  0.1225
27123W        W45977  10.772  14.000   0.127 -0.1824 -0.0476  0.2660
27124W        W45978   3.038   1.833   2.719  0.0971  0.1546 -0.2038
27125W        W45979  11.020  15.583  13.256  0.1735  0.0411 -0.0585
27126W        W45980   0.554   0.889  14.618  0.3061  0.4238  0.2447
27127W        W45981  17.203  16.262  14.831 -0.1416  0.1085 -0.0643
27128W        W45982  17.078   3.184   1.652  0.0023 -0.0535  0.0908
27129W        W45983  16.443   4.595   3.665  0.1266 -0.0829 -0.0878
27130W        W45984   6.087   8.886  15.929  0.0022  0.1880 -0.0036
27131W        W45985   6.923   0.308   2.239  0.0167  0.1161  0.0586
27132W        W45986   2.649   5.565   1.303 -0.1396 -0.0583  0.0436
27133W        W45987   8.133   3.145  16.829  0.0413 -0.0376  0.2915
27134W        W45988   3.719   0.795  15.544 -0.1383  0.3080 -0.2478
27135W        W45989   5.614   9.253   0.300 -0.2066  0.1077 -0.2655
27136W        W45990  10.267   1.559  17.004 -0.0359  0.2455 -0.2385
27137W        W45991   1.198   1.492  13.404  0.3302  0.1715 -0.1121
27138W        W45992  10.383   9.307   0.216 -0.0454 -0.2844  0.2188
27139W        W45993   8.338   2.318  14.244 -0.2250  0.1821 -0.0807
27140W        W45994  10.340   9.861   4.492 -0.0261 -0.2342  0.0729
27141W        W45995   1.784  15.505   4.465  0.0264 -0.1129  0.0837
27142W        W45996  10.986   7.801  16.630  0.1974  0.1203  0.0440
27143W        W45997  16.600   4.705   3.188  0.0713  0.0363  0.1419
27144W        W45998   3.409   4.950   1.717 -0.1547  0.1443 -0.0591
27145W        W45999   5.583  15.000  16.652 -0.0379 -0.0365  0.3005
27146W        W46000  14.254  16.468  12.955  0.1281  0.0504  0.1602
27147W        W46001  14.275   9.577   4.159 -0.1816 -0.1625 -0.1633
27148W        W46002   3.611   4.005   5.462  0.2199 -0.0429 -0.0079
27149W        W46003  10.097   5.318   2.411 -0.0031  0.3046  0.0933
27150W        W46004   4.503   5.997  13.832  0.2498  0.3508  0.4134
27151W        W46005  15.898   6.883   2.561  0.3264 -0.1373  0.0383
27152W        W46006   7.284   8.824  16.189  0.2849  0.1018 -0.0862
27153W        W46007  15.622  10.749  16.361 -0.1015  0.1020 -0.0979
27154W        W46008  13.078   3.221  13.555 -0.0825 -0.0232 -0.0278
27155W        W46009   7.726  17.113   1.895  0.0241 -0.0147  0.1937
27156W        W46010  15.056  10.657   0.958  0.1722 -0.4515  0.0378
27157W        W46011  13.224   6.142  15.800  0.0834  0.4688  0.1574
27158W        W46012   7.431   4.915   1.348  0.2395  0.1529  0.1486
27159W        W46013   1.631   3.231   2.704 -0.2826 -0.1810 -0.3265
27160W        W46014   7.254  16.000   1.155 -0.1301 -0.2104 -0.2924
27161W        W46015   9.434  15.272  14.103 -0.3374 -0.2487 -0.0417
27162W        W46016  17.237   3.307   4.144  0.1772  0.1855  0.0487
27163W        W46017   2.591  12.885   4.214 -0.0602  0.4102 -0.0298
27164W        W46018  14.450  12.279   1.809 -0.1874 -0.0858 -0.0752
27165W        W46019  15.786  10.318   1.405 -0.1997  0.0337 -0.0492
27166W        W46020   5.913  13.467  15.652 -0.0449  0.1340  0.0686
27167W        W46021   7.496   5.591   4.191 -0.0689  0.2266  0.0626
27168W        W46022   2.972   0.144  15.512  0.0752 -0.1710  0.1304
27169W        W46023   7.475   9.150  17.209  0.0658  0.0515  0.0848
27170W        W46024  13.712  15.714  14.666  0.3629 -0.0467  0.0031
27171W        W46025   8.478   5.229  15.928 -0.0488 -0.0519  0.1252
27172W        W46026   3.917  11.280   0.406  0.2794  0.2051  0.0039
27173W        W46027   4.908   7.190  12.342 -0.1579 -0.2795  0.0394
27174W        W46028  12.021   7.453   2.727 -0.0714 -0.0854  0.0907
27175W        W46029  15.529  17.186  16.773 -0.0632 -0.1596  0.1294
27176W        W46030  15.269   4.411   6.048 -0.1012  0.0391 -0.0808
27177W        W46031   5.294   4.738  15.426  0.1671 -0.2248 -0.1357
27178W        W46032   8.885   0.441  16.183  0.0001  0.0569  0.1891
27179W        W46033   5.322   7.626  13.892 -0.1849  0.0639 -0.0179
27180W        W46034  12.717   1.810   5.109  0.0892 -0.2194  0.0290
27181W        W46035   9.089  13.172   2.247  0.0378  0.0968 -0.0104
27182W        W46036  15.303  15.820  13.731  0.3398 -0.0157 -0.0134
27183W        W46037  12.325  16.772   2.076  0.2972  0.1573 -0.3642
27184W        W46038   7.780   4.724  13.566  0.2624 -0.3636  0.2193
27185W        W46039  16.797   0.025  12.794  0.1262 -0.3117  0.0742
27186W        W46040   7.351  12.545  12.466  0.2369 -0.0555 -0.0985
27187W        W46041   9.180   4.387  15.079 -0.3255  0.0386 -0.0771
27188W        W46042  12.003   8.626   0.105 -0.0182  0.2640 -0.4268
27189W        W46043   0.585   6.862   2.048  0.0784  0.3494 -0.0263
27190W        W46044   9.474  12.789  14.835  0.1446 -0.0597  0.0944
27191W        W46045   7.963   2.683  16.631 -0.2230  0.2177  0.0254
27192W        W46046   7.166  12.344  14.332  0.0113 -0.2638  0.0249
27193W        W46047   2.472   7.892  16.241 -0.1577 -0.0836 -0.0028
27194W        W46048  14.710   5.174   4.881 -0.1289 -0.0891 -0.0672
27195W        W46049  10.891   8.214   4.290  0.1093  0.2239 -0.1879
27196W        W46050  11.175   3.437   1.436  0.1038 -0.1724  0.1893
27197W        W46051  13.018   5.435  14.041 -0.1073  0.2337 -0.1527
27198W        W46052  13.040  16.326  14.667 -0.0603  0.2204 -0.0278
27199W        W46053   5.661  11.455   0.113  0.3210 -0.0222  0.0548
27200W        W46054  12.122  10.863   1.768  0.1184  0.0184 -0.1938
27201W        W46055  12.077   3.330  15.197  0.1358  0.0113  0.1197
27202W        W46056   7.298   2.039   4.961  0.0826 -0.0129 -0.0352
27203W        W46057   9.940   9.264  14.109  0.1231  0.1218 -0.1923
27204W        W46058  13.252   4.345   4.829  0.1340  0.0643 -0.0724
27205W        W46059  13.179   1.825   0.801  0.2099  0.1906  0.1124
27206W        W46060   3.441   6.634   3.694  0.1373 -0.0008 -0.0531
27207W        W46061  12.753   8.157   2.763 -0.1688  0.1609  0.1767
27208W        W46062  16.476   4.010  13.545 -0.0954  0.0831  0.2566
27209W        W46063   1.846  11.888  16.059 -0.1981  0.1096  0.0772
27210W        W46064   7.910   0.062  15.969  0.1467  0.0573  0.0728
27211W        W46065   2.070  13.627   4.456 -0.1727 -0.3037 -0.0819
27212W        W46066   9.907   6.072   4.599 -0.2271  0.1965  0.1109
27213W        W46067  11.048   8.439  13.049  0.0324 -0.0282 -0.1117
27214W        W46068  14.259   6.722  16.869 -0.1955 -0.2455 -0.2243
27215W        W46069  16.349   5.985  14.955  0.1658  0.0489  0.1202
27216W        W46070   4.803  16.683  14.889  0.2032 -0.0359  0.1340
27217W        W46071   3.669   7.216   3.593  0.1781 -0.2456  0.3254
27218W        W46072  15.459   4.635  16.746 -0.1755  0.1150  0.3499
27219W        W46073  17.238  11.796  14.601 -0.0074  0.1770  0.3447
27220W        W46074  15.876  11.864   1.036  0.1100  0.1815 -0.2996
27221W        W46075  11.960  12.663  17.167 -0.2091  0.0226  0.1141
27222W        W46076   3.760   1.924  13.899  0.0932  0.2849  0.1068
27223W        W46077   5.199   7.506   2.847  0.0559 -0.2838 -0.2532
27224W        W46078   0.258  10.915   2.895 -0.0972 -0.0100  0.0257
27225W        W46079   9.716  12.133   2.610  0.1107 -0.1348 -0.0129
27226W        W46080  12.169  17.278   2.071 -0.2202 -0.4758 -0.0536
27227W        W46081   2.964   9.962  13.797 -0.0110  0.3199 -0.0232
27228W        W46082   0.884   4.668   4.158 -0.0801 -0.1836  0.1255
27229W        W46083   5.172  13.902   3.902  0.0565 -0.4210  0.3705
27230W        W46084   1.644  15.859   4.994 -0.2513 -0.0076 -0.0856
27231W        W46085  11.093   0.404   0.877 -0.1523 -0.4880  0.2079
27232W        W46086  16.033  13.038   5.713 -0.0258  0.3158 -0.0293
27233W        W46087   3.895  12.495   2.602 -0.1187 -0.1531  0.0466
27234W        W46088  11.028   3.716  14.280 -0.0032 -0.1340 -0.0032
27235W        W46089   5.206   2.491   2.511 -0.1178  0.1024 -0.0203
27236W        W46090   5.136   9.691   0.740  0.0177  0.0462  0.0102
27237W        W46091  12.859  10.862   4.224  0.1402 -0.2398 -0.1705
27238W        W46092  16.754   8.307   4.208 -0.2010 -0.2116 -0.0078
27239W        W46093   2.613   7.370   2.677  0.0130  0.1468 -0.1294
27240W        W46094   1.740   5.149   2.753  0.0020  0.0465 -0.0270
27241W        W46095   2.259  16.528  13.850 -0.1959 -0.1390 -0.0358
27242W        W46096   3.187   9.026  16.520 -0.1499 -0.2823  0.2131
27243W        W46097  17.262  11.673   3.016 -0.1964 -0.0896 -0.2227
27244W        W46098  10.709   0.944  12.884 -0.0067 -0.0877 -0.0214
27245W        W46099   0.279   3.401  14.482 -0.0788 -0.3241  0.4229
27246W        W46100  14.957  15.207  14.542  0.0530 -0.1787 -0.1350
27247W        W46101   9.601   6.419  16.650 -0.3550  0.0203  0.0791
27248W        W46102   8.352  15.306  16.614  0.2445  0.1775 -0.1830
27249W        W46103  12.747  17.317  16.348 -0.2107  0.0414  0.0314
27250W        W46104   6.909   4.232  15.524  0.1430  0.0509 -0.3306
27251W        W46105   9.265   0.790  12.307 -0.1954  0.0505  0.0442
27252W        W46106   2.238   6.678  13.569  0.0543 -0.0510 -0.1250
27253W        W46107   0.584   0.234   1.450 -0.3232 -0.1956  0.1635
27254W        W46108  14.878   2.347  15.240 -0.0116 -0.0948 -0.1354
27255W        W46109  17.199   2.582  12.927 -0.1186  0.0400 -0.1557
27256W        W46110   6.649  11.537   0.712  0.0640  0.1392  0.1767
27257W        W46111   6.874   9.147   1.612 -0.0401  0.3057 -0.0510
27258W        W46112   1.365  12.697   2.300 -0.1187  0.1709  0.3591
27259W        W46113   2.021   3.546  16.050  0.1685 -0.0404 -0.2487
27260W        W46114   7.786   5.336  13.364 -0.0350  0.5062 -0.1005
27261W        W46115  14.248  13.242   4.361  0.1448 -0.0652 -0.1219
27262W        W46116   2.293  15.559   0.613 -0.2476 -0.3159 -0.0124
27263W        W46117  16.932   9.991   4.609 -0.1453  0.1122 -0.1178
27264W        W46118   4.505  12.752  13.355 -0.0925 -0.2318 -0.0792
27265W        W46119   8.025  15.556   4.250  0.0619  0.1294 -0.2038
27266W        W46120  15.503  10.029   5.198  0.2167  0.2453  0.1992
27267W        W46121   0.489  15.892   1.850  0.0465  0.2131  0.1831
27268W        W46122  11.380  16.899   4.629  0.1568 -0.2881 -0.2681
27269W        W46123   0.086   9.225   3.768  0.1178 -0.1699 -0.1893
27270W        W46124   3.411  16.495   3.821  0.1826  0.3709 -0.1127
27271W        W46125   0.408  12.570  13.339  0.0758 -0.0565 -0.0662
27272W        W46126   6.712  10.550   5.336 -0.1318 -0.1173  0.2351
27273W        W46127  15.232   9.581   3.168  0.1299  0.0838  0.2145
27274W        W46128  17.206   1.969  13.775  0.0159 -0.0237 -0.1248
27275W        W46129   0.423  10.289  13.272  0.2175  0.2117 -0.1562
27276W        W46130   7.768   0.800  13.801  0.2094 -0.1989 -0.2892
27277W        W46131   3.733   9.087   3.253 -0.0265 -0.0442  0.0994
27278W        W46132   6.641  14.708   3.574 -0.1349 -0.3991 -0.0196
27279W        W46133   2.485   6.075   1.723 -0.2155 -0.2204  0.0856
27280W        W46134   9.429   7.307   0.825 -0.2286 -0.0522  0.1025
27281W        W46135  13.512   7.713   1.542  0.0203  0.1974  0.2109
27282W        W46136   2.881   2.794  15.280  0.0071  0.1846  0.1242
27283W        W46137  16.813   5.070  16.100  0.3098 -0.3122  0.1900
27284W        W46138   4.730   0.798   2.503 -0.3148 -0.2737 -0.0589
27285W        W46139  13.144   6.334   3.609  0.1454  0.3965 -0.3266
27286W        W46140  16.330  11.073   1.279  0.2255 -0.0560  0.1093
27287W        W46141   9.541   2.085  17.323 -0.2588 -0.1916 -0.0141
27288W        W46142   7.883   9.762   1.157  0.1784  0.4267  0.1528
27289W        W46143   8.258   3.941  17.463 -0.3700 -0.3106  0.1487
27290W        W46144   2.149  15.369  13.089  0.2056  0.1035 -0.2593
27291W        W46145   2.367   8.008   0.208  0.1150 -0.0529 -0.1536
27292W        W46146   0.120  10.405   0.901  0.2268  0.1331 -0.0158
27293W        W46147   1.399  10.999  14.123  0.6158  0.1051 -0.1246
27294W        W46148  14.241   8.016  12.953  0.4760 -0.0112 -0.1608
27295W        W46149   8.477  16.356   4.827  0.1305 -0.2090  0.0589
27296W        W46150   6.206  11.968  15.726  0.0534 -0.0145  0.3831
27297W        W46151   8.619  10.481  15.220 -0.0872 -0.0214  0.0654
27298W        W46152   9.016  14.060   3.120 -0.0912 -0.1536 -0.3404
27299W        W46153   9.604  11.890   1.436  0.4124  0.6111  0.1605
27300W        W46154   4.880  11.289   0.358 -0.3118  0.1145  0.0319
27301W        W46155   2.036  12.928   3.655  0.3352 -0.0132 -0.0399
27302W        W46156   1.393   9.319  15.247  0.0928  0.3034 -0.0548
27303W        W46157   4.657  14.889  16.496 -0.0209  0.3235 -0.1126
27304W        W46158   3.121   4.041  15.153 -0.2584  0.2086 -0.1581
27305W        W46159  15.489  15.274   1.889  0.2328  0.1185 -0.0394
27306W        W46160  14.399   1.263   0.326 -0.0754  0.0278 -0.1227
27307W        W46161  16.493   8.191  16.791 -0.1814 -0.3345 -0.0333
27308W        W46162   2.173  12.399  12.914  0.0361  0.3684 -0.1537
27309W        W46163   2.772   5.138   2.929  0.1334  0.1230  0.0166
27310W        W46164  15.259  14.784  14.360 -0.1080  0.0714  0.0565
27311W        W46165   2.877  15.242  16.762 -0.1853  0.0932  0.1158
27312W        W46166   7.475  17.177   2.304  0.1442 -0.0204 -0.0937
27313W        W46167   6.685   6.526  14.215  0.4653  0.1100  0.4770
27314W        W46168   1.632  16.293  16.377  0.1386 -0.0044 -0.2947
27315W        W46169  14.825   3.387   1.881 -0.2877  0.0546 -0.0490
27316W        W46170  14.794  12.111   3.984 -0.0305 -0.2100 -0.2474
27317W        W46171   6.702  11.004  14.340 -0.0290  0.0753  0.0178
27318W        W46172  15.499  11.115   2.122  0.1296  0.0422 -0.0416
27319W        W46173  13.590   1.804  12.314 -0.2551 -0.2998  0.0356
27320W        W46174   5.717   7.892  16.492 -0.1679  0.1584 -0.0056
27321W        W46175  10.395  15.525  15.053 -0.1736 -0.0647 -0.0106
27322W        W46176  10.851   0.254  14.475 -0.2029 -0.1913 -0.1854
27323W        W46177  12.492   6.281  14.183  0.3485 -0.1663  0.1322
27324W        W46178   6.069  13.641   2.919  0.1685  0.0834  0.1307
27325W        W46179  14.739  13.819   2.469  0.0457 -0.0282  0.0198
27326W        W46180  13.137  12.879  13.448 -0.0753  0.0246 -0.0544
27327W        W46181  11.480   5.121  13.363  0.1883 -0.1381  0.1922
27328W        W46182  11.349   2.972   3.653 -0.2150 -0.1328  0.3069
27329W        W46183  14.811   9.140   3.597 -0.1206 -0.0486  0.0103
27330W        W46184   6.004   7.570  15.682  0.1566  0.1486 -0.0619
27331W        W46185  12.990   9.505  17.385  0.1256 -0.0199  0.2250
27332W        W46186   4.270  12.664   3.326  0.2799 -0.1640  0.1681
27333W        W46187  15.181  10.665  14.883 -0.1074 -0.0096  0.0622
27334W        W46188  11.311   8.965  14.151  0.3205 -0.1794  0.0234
27335W        W46189  15.224  13.267  12.115  0.2538  0.0959 -0.3765
27336W        W46190  12.734   7.611   1.674  0.4678 -0.2075  0.1125
27337W        W46191  11.813   7.245   4.006 -0.0561 -0.1992  0.0473
27338W        W46192  12.913   6.824   2.619 -0.5220  0.3828  0.1997
27339W        W46193   7.316  10.337   2.943 -0.2452  0.2134  0.1897
27340W        W46194   2.585  13.552  13.593  0.0353  0.0828  0.0913
27341W        W46195   6.085   9.780  12.992  0.0561 -0.0276 -0.1316
27342W        W46196   2.732  15.646  14.333  0.1991 -0.0695  0.2383
27343W        W46197  14.141  15.584   1.844 -0.3668 -0.0708 -0.1425
27344W        W46198   1.517   8.737   4.833 -0.0389 -0.0104  0.1425
27345W        W46199   3.524   0.674   3.636  0.0660 -0.0715  0.0043
27346W        W46200   0.256   1.987  12.570 -0.0209  0.0017  0.2129
27347W        W46201   7.999   2.295  11.502  0.0682  0.2273 -0.2356
27348W        W46202   4.249  16.895   3.472 -0.2512  0.2784 -0.0927
27349W        W46203   5.994   0.452   1.245  0.2645  0.3269 -0.1050
27350W        W46204   6.286   8.881  14.103 -0.1541 -0.3775  0.0515
27351W        W46205  13.381  16.220   1.877  0.0409  0.0760  0.0100
27352W        W46206   1.736   0.051  13.140 -0.0991  0.1311 -0.2008
27353W        W46207   1.546  11.568  13.843  0.0848  0.4453 -0.0317
27354W        W46208   5.130   2.794  16.268 -0.1384 -0.2399  0.0111
27355W        W46209   9.635  11.843   3.894  0.0543 -0.0249 -0.4829
27356W        W46210   4.076   0.715  16.721 -0.0761  0.4864 -0.1004
27357W        W46211   3.498   1.018   0.588  0.0761  0.0424  0.0540
27358W        W46212   7.625  15.232   5.432 -0.1677  0.2419  0.0690
27359W        W46213   6.033   5.179  13.248 -0.0284  0.1400  0.0155
27360W        W46214  15.753  16.327   0.237 -0.1295 -0.1116  0.2014
27361W        W46215  17.137  14.007   4.226  0.1250  0.4350 -0.3900
27362W        W46216   8.390   9.875   3.981 -0.0377  0.1705 -0.3976
27363W        W46217  15.444   6.228  17.242 -0.0911 -0.0702 -0.3147
27364W        W46218  12.523  11.673  15.886  0.0865  0.1790  0.0319
27365W        W46219   3.150  14.878   2.550  0.4088  0.0804  0.0232
27366W        W46220   5.229  12.250   1.593  0.0395  0.1158  0.0618
27367W        W46221   9.101   3.124   2.746  0.0110 -0.2613  0.0360
27368W        W46222  12.901   9.242  16.515  0.2980  0.0074  0.3096
27369W        W46223   0.246  13.080  13.120 -0.0625  0.2807  0.4744
27370W        W46224  16.700  13.665  15.454 -0.3027 -0.0305  0.0612
27371W        W46225  10.277   0.698   2.856  0.1233  0.0097  0.0976
27372W        W46226   4.878   3.571   4.233 -0.0084 -0.1148 -0.1037
27373W        W46227  10.710   6.031   3.909 -0.1586  0.0868  0.2027
27374W        W46228  16.242   8.157  12.933 -0.0628 -0.3063  0.0221
27375W        W46229   7.447  15.522  12.368  0.1753  0.2548  0.2927
27376W        W46230  15.542   4.093  16.529  0.2455  0.0408  0.2905
27377W        W46231  11.249   0.350   4.497  0.0292  0.0694 -0.3166
27378W        W46232   2.168   4.047   0.628 -0.1377  0.3915  0.0418
27379W        W46233   1.388   9.522  15.705  0.0118 -0.0294  0.2780
27380W        W46234  10.486  14.795  13.803  0.2597  0.1279 -0.1998
27381W        W46235  16.548   0.453  15.509 -0.0064 -0.4548 -0.0233
27382W        W46236   7.080   5.396  15.055  0.0228 -0.1009  0.2527
27383W        W46237   9.501   4.555  13.701  0.2422 -0.0119  0.2059
27384W        W46238  12.709  16.356  16.543  0.0693 -0.2358 -0.1638
27385W        W46239   0.817  13.278   2.722  0.2360 -0.1556  0.1082
27386W        W46240  14.679   0.578   3.670  0.3244  0.2309 -0.0595
27387W        W46241   6.234   1.228   4.757 -0.3419 -0.0999 -0.1546
27388W        W46242   8.410   1.695  16.615 -0.1243 -0.0679  0.0667
27389W        W46243  10.923  16.671   4.698 -0.1856  0.1750 -0.4433
27390W        W46244   9.486   6.122   3.761 -0.0886  0.0618 -0.1720
27391W        W46245  16.178  12.819   4.115  0.0896 -0.0210  0.1730
27392W        W46246   4.668   8.574  14.947 -0.0823  0.1355  0.1789
27393W        W46247   9.249   6.099  14.568  0.2862  0.0527  0.0117
27394W        W46248   2.421   9.252  13.736  0.2858  0.1967 -0.2878
27395W        W46249  13.478   8.932   2.253 -0.2584  0.3026  0.1476
27396W        W46250   3.570   9.958   1.282  0.0950 -0.0667  0.1215
27397W        W46251   0.957   3.811   0.081 -0.4877 -0.2106 -0.2558
27398W        W46252  12.563   6.320   1.458  0.1689 -0.3375  0.0495
27399W        W46253   5.602   8.335  14.556  0.0876  0.2439  0.2922
27400W        W46254   4.477   6.471  17.462 -0.1469 -0.0183  0.0722
27401W        W46255  14.180  11.657  15.003 -0.0961 -0.1108 -0.1713
27402W        W46256  10.564   5.160  16.822  0.2566 -0.1747  0.1526
27403W        W46257  16.120   7.713   2.906 -0.2866 -0.0594 -0.1297
27404W        W46258  15.656   3.633  12.033  0.0262  0.1625 -0.1991
27405W        W46259  12.206  10.119   4.441 -0.1243  0.2041  0.1571
27406W        W46260  17.257   9.637   0.503 -0.3729  0.2064 -0.0373
27407W        W46261  14.859  10.322   3.877 -0.4937  0.0238  0.0124
27408W        W46262   2.435   8.378   4.984 -0.3727 -0.0172  0.2570
27409W        W46263  12.319   7.347   3.740  0.3280 -0.1455 -0.3812
27410W        W46264  11.390   0.674   5.853 -0.0015 -0.1977 -0.0261
27411W        W46265   8.475   9.328   0.828 -0.0418 -0.0652  0.1513
27412W        W46266   2.313   8.841   5.414  0.2826 -0.3192  0.0118
27413W        W46267   3.860   5.503  16.956 -0.1039 -0.0427 -0.0349
27414W        W46268   2.861  12.138  14.688  0.0054 -0.0800  0.1402
27415W        W46269  10.035   1.239  15.121  0.0434  0.2388 -0.0294
27416W        W46270   8.077  16.659   3.131 -0.0029 -0.0680  0.3340
27417W        W46271  14.192   7.942  14.928 -0.2993  0.2265 -0.0070
27418W        W46272   2.142   3.560  11.393  0.3232  0.2065 -0.1549
27419W        W46273   2.020   8.824  17.202  0.0110 -0.3375  0.1878
27420W        W46274  14.895   2.062  15.985  0.1504  0.1709  0.0749
27421W        W46275  10.832   0.410   0.421  0.0813  0.1550 -0.1080
27422W        W46276   9.432   5.608   3.825  0.0634  0.0635  0.2672
27423W        W46277   7.844   1.796  16.085 -0.2571 -0.1306 -0.2222
27424W        W46278  16.504  12.025  17.099  0.1883 -0.1617  0.0480
27425W        W46279  11.481   4.128   3.394  0.2676 -0.1876  0.1683
27426W        W46280   2.791  13.296   1.353  0.0426  0.0967 -0.1589
27427W        W46281  11.627   6.339  15.707  0.1755  0.1770  0.1678
27428W        W46282  11.322  15.112   5.135 -0.3791 -0.1424  0.1455
27429W        W46283   1.205  14.640   0.147 -0.0443  0.1241  0.1309
27430W        W46284  11.696  14.056  16.520  0.2783  0.2471  0.2871
27431W        W46285  11.619  17.154  15.492 -0.3813  0.0311 -0.1204
27432W        W46286   9.224   7.737   4.603  0.5431  0.3037 -0.1959
27433W        W46287   4.627  15.021  12.269  0.0338 -0.1192  0.0189
27434W        W46288   9.731   3.681  12.738 -0.0921  0.1491 -0.4098
27435W        W46289   8.229   4.692  14.555 -0.0484 -0.2364 -0.1593
27436W        W46290  14.557   4.524   3.186  0.0251 -0.0005 -0.1153
27437W        W46291   1.640  12.566   0.780  0.1496  0.0875  0.0157
27438W        W46292  10.437   9.154   4.716 -0.3048 -0.2657  0.0617
27439W        W46293  13.953   1.490   3.870  0.3636 -0.3481 -0.0697
27440W        W46294   7.353   0.155   3.197  0.1370  0.0872  0.2768
27441W        W46295   8.310   9.525   2.962  0.0584 -0.3759 -0.0451
27442W        W46296   0.259  11.694   1.698 -0.5081  0.0875 -0.2164
27443W        W46297   0.704  14.725  17.437 -0.0320  0.1797  0.3474
27444W        W46298  11.108   6.863  17.347  0.0451  0.0947 -0.0848
27445W        W46299   5.544   4.593  15.018  0.0562 -0.0377  0.2254
27446W        W46300  10.841  11.974  14.860  0.2933  0.2912 -0.0893
27447W        W46301   3.982  15.750  13.657  0.0249  0.2240 -0.2610
27448W        W46302  16.727   5.102   1.801 -0.0360  0.0860 -0.4206
27449W        W46303   3.731   2.948  15.658 -0.2571  0.0851  0.1182
27450W        W46304  13.141  12.920  16.278  0.1118 -0.1621  0.1676
27451W        W46305   0.356  12.959  15.973 -0.0322  0.0417  0.0127
27452W        W46306   9.947   0.623  14.688 -0.1001  0.3244  0.1366
27453W        W46307   9.102   4.690   5.152  0.1181 -0.3491 -0.1794
27454W        W46308   0.827  13.882  14.698 -0.1480 -0.3610 -0.1445
27455W        W46309   0.613  13.673  15.657  0.0857  0.2519 -0.1271
27456W        W46310  17.042  12.453   3.302  0.1575 -0.2213 -0.0937
27457W        W46311  14.734  14.345  14.611  0.0928  0.0799  0.0358
27458W        W46312   5.422  16.940   4.994  0.1599  0.1981  0.0079
27459W        W46313  16.138   9.268   2.927 -0.4878 -0.0139  0.2940
27460W        W46314   2.082  12.708   4.193 -0.1478 -0.0943  0.0691
27461W        W46315   3.465   9.242  16.957  0.0850 -0.0801 -0.2621
27462W        W46316  16.786   3.377   3.258 -0.1810 -0.0104  0.1571
27463W        W46317   8.550  11.084   2.650  0.3151  0.2947  0.1881
27464W        W46318  15.163  12.961   4.160 -0.3500  0.1715  0.1400
27465W        W46319   8.849   1.546  16.265  0.0542  0.1444  0.1760
27466W        W46320  14.479  13.104   1.296 -0.0420  0.1055 -0.1125
27467W        W46321  15.622  10.209  13.207 -0.0400 -0.3775 -0.1556
27468W        W46322  16.144   9.736   4.110  0.3200 -0.2421 -0.0696
27469W        W46323  17.165   9.637  13.409  0.4846  0.3605 -0.0382
27470W        W46324   5.095  10.481   1.996 -0.2350 -0.1981 -0.1759
27471W        W46325   8.755  11.853   2.084  0.0263 -0.0067  0.2197
27472W        W46326   5.287  14.120  12.803 -0.0186  0.2400  0.0486
27473W        W46327   7.453  14.614   2.448  0.1865  0.2113 -0.0529
27474W        W46328   1.726   5.482   3.272 -0.0829 -0.0427  0.1209
27475W        W46329   0.683   5.613  16.174  0.2118  0.1725  0.2082
27476W        W46330   8.281   5.537  15.033  0.0334  0.3014 -0.1365
27477W        W46331  12.097   9.548  14.042  0.0922 -0.3609 -0.1048
27478W        W46332  14.432   3.282  13.064  0.0154 -0.2661  0.1058
27479W        W46333   2.167   7.727   6.440  0.0146  0.0503 -0.0571
27480W        W46334   4.838  14.287   3.761 -0.0761  0.0877 -0.0095
27481W        W46335  16.460   3.460   1.083  0.2601  0.1119 -0.1157
27482W        W46336   5.752   9.932   4.512 -0.0155 -0.2803  0.1707
27483W        W46337  10.516  11.683  15.778 -0.2338 -0.1280  0.2451
27484W        W46338  17.168  16.556  14.357 -0.3120  0.0505  0.0477
27485W        W46339   2.878  13.018  13.577 -0.2926 -0.2018  0.2432
27486W        W46340  12.324   8.039   4.079 -0.0885 -0.0790  0.1326
27487W        W46341   9.153   1.647   2.539  0.0646 -0.2462 -0.2957
27488W        W46342   1.978  10.868   2.140  0.1163 -0.4240 -0.2317
27489W        W46343   1.139   4.802   3.568 -0.0684 -0.0005 -0.2261
27490W        W46344  14.162   2.244   4.477  0.0922  0.0976  0.0123
27491W        W46345  11.372  10.246   3.369  0.1180  0.2174  0.1029
27492W        W46346   8.111   0.128   1.069 -0.1699  0.0088  0.1900
27493W        W46347   7.756  13.908  14.441 -0.2718  0.1389  0.0301
27494W        W46348  13.673   8.318   5.334 -0.0100 -0.1008  0.0235
27495W        W46349   3.641   1.346  13.661  0.0527 -0.2034 -0.2511
27496W        W46350   0.577  10.474  17.025  0.0201  0.0109  0.1329
27497W        W46351  16.064   6.250  14.603  0.1893 -0.0417 -0.1632
27498W        W46352   6.133  14.084  12.462 -0.2644  0.0671  0.1452
27499W        W46353  12.530  15.376  16.644 -0.2801 -0.2692 -0.0461
27500W        W46354   0.334   1.228  14.354 -0.1118  0.2447 -0.1785
27501W        W46355   9.674  16.350  15.285 -0.1145  0.0738 -0.0384
27502W        W46356  17.084  11.566  13.014  0.0680 -0.0434 -0.0295
27503W        W46357  11.598   3.481  13.856  0.2202  0.3103 -0.2416
27504W        W46358  11.466  16.746  14.170  0.1411  0.2042 -0.0667
27505W        W46359  10.041   1.606  13.647  0.1350  0.1232 -0.1774
27506W        W46360  15.693   2.100   3.592 -0.2605  0.2534  0.4094
27507W        W46361  15.446   2.250  13.561 -0.1926  0.1658  0.2262
27508W        W46362  13.971  15.013  12.229 -0.0036  0.0618 -0.0024
27509W        W46363   8.243   6.919  16.381 -0.2892 -0.1750  0.3101
27510W        W46364  13.574   9.770  12.449 -0.2001  0.1738 -0.1739
27511W        W46365  17.232   9.450  16.620 -0.1596  0.1223 -0.2917
27512W        W46366   2.718   9.356  12.923 -0.0873  0.1082 -0.0731
27513W        W46367   3.471  11.734  15.495 -0.0307 -0.1983 -0.0651
27514W        W46368   5.588   1.454   5.393  0.2712  0.0990  0.1276
27515W        W46369   6.947  12.868  12.352 -0.0198  0.2098  0.1825
27516W        W46370  16.015  11.107  13.250 -0.0177  0.1505  0.0143
27517W        W46371  14.470  13.567   3.308  0.0670  0.0375  0.1719
27518W        W46372   5.568  10.649  14.992  0.1623  0.0929  0.3642
27519W        W46373   5.282  14.316  12.267 -0.0511 -0.3019 -0.2440
27520W        W46374   9.487   6.800  15.194  0.1639  0.0200  0.1590
27521W        W46375   1.088  15.521  16.748  0.2738  0.1209  0.1525
27522W        W46376  15.355  10.750   1.379  0.0013 -0.1229 -0.0289
27523W        W46377  11.520   6.426  12.596  0.0820 -0.0816 -0.0888
27524W        W46378  10.194  15.083  12.473  0.0866 -0.0163 -0.0958
27525W        W46379  15.015   6.649   0.265 -0.0114  0.0189 -0.1993
27526W        W46380  13.913  15.811   2.272 -0.0434  0.0229  0.4391
27527W        W46381   9.361  15.025  12.346 -0.3036  0.1327  0.3887
27528W        W46382   9.913  11.733  12.664  0.1069  0.1715  0.3953
27529W        W46383   9.418   2.163   0.300  0.1928 -0.1030  0.0551
27530W        W46384   3.733  17.335  13.872 -0.0664  0.5052 -0.1863
27531W        W46385  13.977  14.005   0.150  0.1377  0.1887 -0.0662
27532W        W46386   2.556  12.996   5.057  0.2169  0.2499 -0.2283
27533W        W46387  16.246  12.376   3.098  0.0709 -0.0660 -0.0704
27534W        W46388   4.829  16.880  17.023  0.0788 -0.1263 -0.0073
27535W        W46389  15.395   8.926  14.033  0.0916  0.2335 -0.1107
27536W        W46390   6.829  15.032  17.351 -0.1628 -0.0916 -0.1180
27537W        W46391   2.314   3.770   3.437 -0.1388 -0.2729  0.0443
27538W        W46392  16.547   0.042  13.700  0.0002 -0.0796 -0.1731
27539W        W46393  14.346   4.937   4.047 -0.0794  0.0358  0.0314
27540W        W46394  11.657   6.111   3.071 -0.1419 -0.1686 -0.1672
27541W        W46395   5.647  12.874  13.809 -0.1580 -0.0316 -0.0955
27542W        W46396   3.214   0.968   1.048 -0.1700  0.0040 -0.0053
27543W        W46397  10.557   6.514  13.234 -0.0067 -0.1789  0.0548
27544W        W46398  10.687   2.122   3.945 -0.0090 -0.0489 -0.2843
27545W        W46399  13.422  16.813   2.701  0.1145 -0.2336  0.3780
27546W        W46400   0.677   1.948   5.000 -0.1185  0.0784 -0.2828
27547W        W46401  14.942  14.569  15.264  0.1909 -0.1548 -0.1333
27548W        W46402  14.608  12.667  13.559 -0.3937  0.2918  0.0157
27549W        W46403   0.493  17.089   2.882  0.0991  0.0003  0.1104
27550W        W46404   6.594  16.917   4.529 -0.0789  0.0337 -0.1719
27551W        W46405  13.780  15.134   4.622 -0.3184  0.1198 -0.1446
27552W        W46406   0.794   0.180   4.649 -0.3517  0.0884  0.0620
27553W        W46407  14.225  13.160   3.466 -0.2446 -0.0889  0.1325
27554W        W46408  11.503   1.347  13.222  0.1092  0.1853 -0.0866
27555W        W46409   4.391   1.122  14.939 -0.1320 -0.4666 -0.1020
27556W        W46410  11.864   6.428  13.062  0.3689 -0.1917  0.0685
27557W        W46411  16.154  14.673  14.927 -0.4039  0.2264  0.3960
27558W        W46412  10.423   3.174  13.111  0.1499 -0.3646  0.0975
27559W        W46413  16.691  13.889   0.095 -0.0950  0.2086 -0.0772
27560W        W46414   5.034   8.698  12.409  0.2783  0.2571 -0.1793
27561W        W46415  13.341  12.642  16.742 -0.5127  0.1151 -0.0075
27562W        W46416  11.330  11.806   0.343  0.0405  0.0949 -0.4491
27563W        W46417   4.698   6.517   2.793  0.1298 -0.2099  0.0108
27564W        W46418   6.178   4.430   1.708 -0.1089 -0.0492  0.0907
27565W        W46419  17.140  12.170  16.964 -0.1616  0.0091  0.1019
27566W        W46420   6.318  14.612  15.308  0.0676  0.1718  0.1139
27567W        W46421  17.090   9.721  14.375  0.1017  0.1191  0.0594
27568W        W46422   5.054  11.080  17.153 -0.0953  0.0183 -0.0749
27569W        W46423  14.831  13.841   1.010  0.1982  0.0868  0.1077
27570W        W46424   2.035   8.224  14.131 -0.0691  0.0468  0.2270
27571W        W46425   4.052  16.505  13.560 -0.0600  0.3576  0.2390
27572W        W46426   3.002   9.895   4.618 -0.2221  0.0544 -0.0674
27573W        W46427   1.022  13.795  12.584 -0.2291 -0.0035 -0.1765
27574W        W46428  14.662   5.920   1.320  0.1024 -0.0521  0.3559
27575W        W46429   4.483   1.581   0.178 -0.0949 -0.0558  0.3362
27576W        W46430   5.965  15.869  13.816  0.0298  0.2648 -0.2115
27577W        W46431  14.045   4.662  15.447 -0.0718  0.0554  0.3056
27578W        W46432   0.462   1.095   4.864  0.0321  0.2948 -0.2040
27579W        W46433  12.884  13.336  15.604 -0.2337 -0.0656 -0.1145
27580W        W46434  15.676   4.888   3.188 -0.0007 -0.0208 -0.1021
27581W        W46435  12.978  11.335   0.192  0.1057 -0.0946  0.0830
27582W        W46436  12.017  11.886  16.761 -0.0119 -0.1698 -0.4812
27583W        W46437  12.704   5.326   1.835  0.2623 -0.0534  0.3249
27584W        W46438  12.660   1.212  15.657  0.0118 -0.0627 -0.1466
27585W        W46439   9.302  11.830  12.526  0.2097 -0.0539  0.1343
27586W        W46440  17.089   8.243  16.054 -0.1984  0.0336  0.0108
27587W        W46441  17.005   0.864  16.177 -0.0281 -0.0655 -0.1850
27588W        W46442   3.382   4.610   5.124 -0.3486  0.2373 -0.0033
27589W        W46443  13.248   2.774  13.819  0.0270 -0.1433 -0.2713
27590W        W46444   0.142  12.888  15.494 -0.1269 -0.2352 -0.0571
27591W        W46445   8.295   8.642  15.225 -0.0258 -0.0096  0.1189
27592W        W46446  13.520   0.755   3.039  0.3789 -0.0332  0.2574
27593W        W46447  10.498  12.430  13.101 -0.0505  0.0683 -0.0758
27594W        W46448   7.072   3.242   3.321  0.1674  0.3593  0.1273
27595W        W46449   2.259   5.762   5.068  0.1396  0.0866  0.0480
27596W        W46450   1.356   9.725   5.585  0.3975  0.2568  0.0596
27597W        W46451  15.274   5.531  16.776  0.0102 -0.0056 -0.1768
27598W        W46452   8.902  11.281  13.791  0.1843 -0.0305  0.0084
27599W        W46453  17.273  10.713  12.570  0.0345 -0.0316 -0.1282
27600W        W46454   0.730   2.843  12.985  0.0909 -0.0504  0.0177
27601W        W46455  12.358  15.694  16.976 -0.0084 -0.0795 -0.2721
27602W        W46456  15.137  13.632  15.503 -0.2747 -0.0635  0.0385
27603W        W46457  16.852   5.705   4.360  0.0430 -0.2541  0.2421
27604W        W46458   3.634  14.942   3.401  0.2123 -0.0397  0.1763
27605W        W46459  17.187  14.624  14.587  0.0172  0.1069 -0.0308
27606W        W46460   9.299   5.387   5.804 -0.0972  0.1417 -0.0150
27607W        W46461  13.283   9.793   1.757 -0.3326  0.0330  0.0316
27608W        W46462   5.066  13.461   5.571 -0.1878  0.0793  0.0056
27609W        W46463   8.722  10.378  16.929 -0.0338 -0.1952  0.2365
27610W        W46464  10.355  11.112  13.861 -0.2260 -0.1935  0.1160
27611W        W46465  16.912   4.608   4.511  0.2090  0.1474  0.1915
27612W        W46466  15.628   6.032   3.001  0.1489 -0.1537  0.0481
27613W        W46467  14.476   4.645   2.490  0.2133 -0.1858 -0.1187
27614W        W46468  14.932  14.809   0.436 -0.1327  0.0383  0.1876
27615W        W46469  16.012  16.374  15.014 -0.1399 -0.0806  0.1735
27616W        W46470  14.097   9.007  14.248 -0.2340 -0.1059 -0.2212
27617W        W46471  12.161  16.986   1.248 -0.0438 -0.2122  0.1323
27618W        W46472  15.612   0.100   5.281  0.0902 -0.1787  0.1901
27619W        W46473   8.565  16.613  16.765 -0.2844 -0.1459 -0.3838
27620W        W46474  13.000   4.158   0.146 -0.0285 -0.1901  0.0574
27621W        W46475   8.586   8.995   2.418  0.4376 -0.0307 -0.1489
27622W        W46476  17.144  15.695   0.139  0.2776  0.1281  0.2884
27623W        W46477   6.071   9.890  15.099 -0.0387  0.1223  0.0059
27624W        W46478   4.354   0.761  12.665  0.1078  0.0398 -0.0550
27625W        W46479  14.734  12.627   3.891 -0.0967  0.0089  0.0398
27626W        W46480   1.805   5.964   0.664 -0.1805 -0.0717 -0.0830
27627W        W46481  10.767  12.142  12.187  0.0021 -0.2784 -0.2360
27628W        W46482  12.436   2.414  14.217  0.0576 -0.0633 -0.1753
27629W        W46483   9.518  13.482  16.274  0.0190  0.4108  0.0685
27630W        W46484  14.174   2.774   0.927  0.2737 -0.0685 -0.2145
27631W        W46485   0.461  11.131   4.585  0.0427  0.1394  0.1147
27632W        W46486  11.033   8.969  15.593 -0.1821 -0.0553  0.1985
27633W        W46487   3.118   6.789   5.230 -0.2988  0.2772  0.0488
27634W        W46488   1.577  17.303  17.367 -0.0503 -0.1787 -0.0463
27635W        W46489  14.755   0.305  16.128 -0.3396 -0.0005 -0.1647
27636W        W46490   7.164   2.109  17.209  0.1339 -0.1273  0.0765
27637W        W46491   9.952  16.662  16.346  0.1012  0.0030 -0.2590
27638W        W46492   8.159  14.897   2.541  0.1201  0.1597 -0.0380
27639W        W46493   8.668   4.659  12.604 -0.1840 -0.0158  0.0180
27640W        W46494   2.511   1.753  16.427  0.1773  0.1678 -0.2555
27641W        W46495   5.763  10.941   5.405 -0.1721 -0.1807  0.1139
27642W        W46496   1.345   6.740  12.782 -0.1965  0.2101  0.0882
27643W        W46497   5.864  11.683  15.992  0.1488 -0.0717 -0.2860
27644W        W46498  14.678  14.676  12.959 -0.0802 -0.0576  0.0518
27645W        W46499   6.368  17.344  16.436  0.1626 -0.1324  0.0231
27646W        W46500   8.340   7.281   0.854 -0.1642  0.0076 -0.1046
27647W        W46501  15.390   2.814   1.725  0.0772 -0.1610 -0.1673
27648W        W46502   3.899  10.660   5.224  0.0321  0.3618  0.1701
27649W        W46503   1.544   9.437  16.489  0.1578 -0.1490  0.0525
27650W        W46504  16.433  12.060  14.261 -0.0478  0.0299  0.1508
27651W        W46505   5.087   4.054  14.356 -0.1163  0.0091 -0.2310
27652W        W46506  10.132  13.653   2.340 -0.1725  0.0739  0.0805
27653W        W46507   7.254   2.647  13.662 -0.0199 -0.0206 -0.1213
27654W        W46508  12.551  12.108  13.333  0.2641 -0.0933 -0.1029
27655W        W46509   5.527   6.114   5.204 -0.1626  0.0294 -0.3894
27656W        W46510   8.094   4.881   5.818  0.0566 -0.0692  0.1360
27657W        W46511  16.148  12.536   1.684  0.3012  0.1270 -0.0046
27658W        W46512   7.808  11.207  14.026  0.0725  0.0790  0.1230
27659W        W46513   8.161   1.368  15.825  0.0232 -0.0553  0.0106
27660W        W46514  12.357  16.694  16.775 -0.0054 -0.3395 -0.3130
27661W        W46515  14.034   9.084  14.810  0.2260 -0.0311  0.1747
27662W        W46516  16.206   9.909   2.139  0.0753 -0.2445 -0.0038
27663W        W46517   6.159  12.475   0.764  0.1153 -0.1049 -0.0100
27664W        W46518   9.941   7.461   4.177  0.2195  0.1307  0.3322
27665W        W46519   0.114  12.462  17.182  0.3052 -0.0699  0.2473
27666W        W46520   9.508   7.050  13.892  0.0861 -0.1072  0.3392
27667W        W46521  15.427  14.081  15.668 -0.1102  0.0767 -0.3844
27668W        W46522  15.343  12.914  17.245 -0.5417  0.1217 -0.0642
27669W        W46523   7.543   9.402   3.389  0.0795 -0.0160  0.1307
27670W        W46524  10.849   4.672   4.787 -0.1484 -0.0426 -0.0448
27671W        W46525   1.205   3.468   2.803 -0.1038 -0.1231 -0.1561
27672W        W46526   5.005   8.253  15.380  0.0433 -0.1888  0.0971
27673W        W46527   1.442   8.233   2.301  0.1345  0.1439 -0.0542
27674W        W46528   1.135  15.288  13.925  0.4430 -0.0500 -0.1160
27675W        W46529   8.930   3.628  17.377 -0.1863  0.1096  0.0681
27676W        W46530  16.429   6.254   1.504 -0.0505 -0.0666  0.1171
27677W        W46531   1.996   3.568  13.170  0.0527 -0.4125  0.0027
27678W        W46532  13.603   1.929   3.614  0.1923 -0.0579 -0.0328
27679W        W46533   2.972   3.365  12.728  0.0743  0.0632 -0.0562
27680W        W46534   3.882  13.519  15.510 -0.2107  0.4213  0.1383
27681W        W46535  15.376   3.322   0.979  0.0868 -0.0935  0.0523
27682W        W46536   9.780  17.222  12.643 -0.2182 -0.2087  0.1050
27683W        W46537   1.386   5.860  14.521 -0.1540 -0.0065  0.0410
27684W        W46538   5.155  11.018   2.793 -0.3491  0.3929 -0.0444
27685W        W46539   7.716   8.601  12.965  0.0296  0.0244  0.2685
27686W        W46540   5.358  16.316  13.040  0.2267  0.2680  0.2484
27687W        W46541   4.373   7.906   5.525 -0.1746 -0.1785 -0.1586
27688W        W46542  10.153  16.874   4.236  0.1096 -0.0085 -0.3060
27689W        W46543  11.025  14.985  14.821  0.2844 -0.2944  0.0142
27690W        W46544   9.095  15.030  12.799  0.0381 -0.4609  0.0792
27691W        W46545   1.548  15.696   0.973  0.0475  0.0815  0.1490
27692W        W46546   1.638   7.953  13.990  0.1824  0.1107  0.3200
27693W        W46547  15.843  10.210  17.262 -0.0139 -0.1614  0.0157
27694W        W46548   4.535  13.500  16.799  0.0222  0.0352 -0.0503
27695W        W46549  16.597  13.972   1.777 -0.0635 -0.2330 -0.0350
27696W        W46550  11.680   4.128   4.597 -0.2200 -0.3601 -0.3314
27697W        W46551  10.403  13.611   1.908 -0.0993  0.0432  0.0670
27698W        W46552  16.787  12.012  16.654 -0.2361 -0.1051  0.4338
27699W        W46553   7.992   2.601   0.098  0.1458 -0.2276 -0.2114
27700W        W46554   3.343  10.338   2.106  0.4494 -0.0204 -0.3658
27701W        W46555   9.151  16.487  14.504 -0.3316 -0.0504  0.1672
27702W        W46556   0.466  12.592   4.793  0.2987  0.2125  0.0508
27703W        W46557  14.562   3.336   1.446 -0.0545  0.1243  0.1637
27704W        W46558  13.123  15.283   3.001 -0.1608  0.0974 -0.0397
27705W        W46559  16.888  14.093   0.569 -0.0466 -0.2562  0.3354
27706W        W46560  10.267  11.245  16.589 -0.0974 -0.1189  0.1655
27707W        W46561   4.946   6.172   4.257 -0.0339  0.2229 -0.1300
27708W        W46562  13.046  14.616   3.722  0.1399  0.2193  0.4398
27709W        W46563  11.013   5.107   4.990 -0.0192  0.0156  0.1367
27710W        W46564  15.306   9.977  16.877 -0.1915  0.0791 -0.2245
27711W        W46565  12.582  10.298   0.953 -0.2989  0.0042  0.0284
27712W        W46566  13.156   3.680  13.700  0.2655 -0.0969 -0.1735
27713W        W46567   5.855   2.543   4.351 -0.2095  0.0369  0.2593
27714W        W46568   9.714  14.965   0.880  0.1492 -0.1780  0.0868
27715W        W46569   5.093  12.192  14.132  0.1322 -0.1252  0.2494
27716W        W46570   3.175   8.014   0.149  0.2959 -0.1398 -0.1482
27717W        W46571  16.947   2.913  14.788  0.0174  0.1011 -0.0400
27718W        W46572   4.005   8.852   5.980 -0.3482 -0.0247  0.1221
27719W        W46573  11.525   2.714  15.786  0.3370  0.1426  0.1029
27720W        W46574   7.800   1.032  17.083  0.0360 -0.2636  0.1877
27721W        W46575   4.633   6.217   5.181  0.1263  0.0351  0.2110
27722W        W46576   0.020   2.144  17.048  0.0939 -0.2323 -0.1240
27723W        W46577  14.915  10.568  16.776 -0.0768  0.1047 -0.0780
27724W        W46578  13.184   7.582   3.156  0.0798  0.2393  0.3134
27725W        W46579  11.804   3.121  16.662 -0.0055 -0.0503  0.1332
27726W        W46580  11.864   7.586   0.288 -0.0546  0.0850 -0.3467
27727W        W46581  10.215  13.600   3.749  0.0551  0.1640 -0.0817
27728W        W46582   4.166   4.858   0.104 -0.4505  0.0605  0.0926
27729W        W46583  16.456   1.417  14.043  0.0710  0.0795  0.1523
27730W        W46584   7.219  16.895   2.673 -0.1124 -0.2904 -0.0862
27731W        W46585  11.719   1.636   4.042 -0.2050 -0.1467 -0.2748
27732W        W46586   5.244  12.553  13.054 -0.4100 -0.1418 -0.1913
27733W        W46587   3.613   6.188  15.896  0.0001  0.0133  0.0337
27734W        W46588  16.291  13.614   0.212 -0.0011 -0.4592 -0.0642
27735W        W46589   7.317   6.167  12.422  0.1149 -0.2177  0.0944
27736W        W46590  13.225   6.409   5.066 -0.2206  0.0120 -0.0032
27737W        W46591   1.510   8.832  12.895 -0.1066  0.0963 -0.0453
27738W        W46592   8.481  10.820  12.640 -0.0512  0.2556 -0.0331
27739W        W46593   5.015   4.536   3.714 -0.3223 -0.1794 -0.1095
27740W        W46594  17.033  14.744  13.649  0.0908 -0.0655  0.1571
27741W        W46595   2.459  10.113  15.402  0.1069  0.0915  0.2717
27742W        W46596   4.128  16.053   0.875  0.0394  0.1335 -0.2430
27743W        W46597  11.127   4.612  12.784 -0.2276 -0.0386 -0.1892
27744W        W46598  14.244   0.929  15.045  0.0553 -0.0129  0.1821
27745W        W46599   5.063   0.730  14.594 -0.0760 -0.1507 -0.0813
27746W        W46600   6.681   6.565  13.719  0.0957 -0.1314  0.0127
27747W        W46601  16.359  15.193   3.036  0.2292  0.0490  0.2656
27748W        W46602  14.434   3.111  12.257  0.2904  0.0900  0.2281
27749W        W46603   0.790   3.586  17.079 -0.3698 -0.0639 -0.1925
27750W        W46604   2.344   5.094   2.674 -0.1960  0.1833  0.2013
27751W        W46605  14.981   7.564   5.550  0.0476 -0.0847  0.0641
27752W        W46606  11.016  13.492   0.411 -0.1676 -0.0880 -0.0151
27753W        W46607  12.561   0.889   5.051  0.3109  0.0111  0.4727
27754W        W46608  16.259   9.845  15.203 -0.1034  0.3937  0.0550
27755W        W46609   2.837  15.256   3.257  0.2928 -0.2043 -0.0243
27756W        W46610  10.412   0.519   3.491 -0.0316  0.2013 -0.0992
27757W        W46611  11.999   3.257   1.327  0.1113 -0.1418  0.0788
27758W        W46612   0.668  16.682   1.490  0.1833  0.1537 -0.2860
27759W        W46613  15.846   3.822   4.921  0.0322  0.0518 -0.5063
27760W        W46614   8.341  11.222   1.374 -0.1461 -0.1288 -0.0441
27761W        W46615   8.025   7.392  16.547  0.2255 -0.0006 -0.2248
27762W        W46616  16.143   0.220   1.719 -0.0920 -0.1092  0.1700
27763W        W46617   6.447   2.354   4.791 -0.1018 -0.1250  0.2058
27764W        W46618  16.787  11.124   2.014 -0.0009  0.0790 -0.0277
27765W        W46619  14.343   4.016  14.575 -0.0869 -0.0197 -0.1115
27766W        W46620  16.543   1.383   0.970  0.1150  0.3589  0.0333
27767W        W46621  10.333   0.002  12.365 -0.0792  0.0569  0.2926
27768W        W46622  10.029   1.665   3.831 -0.3145  0.1510  0.1427
27769W        W46623   6.805  15.209  15.858  0.1142 -0.3531  0.0659
27770W        W46624   8.756   0.843   1.194  0.0016 -0.1078  0.3253
27771W        W46625   9.158   7.418   2.138 -0.1008 -0.1219  0.2707
27772W        W46626  11.215  13.401  16.555 -0.1071  0.0459  0.4109
27773W        W46627   3.622   2.908   1.800 -0.0120  0.3220  0.0357
27774W        W46628  11.239   7.910   4.084  0.3651  0.1471 -0.2486
27775W        W46629   2.914  16.436  17.307  0.0423 -0.2770 -0.0551
27776W        W46630   1.575   9.491  14.013 -0.0630  0.1594 -0.2290
27777W        W46631   4.656  17.194  15.621 -0.1694  0.1065 -0.1595
27778W        W46632   7.623  15.294   1.680 -0.0190  0.0529 -0.1268
27779W        W46633  16.926   7.978  13.648  0.1546 -0.2022 -0.0166
27780W        W46634  13.069   6.378   2.753 -0.2529 -0.1090 -0.1653
27781W        W46635   0.674  15.900  14.779 -0.0525  0.1714  0.1084
27782W        W46636  15.370   8.963   0.209  0.0279 -0.1783  0.0801
27783W        W46637  13.442   8.104   2.820  0.1139 -0.0390  0.0767
27784W        W46638  14.544   8.391  12.884 -0.1798 -0.1344 -0.1172
27785W        W46639   8.054   1.129   4.112  0.1699  0.0839 -0.1552
27786W        W46640  17.096  15.240  12.873 -0.1072  0.0819 -0.1027
27787W        W46641   6.052   1.736   3.595 -0.0681 -0.1627  0.2100
27788W        W46642   0.195  14.133   1.098 -0.1721 -0.0909  0.4110
27789W        W46643  11.267  15.111   1.466 -0.1370  0.3477 -0.2693
27790W        W46644  12.918  10.657   0.848  0.1609  0.4300  0.2778
27791W        W46645   5.110  13.733   1.045  0.1208  0.0357 -0.3366
27792W        W46646  16.161  14.860   3.839  0.0862 -0.1519 -0.0127
27793W        W46647   7.782   2.151   5.281 -0.2573 -0.0273  0.2612
27794W        W46648   5.193   5.189   3.626 -0.1208 -0.1780 -0.1978
27795W        W46649  10.805   0.179   2.240  0.1881 -0.0946 -0.0784
27796W        W46650   1.763  13.395  15.982  0.0010 -0.2420 -0.2023
27797W        W46651   9.377  13.257  12.736 -0.1683 -0.0165 -0.0412
27798W        W46652   3.368  16.217   2.105 -0.0510  0.3303  0.2018
27799W        W46653   7.205   1.912   2.164 -0.1656 -0.0663 -0.0642
27800W        W46654  15.728   1.594  15.953 -0.1545 -0.2014 -0.0480
27801W        W46655   3.705  17.197  16.630 -0.3111  0.2176 -0.0385
27802W        W46656  14.561   1.491   0.809  0.0487 -0.0436  0.2530
27803W        W46657   5.404   8.908   2.764 -0.3984  0.0758  0.2947
27804W        W46658  12.077  12.484   2.004 -0.1021 -0.2325  0.4943
27805W        W46659  12.150   3.440  13.695 -0.1508 -0.0505 -0.1804
27806W        W46660  11.542   6.466   4.188 -0.2585  0.1501 -0.3248
27807W        W46661  16.382   7.991   4.898 -0.1609 -0.2489  0.3591
27808W        W46662  10.013   2.687  13.044 -0.0895  0.0027 -0.2572
27809W        W46663  11.171   6.145   4.665  0.1356  0.2735 -0.2332
27810W        W46664   1.219   5.167  15.781  0.2976 -0.1913 -0.1441
27811W        W46665   6.718   9.578   3.977 -0.0886 -0.0111  0.1484
27812W        W46666   2.536  10.792   4.513  0.2862  0.4420 -0.1131
27813W        W46667  15.527   4.462  15.626  0.1271 -0.0592  0.0733
27814W        W46668   8.684   9.589  12.345  0.0426 -0.2908  0.1897
27815W        W46669   6.288  16.942  15.538  0.0299  0.0425  0.0254
27816W        W46670  10.476  17.292  16.177 -0.2838  0.1020  0.2022
27817W        W46671   8.932   7.358  16.275  0.0399  0.0380  0.3227
27818W        W46672   5.345  15.589   0.142  0.2110 -0.0253  0.0486
27819W        W46673   2.618  11.113   1.164 -0.0576 -0.1917 -0.1572
27820W        W46674   0.525  15.096  17.037  0.0171  0.1541  0.3261
27821W        W46675  10.996   8.296   3.838 -0.2950 -0.1555 -0.3950
27822W        W46676   1.724  13.542  14.032 -0.0006  0.2686  0.0892
27823W        W46677  11.992   4.513   1.476 -0.0009  0.0437 -0.0471
27824W        W46678   4.151  10.861  13.722  0.0276 -0.4050 -0.2267
27825W        W46679   7.678   5.067  13.965 -0.1402  0.0566 -0.2570
27826W        W46680  11.579  11.595  13.738  0.0561 -0.0671 -0.0649
27827W        W46681   2.229   7.699   2.000  0.0001  0.2075  0.0356
27828W        W46682  11.695   8.092   2.912 -0.3694 -0.0797 -0.0704
27829W        W46683  11.481   2.661   1.893  0.0974 -0.2115  0.0549
27830W        W46684  16.781  15.422  17.294  0.1275  0.1040 -0.0883
27831W        W46685   9.861  14.385   5.075 -0.3685 -0.0676  0.0729
27832W        W46686   6.416  16.393  11.595  0.0272 -0.1805  0.1114
27833W        W46687   1.346  10.840   4.401  0.1139 -0.4727  0.4584
27834W        W46688   3.051  14.617  15.519 -0.3214 -0.2177  0.1377
27835W        W46689   6.536  12.352   3.737 -0.0856  0.2549 -0.1958
27836W        W46690   7.749  15.954   0.896  0.0079  0.1638  0.0602
27837W        W46691  12.676  11.393   0.631  0.0436  0.1791 -0.3482
27838W        W46692  16.210   2.875  15.837  0.0659  0.2179  0.1571
27839W        W46693   4.488  12.206   0.983  0.1177 -0.1320 -0.1169
27840W        W46694  16.339   7.344   3.342  0.0095  0.2162 -0.0966
27841W        W46695   1.930   6.173  16.789 -0.1364  0.2134 -0.0855
27842W        W46696  11.043  16.573   3.351  0.0730 -0.1543  0.0156
27843W        W46697   2.410   3.862   2.530  0.0438 -0.1842  0.0444
27844W        W46698  12.961   7.235   4.499  0.0392  0.0146 -0.0655
27845W        W46699  16.244  13.546  13.616  0.0275  0.2493 -0.0732
27846W        W46700  16.150   8.957   3.358  0.0584 -0.0088 -0.0419
27847W        W46701   6.681   2.371   0.993  0.1211  0.0564  0.0503
27848W        W46702  16.299   7.747   0.210 -0.4678 -0.1598  0.1105
27849W        W46703   9.543  15.197   1.258 -0.1065  0.0009 -0.1839
27850W        W46704   7.635   7.415   1.208  0.1361  0.2030 -0.1422
27851W        W46705  16.082  15.059  12.575  0.0635  0.1094 -0.0088
27852W        W46706  11.437  16.324  15.718  0.1122 -0.3198  0.1191
27853W        W46707   9.471   5.778   4.770  0.1696 -0.2002 -0.0535
27854W        W46708  14.049   5.612   3.575  0.2344  0.0321 -0.0959
27855W        W46709  14.861  14.420  16.012 -0.2180 -0.2110  0.0629
27856W        W46710  12.038  10.949   2.365  0.2018 -0.1836  0.2737
27857W        W46711   0.136  14.234  14.296  0.1690 -0.1126 -0.0425
27858W        W46712  10.258   2.897   1.542  0.0895 -0.0385  0.1000
27859W        W46713   0.554  11.846   3.048 -0.3839 -0.0795 -0.1447
27860W        W46714   4.072  13.366  14.558  0.2710  0.1334  0.0077
27861W        W46715   9.024   2.069  14.688  0.2123 -0.1258  0.1335
27862W        W46716   0.492   5.906   2.615 -0.1553  0.2165  0.0063
27863W        W46717   4.478  14.210   0.330  0.1914 -0.0774 -0.0244
27864W        W46718   0.138  14.694  16.886  0.2023  0.1961  0.0831
27865W        W46719  15.436   1.031   0.914  0.0618 -0.2663 -0.3475
27866W        W46720   3.400  11.148  12.715 -0.0328  0.2335  0.0020
27867W        W46721   3.359   8.851  17.340  0.1962  0.4898 -0.4332
27868W        W46722  10.426  12.508   2.846  0.0398 -0.2936 -0.0878
27869W        W46723   6.860   0.394   1.704 -0.1505  0.2469  0.0181
27870W        W46724  14.745  14.564   3.287  0.2868 -0.1546 -0.0925
27871W        W46725   4.783   4.777  16.366 -0.0186  0.1286  0.0511
27872W        W46726  14.793   3.700  14.824  0.2839  0.1986  0.1747
27873W        W46727  11.798   1.346  16.802  0.1628  0.0038  0.1106
27874W        W46728  16.134  13.620  12.527 -0.2259  0.0709 -0.4695
27875W        W46729   9.756  13.635  13.405  0.0270  0.1097 -0.0009
27876W        W46730  15.463  11.909   3.348  0.1223 -0.0700  0.2084
27877W        W46731  13.211   0.910   3.953 -0.1934  0.0639  0.0334
27878W        W46732  14.647   7.847  12.771 -0.2353 -0.2983 -0.2018
27879W        W46733   2.711  15.530   0.878  0.0271  0.3793 -0.2108
27880W        W46734  11.683  12.910   2.653 -0.1644 -0.1416 -0.0447
27881W        W46735  12.929  15.812   0.097 -0.2838  0.0148  0.0909
27882W        W46736  17.151   6.516  15.430 -0.3571  0.0548 -0.1030
27883W        W46737  12.675  10.632   3.840  0.1257 -0.0528 -0.2881
27884W        W46738   2.516   5.465  15.603 -0.2212 -0.1673 -0.1137
27885W        W46739   4.774   0.771  15.127 -0.1240  0.1149 -0.0774
27886W        W46740   0.281  12.851   1.502  0.1419  0.0953  0.1653
27887W        W46741   0.217  11.727   5.160 -0.0315 -0.2682 -0.0091
27888W        W46742  17.002  14.069  15.421 -0.0467  0.1033  0.0517
27889W        W46743  10.449  12.784  15.113  0.3455 -0.0475  0.1323
27890W        W46744   9.546   6.898  16.518  0.1526 -0.0748 -0.0158
27891W        W46745   6.920   8.087  16.448 -0.0397  0.1301 -0.0721
27892W        W46746  10.526   7.491  12.393 -0.1563 -0.0900 -0.1691
27893W        W46747  15.114  13.398  17.146  0.0530 -0.0673 -0.0954
27894W        W46748   1.800  10.647  16.091 -0.1137  0.0977  0.1296
27895W        W46749   4.213   2.539   2.751  0.2187  0.1160  0.1462
27896W        W46750  15.173   7.878  13.886 -0.1536 -0.0803 -0.0969
27897W        W46751   9.584  12.020   5.135 -0.3605 -0.4682  0.1073
27898W        W46752   9.740   8.475   1.492  0.3040  0.0755  0.0810
27899W        W46753  17.006   0.722   1.990 -0.2019 -0.0918 -0.0116
27900W        W46754  15.962  10.589  13.247  0.1378  0.3683  0.0080
27901W        W46755   4.028   3.181  12.646 -0.0365  0.1579 -0.3024
27902W        W46756   5.536  14.159   4.133 -0.1205 -0.0788  0.1255
27903W        W46757   4.492   0.266   0.669  0.0677 -0.0203  0.0510
27904W        W46758   3.043   9.987  16.621 -0.1608 -0.0544 -0.0204
27905W        W46759   0.051  11.167  15.507  0.1346 -0.1515 -0.2232
27906W        W46760   4.791   3.955   0.562 -0.0070  0.0814 -0.3579
27907W        W46761  15.693   3.225   4.882  0.2883 -0.0151 -0.3553
27908W        W46762  14.030   7.480  12.619 -0.2981  0.0785  0.0546
27909W        W46763   5.146   7.265   3.294 -0.0033 -0.2498 -0.1619
27910W        W46764  15.681  14.593  14.770 -0.0943 -0.3422 -0.1093
27911W        W46765   3.289   0.652   1.611 -0.0638  0.1249 -0.1427
27912W        W46766   7.549   0.401  12.702 -0.2534  0.0659 -0.0807
27913W        W46767  14.653   8.973  16.297  0.2714  0.1743 -0.0935
27914W        W46768  17.077  12.075  13.744  0.1477 -0.2887 -0.0214
27915W        W46769   0.290  13.337   2.658  0.2548  0.1462 -0.0367
27916W        W46770   1.488   4.423  12.655  0.0858  0.0365  0.0549
27917W        W46771   0.844   3.565  16.520  0.1663 -0.0244  0.0930
27918W        W46772  16.998  11.371  14.729 -0.3567 -0.1491 -0.3460
27919W        W46773  13.909   1.078  15.442  0.0501  0.2400  0.2120
27920W        W46774  13.250  15.120  13.525 -0.4325  0.2504  0.2482
27921W        W46775  12.809  15.539  13.530 -0.0885  0.0854  0.1789
27922W        W46776  13.831   9.265  15.245  0.0769 -0.5414 -0.1920
27923W        W46777  12.725  17.298  13.921 -0.1651 -0.0145 -0.1871
27924W        W46778   7.910  13.922   0.455  0.1776  0.5389  0.2354
27925W        W46779   6.341   7.431   0.943  0.0307 -0.3035 -0.0268
27926W        W46780   1.056  16.850   1.877 -0.1336 -0.1598  0.0313
27927W        W46781   4.908  13.905  13.672  0.2649  0.3227  0.2010
27928W        W46782  14.112  10.266   0.114  0.0452  0.1760  0.1649
27929W        W46783   6.408   8.395  13.879 -0.1878  0.0714  0.3653
27930W        W46784   6.676   0.529   0.581 -0.0553 -0.2648 -0.0222
27931W        W46785  17.035   2.842   1.199  0.1187 -0.0792  0.0736
27932W        W46786   4.346   1.302  12.345 -0.0455 -0.1867 -0.1846
27933W        W46787  11.243  15.340  15.992 -0.3406  0.0622  0.1487
27934W        W46788   4.898   1.672  12.356  0.3950 -0.0390  0.0826
27935W        W46789  10.825  10.133  14.502  0.2480 -0.0394  0.0171
27936W        W46790  12.000   9.274   4.719 -0.1898 -0.1467 -0.2005
27937W        W46791  16.167   6.124   5.263 -0.1630 -0.1414 -0.0795
27938W        W46792   8.813  14.135   1.212 -0.1815 -0.0438  0.0362
27939W        W46793   0.320  13.867   0.051 -0.0114 -0.1255 -0.0690
27940W        W46794   1.079   6.440   2.776  0.2262  0.0023  0.0768
27941W        W46795   1.225   5.217  13.666  0.1357 -0.2788 -0.0619
27942W        W46796   8.947  17.206   2.846 -0.0551  0.1536 -0.1604
27943W        W46797  12.222  16.170  12.245 -0.0328  0.0450 -0.1742
27944W        W46798   1.886  17.056  15.226  0.0289 -0.0093  0.0999
27945W        W46799   8.367   4.705   2.200  0.2368  0.2691  0.0354
27946W        W46800  15.507   3.295  15.724  0.0154  0.3087  0.0839
27947W        W46801   7.691   5.952  16.999 -0.0900  0.2936 -0.2693
27948W        W46802   8.745   6.022  16.376 -0.0513 -0.0143  0.2250
27949W        W46803   8.011   6.892   2.107 -0.0628  0.2618 -0.0493
27950W        W46804  11.889  15.692   2.739 -0.1839  0.1225  0.0291
27951W        W46805   8.695   7.114  17.198  0.0570 -0.0010 -0.1884
27952W        W46806  17.223  16.355  11.829 -0.1423  0.0704 -0.0645
27953W        W46807  16.590   9.693  13.435 -0.0789 -0.1373 -0.0336
27954W        W46808   2.113   7.979   3.816 -0.0963 -0.2837  0.2503
27955W        W46809  12.714  13.830  16.476  0.1842  0.2298 -0.1328
27956W        W46810   0.433  16.937  16.579  0.2546 -0.1470  0.0497
27957W        W46811   4.447  11.857   4.866  0.1554  0.2976 -0.1840
27958W        W46812   9.350  10.366   1.569  0.0603  0.2454 -0.1705
27959W        W46813   4.924   7.208   2.005 -0.1441  0.2958  0.0837
27960W        W46814   2.112  14.886  15.179 -0.0798  0.1816  0.2025
27961W        W46815   8.519   0.688   3.113 -0.2351 -0.0385 -0.1013
27962W        W46816  15.399   5.570  12.476  0.2102 -0.2615 -0.0709
27963W        W46817  10.753   1.495   3.254 -0.0591 -0.1451  0.0066
27964W        W46818  13.651   0.682  16.700  0.0492 -0.1508  0.1135
27965W        W46819   9.763  15.802   4.193  0.2695 -0.3325 -0.0691
27966W        W46820   2.191  11.843   1.368 -0.1079 -0.0292 -0.0366
27967W        W46821  10.706   3.361  14.599  0.2149  0.1792  0.0383
27968W        W46822  16.984   4.781   3.570 -0.0277  0.0106  0.2246
27969W        W46823   3.570   0.143   2.395 -0.0883 -0.0903 -0.0949
27970W        W46824  10.291   8.302   4.194 -0.0204  0.1077  0.1827
27971W        W46825   8.419  14.575   0.503 -0.3914  0.3238  0.3165
27972W        W46826  10.842   2.477   4.314 -0.1680 -0.3106 -0.0930
27973W        W46827   1.297   2.529  12.323  0.3030 -0.1056  0.2473
27974W        W46828  10.558  11.802   1.317 -0.4740  0.0856  0.2152
27975W        W46829  15.640   1.116  16.219 -0.0809  0.1246  0.0616
27976W        W46830  15.966   8.901  16.976  0.1544 -0.1913 -0.0336
27977W        W46831   1.630   5.119   1.760 -0.3833  0.2331 -0.2874
27978W        W46832  14.146  17.046   0.921  0.1356 -0.0574 -0.1261
27979W        W46833   4.051   0.889  13.036  0.0815  0.0956  0.1623
27980W        W46834  15.334   4.445   4.531 -0.0234  0.0206 -0.0821
27981W        W46835   7.077  10.776   2.674  0.1541  0.1608 -0.2945
27982W        W46836  12.884   0.281   0.432 -0.2020 -0.0026  0.2403
27983W        W46837  16.689  15.176   4.501  0.2694 -0.0545  0.2177
27984W        W46838   7.640   7.732  12.927 -0.1957 -0.2671  0.2559
27985W        W46839   5.777  10.686  16.092  0.0441  0.1401  0.0369
27986W        W46840  11.829  13.531   1.730  0.0264 -0.1041  0.2562
27987W        W46841  11.560  11.648   3.278 -0.2230  0.1682  0.2001
27988W        W46842   8.373   6.313   1.439  0.1949  0.0541  0.4763
27989W        W46843  16.338   7.746  16.722  0.1235  0.0269 -0.1444
27990W        W46844  11.409  10.683   4.187 -0.0916 -0.0551 -0.1156
27991W        W46845   8.077   8.904  12.792 -0.0210  0.0245 -0.0181
27992W        W46846  14.455   1.925   1.669 -0.0969  0.0475  0.0603
27993W        W46847   5.825   9.740  14.664  0.1708  0.2099  0.0642
27994W        W46848   9.956   9.223   1.150 -0.1664 -0.1281 -0.1561
27995W        W46849   0.983  13.200   0.628  0.1934 -0.0419 -0.3310
27996W        W46850   9.941   6.272  12.876 -0.0099  0.1679 -0.0038
27997W        W46851  11.888  12.237   1.583 -0.2093  0.4164  0.0395
27998W        W46852   4.009   0.616   5.474  0.0063  0.1140 -0.3028
27999W        W46853   8.800  10.351  12.658 -0.1036  0.1880  0.1615
28000W        W46854  14.673  14.800   5.168 -0.0555  0.0833 -0.0796
28001W        W46855   9.737   3.154  14.763 -0.0311  0.0509  0.3308
28002W        W46856  12.965   9.752   1.310  0.3495  0.1837 -0.1652
28003W        W46857  17.197   5.605  12.359 -0.0104 -0.2097  0.1863
28004W        W46858   6.389  13.166  11.807  0.1530 -0.2641 -0.3551
28005W        W46859   9.073   0.047  13.934  0.0713  0.1174  0.0554
28006W        W46860   4.268  14.615   4.434 -0.1049 -0.0906  0.2966
28007W        W46861   9.313   6.516  15.578 -0.0342  0.0320  0.2509
28008W        W46862   3.997   7.319   2.699  0.0350 -0.1493  0.3660
28009W        W46863   4.410  12.505  12.386 -0.1098  0.0920  0.1194
28010W        W46864   6.573  16.873   2.213  0.0422  0.1387  0.1091
28011W        W46865  17.064  14.976  14.920 -0.0381  0.0146  0.2731
28012W        W46866   3.521   2.691   2.761 -0.0386 -0.0351 -0.1599
28013W        W46867  11.357  17.146  15.072  0.0634  0.0813 -0.0695
28014W        W46868  14.464  10.360  15.243  0.2186 -0.0634 -0.1317
28015W        W46869  13.691  15.204  14.335  0.3006  0.0307 -0.2141
28016W        W46870   1.120  13.939  13.537  0.1024 -0.0596  0.3013
28017W        W46871   4.676   7.015   0.790 -0.0684  0.2161  0.1235
28018W        W46872   2.231  11.285   1.383 -0.0687 -0.0969 -0.2026
28019W        W46873   7.522   9.773  14.965  0.1799  0.0870  0.0647
28020W        W46874   0.028   6.786   3.780  0.1457 -0.0590 -0.2266
28021W        W46875  14.315   5.097   2.733 -0.1525 -0.0497 -0.0502
28022W        W46876   1.218  15.174  15.289  0.3261 -0.3019  0.1894
28023W        W46877  15.427   1.498   2.377 -0.1602 -0.0223  0.3185
28024W        W46878  12.800   0.099  16.816 -0.0560  0.1358  0.0120
28025W        W46879  14.698   7.671  15.935 -0.1785 -0.1521  0.0447
28026W        W46880   5.213  14.080   3.423  0.0735 -0.1735 -0.1180
28027W        W46881   1.482   2.159  13.274  0.4402  0.0759 -0.0858
28028W        W46882   3.401  12.530  16.149  0.0376  0.1332 -0.1738
28029W        W46883  12.337   2.493   0.943 -0.1057 -0.1913 -0.2529
28030W        W46884   6.038   5.303   4.418 -0.1367 -0.0897 -0.0576
28031W        W46885  15.161   3.990   4.873  0.2316 -0.1044 -0.1558
28032W        W46886  14.468  12.900  16.957 -0.2764  0.1051 -0.1423
28033W        W46887   3.004   6.902  13.257  0.0065 -0.0017  0.0398
28034W        W46888   9.731   2.262   1.279 -0.3119  0.0923 -0.0666
28035W        W46889   9.012  10.279   4.147  0.2341  0.0370 -0.0694
28036W        W46890   3.398   4.058   4.963 -0.3658 -0.1032  0.1405
28037W        W46891   5.337   2.741   2.019 -0.0079 -0.1807 -0.3073
28038W        W46892  13.455   5.654  15.754  0.1674  0.0182 -0.2237
28039W        W46893  15.221   3.764   1.884 -0.0444 -0.3344  0.2081
28040W        W46894  12.243   2.239   4.539  0.0492 -0.1186  0.0350
28041W        W46895  12.350  12.723  16.780 -0.0911  0.3670  0.0726
28042W        W46896   6.807  13.524  13.622  0.1621 -0.2685 -0.1122
28043W        W46897   1.232   2.281  16.241 -0.1768 -0.0731 -0.2317
28044W        W46898   2.743  12.638  14.682 -0.0980  0.0630 -0.2644
28045W        W46899   4.280  12.337   0.473 -0.2261  0.0099 -0.0317
28046W        W46900  13.907   3.933  14.736 -0.2248 -0.0812  0.0479
28047W        W46901   8.033  11.275  14.950 -0.0616  0.5279  0.0345
28048W        W46902   8.532   9.603  14.204 -0.1492  0.0987  0.3025
28049W        W46903  12.406  15.217  13.407 -0.0411  0.0451  0.1134
28050W        W46904   3.775  16.129   1.369  0.1110 -0.0011  0.0292
28051W        W46905  14.182   9.523   4.722 -0.2598 -0.0445 -0.0865
28052W        W46906   8.394   4.356  14.224  0.0174 -0.2100 -0.1765
28053W        W46907   1.529   3.984   5.122  0.2497  0.1008  0.4573
28054W        W46908   6.648   2.027   4.273  0.0809 -0.0688 -0.1338
28055W        W46909  16.021   9.588  12.585  0.1382 -0.0726  0.0604
28056W        W46910   1.819  12.225   4.327 -0.1003  0.0337  0.0538
28057W        W46911  13.700   5.728   4.720 -0.0757  0.0113  0.1221
28058W        W46912  14.490  15.726   0.804 -0.0842 -0.3415  0.2774
28059W        W46913   7.384   2.483  16.951  0.2143  0.1254  0.0550
28060W        W46914  15.686   7.250  14.836 -0.1387  0.2887 -0.0845
28061W        W46915  11.024  13.763   1.347  0.0520  0.2164  0.0227
28062W        W46916  15.467   9.732   1.020 -0.2914 -0.0328  0.0687
28063W        W46917   4.869  16.631   4.928 -0.4102  0.2594  0.6155
28064W        W46918   4.153   5.977   1.550  0.0585 -0.1739  0.0794
28065W        W46919  14.424  16.205   3.953 -0.1219 -0.4610  0.0959
28066W        W46920  14.433  15.281   4.453 -0.0891 -0.0547  0.0188
28067W        W46921  15.229   2.068   0.263 -0.0820  0.2377  0.0866
28068W        W46922   4.270   2.056  15.316  0.1073 -0.1139 -0.2154
28069W        W46923   4.031  15.417   4.660  0.0165 -0.6305 -0.1009
28070W        W46924  15.396   9.514   5.318  0.2392  0.0140 -0.0436
28071W        W46925   2.420  12.636  15.421  0.0709 -0.0487 -0.1588
28072W        W46926   7.969  13.391  15.483 -0.0921  0.2164  0.1646
28073W        W46927   3.823  16.867  15.221  0.2941 -0.1371 -0.1727
28074W        W46928  13.726   6.824   0.573 -0.0385  0.1389  0.0509
28075W        W46929   6.751  14.573   0.798 -0.3628 -0.1165 -0.1920
28076W        W46930  15.317   2.854   4.037 -0.4702  0.0856 -0.3162
28077W        W46931  15.485   0.575   2.625 -0.1089  0.2457  0.2759
28078W        W46932   6.678  10.761  12.198  0.0683 -0.1978  0.0801
28079W        W46933   1.552   5.727  16.364  0.0705  0.1972  0.2577
28080W        W46934   7.140  13.781   1.194 -0.3198  0.0311  0.1039
28081W        W46935   6.196  12.488   3.390 -0.2847 -0.0177 -0.1745
28082W        W46936  13.412  12.890  13.947  0.1729 -0.1944  0.0632
28083W        W46937   2.432  12.135  17.360  0.0746  0.1126  0.1688
28084W        W46938  11.463  12.341  12.658 -0.1262 -0.0134  0.0513
28085W        W46939   8.196   2.780  13.990 -0.2731  0.0908  0.0300
28086W        W46940  15.699   3.985  17.019  0.2908  0.0935 -0.1298
28087W        W46941  17.314  13.789   5.161 -0.1367 -0.1212 -0.2225
28088W        W46942  12.864  13.695  14.720  0.0810  0.2213 -0.0042
28089W        W46943  14.143  13.994  12.932  0.2702  0.0757 -0.1268
28090W        W46944  11.421  13.616  12.630  0.1737 -0.4486 -0.1800
28091W        W46945  16.860   4.815  13.672  0.1015 -0.1567 -0.2068
28092W        W46946  12.415   7.062  16.022 -0.1299 -0.1113  0.1448
28093W        W46947   0.365   0.759  16.528  0.2395 -0.3872  0.0041
28094W        W46948   6.334  13.471   3.357  0.1829 -0.0260 -0.2447
28095W        W46949   5.888  14.532  14.488  0.0627 -0.1901 -0.0751
28096W        W46950  11.930  15.288  11.561 -0.0045 -0.2045 -0.0321
28097W        W46951  17.329   3.151  17.077  0.1042 -0.0498 -0.0128
28098W        W46952  15.237   8.341  15.302 -0.1343 -0.0867 -0.1746
28099W        W46953  17.080   4.015   0.361  0.2151 -0.0670  0.2557
28100W        W46954   7.763   6.842  17.172  0.0184 -0.2927 -0.0841
28101W        W46955   6.708   4.230  14.666 -0.0377  0.2497 -0.2137
28102W        W46956   2.468  17.019  15.105  0.0680  0.0031 -0.3736
28103W        W46957   1.259  13.922  12.141  0.0578  0.0272  0.1650
28104W        W46958   3.305  14.615  13.442 -0.0053 -0.2497  0.0077
28105W        W46959   5.797  11.497   6.227 -0.0033  0.0161  0.0144
28106W        W46960   1.879   6.137   3.887 -0.0445 -0.2606  0.1260
28107W        W46961   9.084   8.578   4.886 -0.2316  0.0162 -0.1777
28108W        W46962  10.505   6.462   4.237 -0.2693  0.1517  0.0487
28109W        W46963  13.684  12.958  12.534  0.1149 -0.0408  0.0836
28110W        W46964  14.458  15.619   0.330 -0.0089  0.4820  0.0939
28111W        W46965   8.909  16.804  15.645  0.0520  0.1752 -0.1293
28112W        W46966  13.765   6.878  16.394 -0.0328 -0.0125  0.0392
28113W        W46967  13.215  15.061   3.820  0.1927  0.1331 -0.2519
28114W        W46968   6.066  16.001  15.038 -0.0530 -0.0689 -0.3880
28115W        W46969   2.869  17.185   0.261  0.1880  0.0201 -0.1431
28116W        W46970  16.486   1.823   3.480 -0.0721  0.1290  0.2331
28117W        W46971   3.248  14.115   1.862 -0.1500  0.1992 -0.0938
28118W        W46972   2.139  11.300   5.103  0.1253 -0.1977  0.0322
28119W        W46973   2.287   1.184   2.870 -0.1029  0.0106  0.1826
28120W        W46974  11.322  13.315   4.712 -0.0183  0.1121  0.1922
28121W        W46975   7.437  12.816  16.638 -0.2200  0.1428 -0.1630
28122W        W46976   4.510   3.657  12.643  0.0109  0.1793  0.1483
28123W        W46977  12.685   4.836  15.614  0.1351 -0.1984 -0.3002
28124W        W46978   7.445  11.903   2.718  0.1584  0.2149 -0.2138
28125W        W46979  11.760  11.204  13.524  0.4730  0.1061  0.0178
28126W        W46980   5.074   4.582   4.238  0.0252  0.0408 -0.1952
28127W        W46981  15.206  12.030  14.817  0.0289 -0.0760  0.2026
28128W        W46982   5.583  10.439   1.393 -0.2212 -0.3794  0.0753
28129W        W46983  16.704   1.488  14.842  0.0529 -0.0442  0.1638
28130W        W46984   5.362   3.447   2.787  0.2904 -0.0089 -0.3398
28131W        W46985  12.533  14.657  15.222  0.1975 -0.0941  0.1067
28132W        W46986   6.215   1.782  16.271  0.2913 -0.0215 -0.1602
28133W        W46987   5.152   0.141   3.738 -0.0460  0.0926  0.2439
28134W        W46988  11.809  12.435   0.110  0.0031  0.1684  0.1453
28135W        W46989   2.201   9.235   5.127  0.1478  0.2654  0.1016
28136W        W46990   6.680  17.245  12.868  0.0086 -0.0695  0.0804
28137W        W46991   3.319   1.178  15.428  0.2523 -0.1278 -0.1988
28138W        W46992  13.983   3.029  13.071  0.1099  0.0422 -0.0366
28139W        W46993   3.688   8.105  15.872 -0.0476 -0.1083  0.3284
28140W        W46994   1.405  16.439   5.148 -0.1171 -0.0092  0.2220
28141W        W46995   9.180   0.589  15.210  0.2635 -0.0064 -0.0993
28142W        W46996   5.891  12.543  17.415 -0.0194 -0.0573 -0.0386
28143W        W46997  12.918   4.145   0.717 -0.2733  0.1340 -0.2690
28144W        W46998   9.306   6.272   2.214  0.0678  0.2257  0.0033
28145W        W46999  16.122  14.902  16.385 -0.0319 -0.0587  0.2678
28146W        W47000  12.245   2.674   2.279 -0.1448 -0.2247  0.0588
28147W        W47001   8.092   2.334  15.613  0.2783  0.0490 -0.0198
28148W        W47002  12.991   8.872   2.046  0.0919  0.2680 -0.0117
28149W        W47003   1.991  14.116   4.545 -0.1295 -0.1767 -0.4825
28150W        W47004  13.136  10.193   1.583 -0.3121 -0.0568  0.0600
28151W        W47005   4.945   0.616   4.639  0.2212  0.0244 -0.3055
28152W        W47006   4.137   9.409   3.281  0.1055  0.0863  0.0310
28153W        W47007   6.629   6.513   2.348 -0.2209 -0.0817 -0.0583
28154W        W47008   0.155  14.548   3.404 -0.1517  0.3266 -0.0608
28155W        W47009   5.842  14.653  15.122  0.1616  0.0096 -0.0768
28156W        W47010  11.612   9.670   3.483  0.2454  0.0418  0.0284
28157W        W47011  10.459  11.681   4.203  0.1382  0.2279 -0.0437
28158W        W47012  12.102   3.680  15.663 -0.2521 -0.0298 -0.0380
28159W        W47013   4.859  10.789   0.214  0.2415 -0.2616 -0.1518
28160W        W47014   7.435  14.878   3.103  0.1122 -0.2537 -0.0971
28161W        W47015  14.053   4.415  14.369  0.1643  0.0977  0.0772
28162W        W47016   6.156   2.136  11.513  0.3036 -0.1622 -0.0800
28163W        W47017   1.245   0.745  15.110  0.2655  0.0031 -0.0729
28164W        W47018   2.222  10.661  13.353 -0.0610  0.2815 -0.2344
28165W        W47019  16.660  13.669   4.741  0.2277  0.0674 -0.1500
28166W        W47020  12.756   0.995   2.746 -0.0159  0.0728  0.2453
28167W        W47021  12.734   3.772  14.045  0.2978  0.1936  0.1808
28168W        W47022  17.323  13.760  15.135  0.0591  0.0054  0.0686
28169W        W47023  14.783   3.001  15.923  0.5158  0.1548  0.1065
28170W        W47024  17.169   3.480  12.341  0.0554  0.0637  0.2349
28171W        W47025   9.901   9.048  14.992  0.1924  0.0527  0.1072
28172W        W47026  13.910  13.619   2.660 -0.0954 -0.0676 -0.0578
28173W        W47027   3.030  11.131  13.208  0.0219  0.1705 -0.1058
28174W        W47028   9.568  12.468  13.972  0.3086  0.0923  0.2707
28175W        W47029  15.507  16.984  14.185 -0.3394  0.1586  0.0731
28176W        W47030  12.320   3.573   5.200 -0.1023  0.0284  0.0227
28177W        W47031   1.537  10.510   5.138  0.0297 -0.0712 -0.0026
28178W        W47032   8.012   4.828  13.086 -0.1008 -0.1470 -0.2047
28179W        W47033   9.427  12.198  15.790  0.2390 -0.0360  0.0178
28180W        W47034   3.627  15.335   2.402  0.1371  0.1756 -0.2991
28181W        W47035   1.079  11.228  17.051  0.1588  0.0498 -0.0688
28182W        W47036  15.153   5.352  15.861  0.0378  0.3073 -0.2776
28183W        W47037  14.922   9.062   1.070 -0.1033 -0.0440 -0.0502
28184W        W47038   8.100  10.818  13.827  0.1596 -0.1039 -0.0253
28185W        W47039   8.809   5.941   2.960 -0.1832  0.2099 -0.3080
28186W        W47040   1.488   7.794   3.244  0.1732 -0.2464 -0.1554
28187W        W47041   9.996   1.586   4.357  0.4104  0.1343  0.3988
28188W        W47042  15.874  10.879   5.409  0.1948  0.2963  0.1666
28189W        W47043  15.274   0.357  16.614 -0.3076  0.0009  0.0829
28190W        W47044   7.812  12.423   0.732 -0.0296 -0.1602  0.0515
28191W        W47045  10.651  11.088  15.176 -0.2746 -0.0641 -0.1385
28192W        W47046  17.055  13.224  12.983 -0.0304  0.2702 -0.2206
28193W        W47047   9.807   6.261   5.576 -0.1431 -0.0072 -0.2496
28194W        W47048  14.646  11.305  12.893  0.1614  0.1464  0.3484
28195W        W47049   6.748  14.764  14.563 -0.2580 -0.0038 -0.1239
28196W        W47050  15.115  13.160   4.752  0.0017 -0.1799  0.2386
28197W        W47051   3.610  12.633  15.624 -0.0344  0.2041  0.1692
28198W        W47052  13.621   2.193   4.628  0.4745  0.2779  0.1319
28199W        W47053   2.205   3.955  15.222 -0.0532  0.1328  0.0669
28200W        W47054   8.353  11.927  14.265 -0.3433  0.0644  0.0652
28201W        W47055   6.524   4.943   5.210  0.0247 -0.2048  0.2553
28202W        W47056  12.373   0.829  13.132 -0.2367 -0.0772 -0.1252
28203W        W47057   2.618  11.003  14.470 -0.0013  0.1322  0.1866
28204W        W47058   7.788  14.204   4.166 -0.3051  0.2467 -0.2304
28205W        W47059   0.571  10.532  14.610  0.2587 -0.1562  0.0246
28206W        W47060   1.566  13.585  13.437 -0.1431 -0.0760 -0.0474
28207W        W47061   9.875   4.711   3.005  0.0549  0.0130 -0.0391
28208W        W47062   0.457  14.435  12.083 -0.2162  0.3202 -0.1393
28209W        W47063   9.872  14.621   1.850 -0.0376  0.1310  0.0925
28210W        W47064   8.266  12.393   4.377  0.2147 -0.1843 -0.3682
28211W        W47065   4.124  10.382  14.364 -0.2156  0.1860  0.1486
28212W        W47066   3.506   6.478   0.344 -0.0727 -0.0890 -0.0546
28213W        W47067   9.124   5.884  15.055 -0.0426 -0.0833  0.0257
28214W        W47068   3.061   3.749  14.747 -0.2262  0.0380  0.0983
28215W        W47069   2.990   0.139   2.452 -0.2951 -0.2798  0.1755
28216W        W47070   7.395  13.511   1.866 -0.0567 -0.0267  0.1376
28217W        W47071  14.854   6.673   3.318 -0.1951  0.3091 -0.1138
28218W        W47072  13.824  12.841  14.413 -0.2228  0.0843 -0.0400
28219W        W47073   8.815  14.572   4.036 -0.2151  0.1218  0.3634
28220W        W47074  13.113   3.209   3.815  0.1555  0.1561 -0.0948
28221W        W47075   7.943   6.093  15.457 -0.2306 -0.0282  0.1103
28222W        W47076   1.369   2.726   1.954 -0.1047 -0.1308  0.1924
28223W        W47077   7.875  15.457   0.660  0.0044 -0.0249 -0.1897
28224W        W47078  12.018  15.701   3.297  0.1562 -0.1021 -0.1153
28225W        W47079  16.833   0.074   3.010 -0.1877 -0.0250 -0.2394
28226W        W47080  12.963   2.830  17.175 -0.4076  0.1571  0.2182
28227W        W47081   5.269  11.856   3.439 -0.0588  0.1014  0.0624
28228W        W47082  11.207  15.909  12.510  0.1935 -0.1419  0.0279
28229W        W47083  15.064   7.802   4.005  0.0462 -0.0446 -0.1673
28230W        W47084   9.981   1.537   2.308 -0.4840  0.1670  0.1158
28231W        W47085  14.958  16.608  14.034 -0.0810 -0.1400 -0.2719
28232W        W47086   4.770   6.758  16.992 -0.0500  0.1961  0.1174
28233W        W47087  15.009   9.114   5.383  0.1250 -0.1557  0.0788
28234W        W47088  14.684   4.344  15.710 -0.1653  0.0604 -0.1232
28235W        W47089  15.243  14.979   3.307  0.1426  0.0891  0.0070
28236W        W47090  10.321  14.022  14.111  0.0661 -0.2582 -0.2565
28237W        W47091  11.449   6.819   0.328 -0.0886 -0.0216  0.1477
28238W        W47092  16.736   9.445   1.472 -0.1318  0.4181  0.0366
28239W        W47093   5.261  14.803  13.118  0.3107  0.2370  0.1482
28240W        W47094  11.731  10.693   3.221 -0.2864  0.0411  0.0528
28241W        W47095  11.845   2.892   1.003  0.2087  0.1138  0.1838
28242W        W47096   5.488   7.306  17.360  0.0756 -0.0972 -0.2598
28243W        W47097   7.503  12.374   1.763 -0.3594 -0.1844 -0.0890
28244W        W47098   5.529   4.329  15.654 -0.0049 -0.1105 -0.0205
28245W        W47099  12.590  13.958  16.943 -0.0873  0.3376  0.1821
28246W        W47100   7.655   7.340  17.067  0.3998 -0.1911 -0.0871
28247W        W47101  11.837  10.580   1.363 -0.1560  0.0548 -0.1231
28248W        W47102   0.621   4.942   2.895 -0.1204 -0.0156  0.0413
28249W        W47103   6.987   9.916  12.500 -0.2281 -0.1714 -0.3252
28250W        W47104   9.033   6.910  14.906 -0.1767 -0.0721  0.0362
28251W        W47105   8.047  16.518  14.635  0.1501 -0.1241 -0.1003
28252W        W47106   5.403  11.364   3.601 -0.2123 -0.2159  0.2998
28253W        W47107   1.605  10.977  15.577  0.0938  0.1161 -0.1932
28254W        W47108   8.865  14.096  14.969  0.1839 -0.0483 -0.0225
28255W        W47109   2.172  14.869   2.644  0.1251 -0.0453  0.1924
28256W        W47110   5.899   2.874  16.595 -0.1840 -0.0973  0.0210
28257W        W47111  12.511   7.377  15.652  0.1213  0.0367 -0.1090
28258W        W47112   3.802  13.095  12.416  0.1635 -0.0212 -0.3386
28259W        W47113   9.822  13.515  17.111  0.1552 -0.2023 -0.1889
28260W        W47114  14.430  10.372  12.803 -0.0349  0.1872  0.1862
28261W        W47115  11.217   8.127  12.727 -0.1635 -0.0591  0.0971
28262W        W47116  11.510   6.093  14.460 -0.0808 -0.1764  0.2702
28263W        W47117  15.600   0.514  14.459 -0.1144  0.0801 -0.0170
28264W        W47118   5.714  17.042  15.694  0.0563 -0.1294  0.1069
28265W        W47119   5.560   2.000  17.051 -0.0728  0.0690  0.0230
28266W        W47120   8.344  12.787  13.910  0.1143  0.0616  0.1523
28267W        W47121   9.730  16.896  11.678  0.0690  0.0720 -0.1891
28268W        W47122   7.925  13.917  12.141 -0.2778  0.0966  0.1243
28269W        W47123  12.201   9.173  12.385 -0.1846 -0.2500  0.3503
28270W        W47124   9.575  12.851  17.029  0.1562 -0.0563  0.0115
28271W        W47125   3.274   2.620  13.323  0.0686 -0.1969 -0.2656
28272W        W47126  16.584  16.720  15.287  0.0201 -0.0162  0.1062
28273W        W47127   8.829  11.893  16.453  0.2204 -0.1440 -0.0713
28274W        W47128   8.031   1.223   3.577 -0.2338  0.3118 -0.1621
28275W        W47129  14.206  13.032  12.781  0.2953 -0.4592  0.0986
28276W        W47130  15.529  11.506   5.196 -0.1144 -0.1398 -0.0809
28277W        W47131  15.579  14.424  13.131 -0.2189 -0.4686  0.1032
28278W        W47132  14.341  16.392   2.373  0.1697 -0.2035 -0.0910
28279W        W47133   4.612   5.785  13.356  0.4742  0.1117 -0.1185
28280W        W47134  11.160  10.612   2.162 -0.0104 -0.1004 -0.0688
28281W        W47135   2.122  14.643  17.260 -0.0850 -0.2364 -0.1903
28282W        W47136  12.987  15.825   5.028 -0.4202 -0.0552  0.0680
28283W        W47137  14.413   8.713  15.562 -0.0483 -0.1511 -0.0727
28284W        W47138   1.306   1.171   0.527  0.2337  0.0233 -0.2934
28285W        W47139   3.349  16.157  15.540  0.1549  0.1801  0.2748
28286W        W47140   6.596   9.601   5.000  0.3783 -0.1059  0.1435
28287W        W47141   1.452  17.075  14.283  0.0142 -0.1501  0.3433
28288W        W47142  14.069  14.108  15.967  0.1282 -0.0276 -0.1787
28289W        W47143   3.322  10.855  15.359  0.1873  0.0998 -0.1390
28290W        W47144   6.734  16.811   0.864  0.0766 -0.3071  0.2503
28291W        W47145  11.056  13.790   5.233  0.2337 -0.2129 -0.0932
28292W        W47146   3.163   7.876   0.644  0.0372 -0.1587 -0.0505
28293W        W47147   6.641   6.206  12.894  0.2262 -0.2348 -0.1295
28294W        W47148   0.612   1.790   5.515  0.2031  0.1715  0.3217
28295W        W47149   2.213   6.712   4.067 -0.0320 -0.1031 -0.0025
28296W        W47150   1.259   1.252   2.412  0.2439 -0.3427  0.1304
28297W        W47151  14.833  17.066   4.677 -0.2452  0.1454  0.2951
28298W        W47152   6.941   6.546   3.741  0.0515 -0.0309 -0.1809
28299W        W47153   4.833   8.966   1.744 -0.3601  0.0664  0.0658
28300W        W47154  10.016  13.769   1.454 -0.2154 -0.2300  0.1457
28301W        W47155   2.753   7.149  12.883 -0.3669  0.2031 -0.4118
28302W        W47156   1.677   8.528   3.634  0.1886  0.1654  0.0446
28303W        W47157  10.604   0.506  12.735  0.1467 -0.0724  0.1113
28304W        W47158  11.540  12.281   2.108 -0.1856  0.1914 -0.3395
28305W        W47159   7.002   1.825   1.705  0.1206 -0.2309 -0.0434
28306W        W47160  15.848  13.987  13.343 -0.1464  0.0480  0.1565
28307W        W47161   0.459   5.437   4.055 -0.0370 -0.3214  0.2548
28308W        W47162   8.516  12.302   1.858  0.0998 -0.0784 -0.0231
28309W        W47163  15.883   5.647  12.313 -0.1156 -0.1114 -0.1302
28310W        W47164   6.523   9.742   3.536  0.4430 -0.1523  0.0530
28311W        W47165   2.064   1.380  12.700  0.2139 -0.2285 -0.1129
28312W        W47166   5.683   0.766  15.537 -0.2449  0.2106  0.0098
28313W        W47167  14.829   4.827  16.383  0.2051  0.3116 -0.2431
28314W        W47168  13.041  16.538  15.791 -0.0982  0.2172  0.0510
28315W        W47169  12.221  16.438  12.768  0.2418  0.3134  0.2036
28316W        W47170   8.247   9.128  16.905 -0.2339  0.0320 -0.2818
28317W        W47171   6.251   6.566   3.215  0.0167 -0.0180  0.1706
28318W        W47172  16.759  16.958  16.660 -0.1632  0.1663 -0.2832
28319W        W47173  15.128   3.701   1.292  0.1607  0.0314 -0.2151
28320W        W47174   4.124   3.992   5.496  0.2659  0.0938 -0.2016
28321W        W47175  13.513   7.138   2.290  0.2091  0.0304 -0.1974
28322W        W47176  16.401   1.408   2.224  0.0947 -0.0005  0.0578
28323W        W47177   2.951  10.792   4.159  0.0113 -0.1929 -0.3120
28324W        W47178   9.490  13.141   5.827 -0.0121 -0.0022 -0.0083
28325W        W47179   7.559  12.572  13.430 -0.1624  0.0231  0.3590
28326W        W47180  15.556   2.709  14.173  0.4297  0.1033 -0.4529
28327W        W47181  10.127  14.982   4.328  0.1765  0.4228 -0.0963
28328W        W47182   2.551   8.666  12.976 -0.1388  0.0183  0.1147
28329W        W47183  11.490  15.493  13.274  0.0376 -0.1095  0.0056
28330W        W47184   5.051  13.702   3.162 -0.1789  0.0199 -0.2516
28331W        W47185  12.731  14.937   2.276  0.0330  0.3035 -0.2242
28332W        W47186   7.111   8.108   5.113 -0.0131 -0.2065  0.0841
28333W        W47187  10.241  12.992  15.889 -0.1875 -0.0885  0.1194
28334W        W47188   5.090   2.767   3.539  0.0690  0.2938  0.1241
28335W        W47189   4.994   3.007  14.781  0.1048  0.1135 -0.2661
28336W        W47190   2.655  13.575  16.339 -0.3264 -0.1011 -0.1103
28337W        W47191   8.205  11.226  12.666 -0.0127 -0.1884  0.4272
28338W        W47192  13.282   5.176   4.175  0.0072 -0.0077 -0.1263
28339W        W47193  15.381  13.836  17.403  0.1303  0.1602  0.2401
28340W        W47194  13.513   3.176   4.710  0.0712  0.1692  0.0631
28341W        W47195   9.541  11.397  12.660  0.0627 -0.0498 -0.2299
28342W        W47196  12.445  16.325   2.154 -0.0679  0.1249 -0.0577
28343W        W47197   8.841  15.113   4.246  0.1461 -0.0040  0.1470
28344W        W47198  10.212   3.875   3.895 -0.1854  0.1745 -0.0275
28345W        W47199   3.753   4.280  13.152  0.0685 -0.0997 -0.0075
28346W        W47200  11.573   5.852   4.826  0.0555 -0.0736  0.1634
28347W        W47201   4.119  11.718  14.316 -0.0977 -0.0390 -0.0463
28348W        W47202  12.124   0.648   3.167 -0.3447 -0.2373  0.0909
28349W        W47203  14.277  10.054  17.168  0.0376 -0.1779  0.1155
28350W        W47204  15.128   7.701  17.406  0.2384 -0.0512 -0.0754
28351W        W47205  13.612  14.097   4.675 -0.0746  0.3276  0.1314
28352W        W47206   8.192   0.499   2.325  0.0836  0.1318 -0.0216
28353W        W47207  11.775   3.590   5.160 -0.0076 -0.1406 -0.1732
28354W        W47208   6.636  17.270  17.395 -0.0404 -0.0158  0.0641
28355W        W47209  11.563  15.460  16.730  0.0348  0.4325 -0.0193
28356W        W47210   3.272  13.829  12.595 -0.0764 -0.0432  0.0303
28357W        W47211   0.468  12.799  16.914 -0.3664 -0.3597 -0.0657
28358W        W47212   8.303   8.541  13.048 -0.3529  0.3876  0.1929
28359W        W47213  13.193   1.482   2.348 -0.0429 -0.1079  0.1951
28360W        W47214  15.666   3.486   2.918 -0.0157  0.1479 -0.0669
28361W        W47215   2.383   5.266  17.225 -0.0066 -0.0546 -0.1672
28362W        W47216   8.941   5.281  14.668 -0.3441  0.0608 -0.0079
28363W        W47217  17.308  11.122   0.299 -0.1332  0.2241 -0.1008
28364W        W47218   7.503   5.688   3.135  0.0968  0.1933  0.0655
28365W        W47219   2.228  15.907  14.504 -0.4219 -0.0197  0.0857
28366W        W47220   2.523   2.469   3.307 -0.1583 -0.2231 -0.1539
28367W        W47221   7.381   4.529   3.564  0.2174 -0.0451 -0.1342
28368W        W47222  15.848  10.241  16.540  0.0309 -0.1339  0.1213
28369W        W47223   5.853   1.803  14.342 -0.0197  0.1436  0.0588
28370W        W47224   4.304   0.242  14.033  0.1308  0.2572 -0.0420
28371W        W47225  15.609  10.884   4.230 -0.1075  0.2191  0.0667
28372W        W47226   8.477  13.667  14.332 -0.4131 -0.0160  0.0463
28373W        W47227   5.948   2.481  15.752 -0.0589 -0.0271  0.0962
28374W        W47228  11.581   8.126   0.625 -0.1053 -0.2604  0.0870
28375W        W47229  15.783  11.631   4.764  0.2846  0.4557  0.1185
28376W        W47230   3.232   7.534   2.567  0.3623 -0.3662 -0.0943
28377W        W47231  13.981   5.255   1.317  0.1103  0.1843  0.5851
28378W        W47232  10.141   8.545  16.470  0.2422 -0.0251  0.0740
28379W        W47233   4.541  14.617   3.444  0.1865 -0.3530  0.1850
28380W        W47234   6.141  10.567  16.534  0.0969  0.0375  0.0702
28381W        W47235   9.746   3.111  14.250  0.0762 -0.2969 -0.0209
28382W        W47236  12.976  17.129   0.095 -0.0255 -0.1635 -0.0168
28383W        W47237   5.618   3.279   5.132 -0.1977 -0.1308 -0.2698
28384W        W47238  11.573  12.536   5.421 -0.3653 -0.0041 -0.1092
28385W        W47239  10.267   7.615   1.379 -0.1853  0.3333 -0.1258
28386W        W47240   6.397   5.452  13.417  0.4001  0.0458 -0.0762
28387W        W47241   3.968   8.018   1.435 -0.1544 -0.3664 -0.3864
28388W        W47242   8.636  14.910   1.654 -0.2067 -0.1186  0.3511
28389W        W47243  11.509  15.577   2.298  0.0001  0.1161 -0.0456
28390W        W47244   3.529  16.397  15.100  0.2011 -0.0775 -0.1627
28391W        W47245   4.174   5.987   3.941  0.0497  0.0848  0.0225
28392W        W47246   2.801  13.722   4.876 -0.0221 -0.2417  0.0294
28393W        W47247   0.658  13.677   4.479 -0.0445 -0.2059 -0.0252
28394W        W47248   9.978   3.798   3.125 -0.3670 -0.0651 -0.0110
28395W        W47249  14.387  11.560  16.011 -0.0033  0.1880 -0.1937
28396W        W47250   3.863  10.803  12.827  0.2188 -0.0153 -0.1038
28397W        W47251   1.527   4.413   4.877 -0.3788 -0.1182  0.1816
28398W        W47252  10.055   0.789   4.803 -0.3626  0.0139  0.0648
28399W        W47253  12.290  13.947  13.044 -0.1619 -0.1028 -0.1480
28400W        W47254  12.000  11.088  16.195 -0.0844 -0.4171 -0.0393
28401W        W47255  12.487  16.664   3.911 -0.3533  0.0561  0.1055
28402W        W47256  11.585  12.152   0.561 -0.0952 -0.4603 -0.1972
28403W        W47257   1.430   2.945   0.537  0.0296 -0.1028  0.1489
28404W        W47258  11.011  12.986   0.310  0.2732 -0.2036  0.0507
28405W        W47259   5.887   1.945   0.386 -0.0839  0.1046 -0.0862
28406W        W47260   0.007   2.061  15.972 -0.1095 -0.0859  0.0681
28407W        W47261  17.242   8.475  13.597 -0.0461  0.1388 -0.4565
28408W        W47262  14.017  15.004   1.820 -0.3647 -0.1500  0.0899
28409W        W47263   0.185   7.563   1.544  0.0157  0.1826 -0.0087
28410W        W47264   0.404   2.896  14.154 -0.0872 -0.1190  0.3652
28411W        W47265  14.102   7.985   5.207 -0.1727 -0.1279 -0.0305
28412W        W47266   5.662  15.504   0.567 -0.0983 -0.0308 -0.1541
28413W        W47267   5.863   6.047  14.977  0.0314  0.0771 -0.1927
28414W        W47268   1.096   6.767  16.956  0.2725  0.0808  0.3839
28415W        W47269  10.245   1.518   0.077  0.2775  0.0480 -0.1739
28416W        W47270   7.052  16.021  13.154 -0.0138 -0.2704  0.1155
28417W        W47271  10.708   0.037   0.780 -0.0440 -0.2963  0.0171
28418W        W47272   2.610   8.172   4.380 -0.0658  0.0704  0.1050
28419W        W47273  14.757   0.727  13.311  0.2172 -0.0278 -0.0805
28420W        W47274  12.865   7.722  14.456 -0.4390  0.2006  0.0335
28421W        W47275   3.965  12.060  15.084 -0.0448 -0.1178  0.1664
28422W        W47276   1.312   0.325   1.095  0.0628  0.5512  0.0073
28423W        W47277   3.611   9.128   4.731  0.0270  0.0092 -0.3464
28424W        W47278  13.776   4.207   1.432 -0.1796  0.0250 -0.1880
28425W        W47279  13.759  14.089   2.698 -0.3944 -0.0637  0.0790
28426W        W47280   1.741   3.382  12.271  0.1876  0.2314  0.0105
28427W        W47281  11.079   5.291  16.098  0.0218  0.0553  0.1180
28428W        W47282   6.975   6.288  12.060  0.2249  0.1639  0.0394
28429W        W47283  14.147   8.423   0.697  0.0230 -0.1103  0.0213
28430W        W47284  14.794  15.452  12.200 -0.0043 -0.4099 -0.0651
28431W        W47285   9.673   2.364  14.255  0.0628  0.1644  0.1339
28432W        W47286  11.551   5.469  13.018 -0.1526  0.0357  0.0402
28433W        W47287   9.698   6.718   5.430  0.0293  0.2512 -0.1536
28434W        W47288   8.350  10.867  14.970  0.1499  0.0192 -0.1254
28435W        W47289   9.496   9.336  13.212 -0.0226  0.0376  0.2606
28436W        W47290   5.297  16.661   4.115  0.0191 -0.0534 -0.2342
28437W        W47291   3.620  11.025  13.693  0.1551  0.0160  0.0978
28438W        W47292   5.509   5.437   2.666  0.1589  0.0729  0.2521
28439W        W47293  17.092  14.016   1.505  0.0185 -0.0899  0.0496
28440W        W47294   2.636   6.532   0.249 -0.1685 -0.0193 -0.2404
28441W        W47295  10.536   5.205   0.698 -0.0752 -0.2262  0.1922
28442W        W47296  14.530   9.065  17.317  0.1287 -0.0595  0.2146
28443W        W47297   6.214   6.546  15.824  0.1314  0.0322 -0.0822
28444W        W47298  12.276   4.084   2.074 -0.0892 -0.1509  0.0639
28445W        W47299   2.138  14.881  16.276 -0.2374  0.1750 -0.0798
28446W        W47300   3.352  13.709   0.102  0.2564  0.0052  0.2613
28447W        W47301   6.571  14.360  13.258 -0.0290  0.1155  0.1943
28448W        W47302  14.480   1.507   3.856  0.0440  0.3146  0.1249
28449W        W47303   8.267   6.352  14.710 -0.4091  0.1286 -0.0723
28450W        W47304  10.931   7.504   4.846 -0.0594  0.1389 -0.1321
28451W        W47305   9.028  13.859   1.610  0.1922  0.1870  0.0993
28452W        W47306   2.252  11.342  16.585  0.0046 -0.0054 -0.0177
28453W        W47307  10.037   3.651  16.070  0.0835  0.0440 -0.0031
28454W        W47308  14.217  15.064   1.268 -0.0756  0.2623 -0.0461
28455W        W47309   2.854  17.288  13.655 -0.3760  0.0069  0.1458
28456W        W47310   4.163  14.812  12.252  0.4169 -0.1181  0.0479
28457W        W47311   7.913   2.785  15.598 -0.2727  0.0758  0.3864
28458W        W47312   8.076   9.273   0.389 -0.1307 -0.0433 -0.1003
28459W        W47313   1.123   9.058  12.551 -0.1960  0.0274  0.2254
28460W        W47314   1.364   9.571   3.825  0.2236  0.1634  0.3323
28461W        W47315   9.396   9.330  17.168 -0.0924 -0.1550  0.3345
28462W        W47316   6.697  16.072  16.473  0.1599 -0.1279  0.2358
28463W        W47317   5.849  11.474  14.514  0.0738 -0.2269 -0.1202
28464W        W47318   0.301   0.571  12.766 -0.2071 -0.1740 -0.2348
28465W        W47319   1.168   7.937  15.987 -0.3347  0.1191  0.0240
28466W        W47320  10.592   7.890  13.239  0.1769 -0.1504 -0.2617
28467W        W47321   6.184   1.588   2.557  0.0102  0.0654  0.1342
28468W        W47322   5.561   9.850  15.019 -0.0893  0.2748 -0.3708
28469W        W47323   0.381   8.084  16.904  0.2579  0.1130  0.0237
28470W        W47324  15.515  10.636  15.842  0.3348  0.1097  0.1059
28471W        W47325  15.623  13.686  13.024  0.1115 -0.4678  0.0720
28472W        W47326  14.009   3.239  13.957 -0.0953  0.3834  0.2100
28473W        W47327   1.758   4.266  13.565  0.0976  0.2921  0.0219
28474W        W47328  16.304   3.368   1.539  0.0942 -0.0747 -0.0705
28475W        W47329  14.413  13.840  12.481 -0.1877  0.2245 -0.0300
28476W        W47330  15.036  14.230   0.073 -0.1373 -0.3485 -0.0424
28477W        W47331   7.845  16.104  16.247  0.5641  0.3375  0.1792
28478W        W47332   1.347   0.227   3.721  0.2826  0.0646  0.0136
28479W        W47333   2.175   5.154  16.783 -0.0985  0.1498 -0.2661
28480W        W47334  13.407  15.661   2.838  0.3734 -0.2848 -0.0563
28481W        W47335   1.096   5.890  14.912  0.1228 -0.1563  0.0516
28482W        W47336  12.919   8.627  15.005  0.1589  0.1030  0.4739
28483W        W47337   9.862   8.746   3.190  0.0305  0.0268 -0.0420
28484W        W47338   2.735   8.739   5.716 -0.1230 -0.2538 -0.0963
28485W        W47339   3.178   8.710   1.698  0.2171 -0.2531  0.0059
28486W        W47340   2.174   1.639   4.442  0.3226  0.3678 -0.2221
28487W        W47341   2.413  14.526  15.964 -0.1908 -0.5762 -0.3648
28488W        W47342  12.660   4.552  16.536 -0.0159  0.0906  0.1453
28489W        W47343  12.524   5.167   0.356 -0.3678 -0.0278  0.1494
28490W        W47344  10.037   5.473   0.575 -0.1397  0.1138 -0.1597
28491W        W47345  13.582   2.522   1.387 -0.0008 -0.1758 -0.0458
28492W        W47346  11.359   7.369  17.145 -0.3414 -0.0274  0.3694
28493W        W47347   6.000  15.636   2.399  0.2451  0.1666  0.1042
28494W        W47348  17.237  13.011   2.828 -0.0274 -0.1978  0.0659
28495W        W47349  16.453   6.951   2.411  0.1074 -0.0279  0.0494
28496W        W47350   7.940  10.291   0.214 -0.1082  0.1053  0.0402
28497W        W47351  11.196   6.190  13.971 -0.0439 -0.1287 -0.0972
28498W        W47352   9.616   2.953  17.021 -0.0847 -0.1697  0.2062
28499W        W47353  14.493  15.926   2.313  0.0552  0.0789  0.0612
28500W        W47354   9.391  11.664   2.674 -0.3235 -0.1637  0.1719
28501W        W47355  13.879  13.002   2.842  0.0457  0.0173  0.3341
28502W        W47356   8.130   9.104  12.351  0.0291 -0.0506 -0.1974
28503W        W47357  14.343   0.941   4.926  0.0178  0.2814  0.2469
28504W        W47358   1.387  15.906  13.577  0.1126 -0.2587 -0.0957
28505W        W47359   6.422   4.767   3.357  0.2744  0.0282 -0.0401
28506W        W47360   5.947   1.283  16.745  0.1451  0.2406 -0.0018
28507W        W47361  15.197   8.441  16.814  0.0712 -0.1556  0.0626
28508W        W47362   7.806   6.141  12.750 -0.0461 -0.4860  0.1108
28509W        W47363   4.337  15.667  13.191  0.4330  0.0613 -0.1480
28510W        W47364   6.553   7.335  14.874 -0.1934  0.0380 -0.0387
28511W        W47365   1.487  16.216  14.012 -0.1150  0.0433 -0.2951
28512W        W47366   1.565   8.316   4.431  0.0942 -0.1251 -0.1603
28513W        W47367   4.489   3.036  12.477  0.1076  0.0137 -0.1162
28514W        W47368  12.147  16.498  13.364 -0.2189  0.2292  0.2417
28515W        W47369  16.413   8.826   0.943  0.0306  0.1786  0.1773
28516W        W47370  14.286  14.071   3.955  0.1309 -0.0647 -0.0908
28517W        W47371  11.845  16.902   2.247  0.2580 -0.2792 -0.0938
28518W        W47372  15.677  13.828  14.302 -0.0027  0.0177  0.2098
28519W        W47373  11.904   6.911  13.258  0.1663  0.3019  0.0917
28520W        W47374   4.296   6.822  13.067 -0.1484  0.0664  0.1225
28521W        W47375   1.233  13.174   5.176  0.0314 -0.1475 -0.3099
28522W        W47376   1.107  17.303   4.301  0.1663  0.3451  0.2274
28523W        W47377   5.224  16.496   0.213 -0.1083 -0.1390  0.0829
28524W        W47378   4.587   8.824  13.664  0.0837 -0.1777  0.0337
28525W        W47379   5.923   0.188  16.662  0.0035  0.0677 -0.2746
28526W        W47380  14.518  13.563   0.730 -0.1267  0.0056  0.0365
28527W        W47381  14.611   0.833  14.703  0.3053 -0.0759  0.0263
28528W        W47382  13.118   5.008  15.211 -0.1171 -0.0131  0.1496
28529W        W47383   5.496  13.689  17.245 -0.1423  0.0632  0.0655
28530W        W47384  10.804  16.672   1.670 -0.1466 -0.0255 -0.1814
28531W        W47385  17.247   6.776  14.114  0.0715  0.2494  0.0943
28532W        W47386   9.827  15.744  12.057  0.1383  0.3345  0.1683
28533W        W47387   0.438  12.400  12.205  0.1614 -0.1843  0.2630
28534W        W47388  16.615  12.931  14.239 -0.4960  0.1382  0.0344
28535W        W47389  12.666   6.081  11.991 -0.3064 -0.2126 -0.1650
28536W        W47390   7.866  11.148   1.547  0.2426  0.1974 -0.3865
28537W        W47391   0.722  11.501  16.206  0.0232  0.2147  0.1008
28538W        W47392  15.990  16.139   4.556 -0.0396 -0.1800 -0.0661
28539W        W47393  17.251   0.340   3.155  0.0601  0.2044 -0.2281
28540W        W47394   4.347  13.132  16.015  0.1201  0.3663 -0.1767
28541W        W47395   5.763  16.819  12.902 -0.1370 -0.1044  0.2764
28542W        W47396  14.200   2.312  12.958 -0.1480 -0.2850 -0.1564
28543W        W47397   2.075  10.480   3.854 -0.2014  0.2131 -0.0828
28544W        W47398   6.604   1.412   3.490  0.1552 -0.2948 -0.1350
28545W        W47399  11.375   6.441  13.095  0.0143 -0.1019 -0.1967
28546W        W47400  16.828   3.181  14.310 -0.0360  0.1323 -0.0716
28547W        W47401   5.223   5.534  16.069 -0.0232 -0.0878 -0.0583
28548W        W47402  14.355  15.285  12.254  0.3166 -0.1021  0.0217
28549W        W47403   1.996   2.031   4.835 -0.1349  0.1038 -0.1421
28550W        W47404  16.655   2.638   0.650  0.1923 -0.2125  0.2841
28551W        W47405  13.253   3.374   0.287 -0.1262 -0.0029 -0.0271
28552W        W47406   5.181  14.331  13.872  0.0157  0.1035 -0.0849
28553W        W47407  15.961   2.419   2.514  0.3739  0.1882 -0.0692
28554W        W47408  10.741  14.672   0.161  0.1369 -0.0735 -0.1357
28555W        W47409   0.118  11.967  15.043 -0.0503 -0.0452 -0.1155
28556W        W47410  11.894  13.631   2.979  0.0259 -0.0968  0.1280
28557W        W47411   6.962  14.576  16.780 -0.1716  0.1300  0.2962
28558W        W47412  10.757   2.334  12.762 -0.2315 -0.3068  0.3061
28559W        W47413   9.591   6.618   2.276 -0.3712 -0.1671  0.2608
28560W        W47414   6.510   1.861   0.955 -0.0283  0.0495 -0.0702
28561W        W47415   7.952  16.426   2.308  0.2261  0.2579 -0.3499
28562W        W47416  11.975   9.528  16.940 -0.2906  0.1378  0.0809
28563W        W47417   7.698   8.926   2.665  0.1302  0.3529 -0.0781
28564W        W47418  14.181   1.029  12.191 -0.0046  0.1012 -0.0682
28565W        W47419   2.242  14.831   1.417  0.1842 -0.3689  0.1221
28566W        W47420   3.935   0.644   1.447  0.0720 -0.1389 -0.0723
28567W        W47421   5.698  16.283  15.144  0.1933  0.1357 -0.0938
28568W        W47422   1.709   3.671   5.475 -0.0117  0.0673  0.0886
28569W        W47423   8.932   3.683   2.818 -0.3040 -0.1116 -0.2093
28570W        W47424  15.200  15.478   3.123 -0.1292 -0.1375  0.0090
28571W        W47425   0.588   2.594  16.924  0.0610  0.2917  0.0356
28572W        W47426  11.031   3.873   3.355 -0.0261 -0.3808  0.2756
28573W        W47427  10.259  15.418   0.797 -0.0209 -0.2598  0.1700
28574W        W47428   6.367   5.497  16.609  0.0469  0.1120  0.0290
28575W        W47429  13.328   2.922  12.346 -0.1648 -0.0681  0.0025
28576W        W47430   3.604   7.926  14.898  0.0744  0.3434 -0.0899
28577W        W47431   5.934  12.248   2.548 -0.2454 -0.2533 -0.0015
28578W        W47432  16.292   7.221   2.812  0.0317 -0.0464 -0.0560
28579W        W47433   9.171   5.455   2.363 -0.2090  0.0047  0.0300
28580W        W47434  10.441   9.187  13.689 -0.0063 -0.0729  0.2062
28581W        W47435  11.490  13.275  13.004  0.0880 -0.1918  0.0513
28582W        W47436   4.710   6.070   3.840  0.0124 -0.0887 -0.1006
28583W        W47437   3.648  11.721  14.908 -0.0602 -0.0467  0.0163
28584W        W47438  16.974  10.018  13.187  0.0209  0.1258 -0.1641
28585W        W47439  11.052   7.865  14.784 -0.1511 -0.3422  0.2677
28586W        W47440  12.437  15.887  15.794 -0.0897 -0.2116  0.1033
28587W        W47441  10.584   9.356   3.195 -0.0150  0.1203  0.4398
28588W        W47442   6.752  10.704  16.899  0.1453  0.0554 -0.1629
28589W        W47443   1.733  13.572   3.480  0.2452 -0.4655 -0.0690
28590W        W47444   8.732  15.664  16.432  0.0783  0.0878 -0.0130
28591W        W47445  16.447  15.659  14.684  0.4024 -0.0624 -0.1050
28592W        W47446   2.730   5.727  12.846  0.1228  0.1975  0.1273
28593W        W47447   1.607  15.708  12.905 -0.1620  0.1286 -0.0174
28594W        W47448   6.245  11.071   5.332 -0.5010 -0.1226  0.2055
28595W        W47449  15.829   2.487  13.339 -0.1636  0.2333 -0.1330
28596W        W47450   2.175  16.563   1.104  0.1066 -0.2438 -0.1545
28597W        W47451   3.888   4.317   5.832  0.0243 -0.1015  0.1397
28598W        W47452  13.562   5.056   1.549 -0.3741  0.3426  0.2035
28599W        W47453   6.381   4.563   0.757 -0.0654 -0.0789  0.0078
28600W        W47454   5.392  11.150  16.742 -0.0071  0.0244  0.1212
28601W        W47455   2.326  16.623   2.561 -0.3907  0.3629  0.2928
28602W        W47456   1.451  13.089   3.434 -0.1960 -0.2092 -0.0645
28603W        W47457   6.118  14.286   0.539  0.1278  0.2432 -0.1224
28604W        W47458   2.920  12.378  17.423 -0.5370 -0.0818  0.2385
28605W        W47459   0.840  10.090  16.873 -0.3783  0.0636  0.0826
28606W        W47460   0.849  15.455   3.623  0.0153  0.1286  0.2005
28607W        W47461   0.187   3.868  14.368 -0.0881  0.0921 -0.0933
28608W        W47462   7.840   1.879   1.262 -0.2759 -0.1263 -0.0580
28609W        W47463  17.333   7.504   3.213  0.2416 -0.0751 -0.2325
28610W        W47464   9.764   6.375   5.039  0.1608  0.3393  0.2638
28611W        W47465   1.528   5.563   0.928 -0.0670 -0.0807  0.0191
28612W        W47466  13.893   3.713   3.905 -0.1938 -0.1274 -0.2955
28613W        W47467   4.875  11.428  11.521 -0.2162  0.2564 -0.0083
28614W        W47468  12.961  14.542  12.618  0.3540  0.1044  0.0233
28615W        W47469  11.808  10.006   2.562  0.0012 -0.2668 -0.2752
28616W        W47470   2.095   8.639   5.879 -0.2817 -0.1532 -0.2690
28617W        W47471  10.064  16.780  12.548  0.0371 -0.0293 -0.2259
28618W        W47472  15.595   4.197   1.863  0.0443 -0.0372  0.0549
28619W        W47473   9.858   4.063   2.300 -0.1677  0.2066  0.2086
28620W        W47474   9.717   9.950   3.750 -0.0966  0.0717  0.2447
28621W        W47475   2.179   1.097  16.832  0.0992 -0.1283 -0.0324
28622W        W47476   2.456  14.298  15.479 -0.1050 -0.2122 -0.0349
28623W        W47477  16.044  13.108  12.418 -0.2165  0.0881 -0.1740
28624W        W47478   1.675   2.006   5.163  0.1243  0.1887 -0.0041
28625W        W47479   8.927   9.112  16.170  0.2977  0.1443 -0.1541
28626W        W47480   3.107  12.583   4.453  0.3055 -0.0366  0.1540
28627W        W47481  12.641   6.027  13.532  0.0300  0.0507 -0.1060
28628W        W47482  13.037   2.927   2.786  0.1321  0.0749  0.0096
28629W        W47483  11.521  13.887  14.707 -0.1614 -0.1486 -0.2363
28630W        W47484   3.656   8.875  15.394  0.1938 -0.0110 -0.2611
28631W        W47485  13.899   2.098  12.593  0.0140  0.2935  0.1326
28632W        W47486  10.713   3.829   0.252  0.1152 -0.0112  0.0972
28633W        W47487   7.642  12.705   3.684  0.0312  0.0734 -0.2395
28634W        W47488   6.609   0.863  13.706  0.1916 -0.3183  0.0499
28635W        W47489  12.398  15.788   2.884  0.3034  0.1317  0.1041
28636W        W47490   8.325  15.692   3.231  0.3007 -0.0903  0.1618
28637W        W47491   3.328  17.272  16.347  0.2209 -0.0146 -0.1690
28638W        W47492  15.765  13.083   0.406 -0.1335  0.0237  0.2935
28639W        W47493   4.577   5.798   4.224  0.4119  0.1139 -0.0965
28640W        W47494   0.395   9.192   4.895  0.1098 -0.1432  0.0714
28641W        W47495  14.378  10.878   3.725  0.1385  0.0874  0.3086
28642W        W47496   8.805  14.557  13.678  0.1379  0.1509 -0.0638
28643W        W47497   3.864  13.732  16.568  0.2880 -0.1699 -0.0993
28644W        W47498  14.328  10.788   1.743 -0.2495  0.1573 -0.0556
28645W        W47499  12.114   3.684   0.451 -0.3950 -0.2483 -0.0172
28646W        W47500  13.669   6.271   4.813  0.0699 -0.1115 -0.1958
28647W        W47501   8.795   6.495  13.829  0.0125 -0.0999  0.1182
28648W        W47502   3.849   7.949   1.979 -0.2099  0.1501 -0.2008
28649W        W47503   7.746   4.905   4.431 -0.0523  0.0642  0.1534
28650W        W47504  10.465  10.395   2.982  0.2389 -0.0735  0.0042
28651W        W47505  12.885  12.926  13.002  0.1252 -0.1059 -0.1103
28652W        W47506  14.359   2.866   2.657  0.0760  0.0047 -0.0495
28653W        W47507   4.549   4.803   0.736 -0.1192  0.2571  0.1217
28654W        W47508   1.039  10.240  14.486  0.0466 -0.1751  0.0426
28655W        W47509   6.544  13.818  14.907  0.0463  0.0434  0.0423
28656W        W47510   4.018   0.509  14.359  0.1015 -0.3167  0.2062
28657W        W47511   2.240   8.097   0.818 -0.0428  0.1856  0.0005
28658W        W47512   9.746  12.485   2.242  0.5084 -0.1231  0.3019
28659W        W47513   7.117   7.400  17.022 -0.0046  0.0015 -0.1423
28660W        W47514  17.130   7.657  12.976  0.0757  0.0418 -0.1160
28661W        W47515   8.413  10.797   2.279 -0.0209  0.1719  0.1695
28662W        W47516  16.446   2.868  17.157  0.1633  0.0454  0.1784
28663W        W47517  15.943   3.223   3.842 -0.1554  0.3225 -0.2020
28664W        W47518  10.146   2.337   5.054 -0.0231  0.0610  0.1580
28665W        W47519  12.767   5.040   3.313 -0.0664  0.0478 -0.1195
28666W        W47520  15.418  14.251  13.535  0.1930 -0.4041  0.1339
28667W        W47521  13.382  13.909   2.978 -0.1952  0.2272 -0.0750
28668W        W47522   8.136   6.172   0.409  0.1226 -0.2262 -0.5055
28669W        W47523  10.743  15.883  15.157 -0.1491  0.0212  0.0926
28670W        W47524   2.343  16.396   2.015 -0.0276 -0.0082 -0.3001
28671W        W47525  12.971   3.960   4.650 -0.1630  0.0160  0.0391
28672W        W47526  11.572  10.818   0.063  0.0663 -0.0327 -0.1520
28673W        W47527  15.721   4.774  14.612 -0.2561 -0.2107 -0.2215
28674W        W47528  17.343  16.205  12.939 -0.1292 -0.0517 -0.1740
28675W        W47529  16.867  16.138  13.110 -0.1566 -0.0590 -0.0829
28676W        W47530  11.756   0.505  15.713  0.0533  0.2064 -0.0186
28677W        W47531   5.397  14.630   5.180 -0.0708 -0.0247 -0.1810
28678W        W47532   4.403  13.975  16.678  0.1095  0.0250  0.0623
28679W        W47533   5.614   6.661  14.487  0.0608 -0.0584  0.0161
28680W        W47534   4.416   4.686   3.769  0.0374 -0.1713 -0.1185
28681W        W47535   7.735  14.043   3.062 -0.0104  0.0260 -0.0958
28682W        W47536   2.362   7.951  14.460  0.1773  0.1772 -0.3304
28683W        W47537   2.567   3.742   0.701  0.0276  0.3040  0.2973
28684W        W47538   9.326  15.293  13.137  0.0363  0.1598 -0.0668
28685W        W47539   0.726   4.022   1.172 -0.0157  0.0252 -0.3725
28686W        W47540   5.990  10.332   4.164 -0.0329 -0.1232 -0.1293
28687W        W47541   4.979  11.377   1.773  0.2268  0.0163  0.0441
28688W        W47542  12.952   3.929   2.815 -0.0437 -0.0445  0.0212
28689W        W47543   5.023   2.360   0.259  0.0151 -0.0671  0.1034
28690W        W47544  17.098   2.131  12.544 -0.2369 -0.1444 -0.2577
28691W        W47545   3.475   8.208   4.210 -0.0241  0.2694  0.0297
28692W        W47546   9.406   2.775  14.995  0.0144  0.2606 -0.1063
28693W        W47547   4.297  16.885  13.344  0.0056 -0.0491 -0.3128
28694W        W47548   7.088  15.509   1.339 -0.0095  0.3012  0.0470
28695W        W47549   7.637  10.340  13.520  0.0579 -0.0451  0.3283
28696W        W47550   9.338   4.578  13.110 -0.1611  0.3696  0.1004
28697W        W47551  10.444   0.545   5.032  0.1117 -0.2281 -0.1851
28698W        W47552   8.789   9.694   2.827  0.0759  0.2456 -0.1138
28699W        W47553  10.539   8.877  16.288  0.0001 -0.0169  0.0658
28700W        W47554   2.536   4.862  15.430 -0.1962 -0.2497 -0.0589
28701W        W47555   2.158  14.438  14.229  0.0425 -0.1282 -0.1692
28702W        W47556  15.990   8.711  15.964 -0.1035 -0.1041 -0.0922
28703W        W47557   9.209  16.490  15.408 -0.0647 -0.1372  0.1323
28704W        W47558   3.036  12.877   5.438 -0.4570  0.2095 -0.2447
28705W        W47559  12.485  14.135   1.640 -0.0985 -0.0084  0.4118
28706W        W47560   0.589  16.772  12.791 -0.2048  0.1698 -0.0605
28707W        W47561  15.696  16.727   2.069  0.2231 -0.0411  0.0564
28708W        W47562   4.994  17.207  12.277  0.1115  0.0093  0.0103
28709W        W47563  13.532   6.715  12.821 -0.0697 -0.2900  0.1545
28710W        W47564  10.708  11.490  14.929 -0.1457 -0.0236  0.1250
28711W        W47565  13.069  14.268  15.558  0.0500  0.1143 -0.0546
28712W        W47566  13.400  11.411  17.357  0.1527  0.0177 -0.2324
28713W        W47567   0.323   1.997  14.030 -0.1498  0.2203 -0.3856
28714W        W47568  15.634  11.973  17.415  0.1775 -0.3262  0.2211
28715W        W47569  16.841  12.253   3.658  0.1812  0.2781  0.3730
28716W        W47570  11.415   5.879  14.931  0.1083 -0.2896 -0.0731
28717W        W47571   2.359   3.878  12.734  0.1893 -0.4860  0.3117
28718W        W47572   0.863  10.214   4.231  0.0405 -0.0676 -0.0507
28719W        W47573  13.600   9.479   1.610 -0.0223  0.0042  0.0087
28720W        W47574   8.461   6.575   3.562  0.4070  0.0647  0.1068
28721W        W47575   1.860   2.890   4.731  0.0277 -0.3420  0.4440
28722W        W47576   5.330   6.630  16.960 -0.1318 -0.0500 -0.1100
28723W        W47577  15.591  13.741   2.620  0.0204 -0.1291  0.0262
28724W        W47578   4.412   3.328   1.457  0.1574 -0.1308  0.0594
28725W        W47579  13.710  11.028   2.278  0.0688 -0.2236  0.1699
28726W        W47580   2.497  14.893   4.904 -0.0882  0.1890 -0.0804
28727W        W47581   9.875   2.983   1.850 -0.0824 -0.0256  0.0055
28728W        W47582  12.533  17.253   3.024 -0.2922  0.3964  0.4005
28729W        W47583  16.385   4.815  11.373 -0.2028  0.2598  0.0241
28730W        W47584  15.773  11.449   3.028  0.0510 -0.0929  0.0965
28731W        W47585   5.555   6.876   0.891  0.2891 -0.1849  0.0370
28732W        W47586   5.801   8.872  12.757 -0.1173 -0.3639  0.1189
28733W        W47587  15.592   3.053  13.360 -0.1523  0.0726 -0.1333
28734W        W47588   6.309  10.090  15.475  0.1975  0.1962  0.4283
28735W        W47589   8.600   2.087  16.359 -0.1407 -0.1873  0.0441
28736W        W47590  11.872  10.917  15.228  0.0691 -0.1084 -0.2211
28737W        W47591  11.372   8.114   4.922 -0.1674  0.2070  0.0243
28738W        W47592   8.929  13.785   0.391  0.1257  0.0654 -0.1270
28739W        W47593   4.310   6.908  15.474  0.3660  0.1370  0.0812
28740W        W47594   2.555   7.643  12.931  0.2041 -0.2409 -0.2845
28741W        W47595  11.731   2.963  14.040  0.0207 -0.0602 -0.2870
28742W        W47596   9.161  15.845  12.384 -0.2274  0.3559 -0.2266
28743W        W47597   9.123   2.580   4.599  0.0750  0.1885  0.0216
28744W        W47598   5.121   3.696  16.870 -0.2228 -0.1568  0.0537
28745W        W47599   6.567  11.288  15.298  0.1676  0.0052  0.0634
28746W        W47600  12.053  13.436  13.882  0.0928 -0.2954  0.0041
28747W        W47601   9.745   8.851  16.409 -0.2510 -0.2142 -0.1937
28748W        W47602  11.534  11.223   5.163  0.0152 -0.0338  0.1181
28749W        W47603  13.647   0.813   2.461  0.0618  0.1008  0.0827
28750W        W47604   3.961  15.772  12.834  0.2693 -0.3622  0.3822
28751W        W47605   6.958   9.585  13.576 -0.1009 -0.2312  0.1881
28752W        W47606  14.448   9.742   2.894 -0.1720 -0.0292  0.0470
28753W        W47607  15.640   2.407  16.277 -0.0518  0.0129 -0.0362
28754W        W47608   0.349  14.534   0.774  0.1586 -0.1857  0.5260
28755W        W47609  14.506   7.819   3.547  0.1201  0.1249  0.0628
28756W        W47610   4.833   4.790   3.339  0.0552 -0.1267  0.0036
28757W        W47611  16.090   1.468   0.201 -0.2111  0.2670 -0.0818
28758W        W47612   3.871  11.589   0.951 -0.1797 -0.1643  0.0202
28759W        W47613   4.254   1.916   1.723  0.1065 -0.1148 -0.2344
28760W        W47614  11.837  12.126  17.181 -0.0088  0.0719  0.1046
28761W        W47615  16.717  12.902  13.168  0.3618 -0.0553  0.0775
28762W        W47616  10.719  10.898  15.846  0.0399 -0.2924 -0.0624
28763W        W47617   1.708  10.715  13.331  0.0229  0.0144 -0.0199
28764W        W47618   5.905   5.425   4.902 -0.0791  0.0427 -0.1159
28765W        W47619   8.874  13.112  15.623  0.2317 -0.1998 -0.3474
28766W        W47620  13.970  16.596   2.753  0.0824  0.0167 -0.0796
28767W        W47621   1.075   4.232   5.117 -0.0190  0.1470  0.0926
28768W        W47622  16.859   4.646  14.907  0.1915  0.2313  0.2032
28769W        W47623   9.386  13.839  15.970 -0.0734 -0.1502  0.0475
28770W        W47624  13.524  10.287   1.949 -0.1160 -0.3431  0.2111
28771W        W47625   8.445  11.830   0.743  0.2288  0.3755 -0.0611
28772W        W47626   0.191   6.016  12.128  0.2959 -0.1075 -0.3298
28773W        W47627   3.769  13.030  14.320 -0.2299  0.1755 -0.0092
28774W        W47628   4.205   5.956  15.134  0.0801 -0.0799 -0.0178
28775W        W47629   6.840   4.694   0.652 -0.1645 -0.3338  0.1050
28776W        W47630  16.947   8.820  15.139  0.1997 -0.1427 -0.0420
28777W        W47631   7.235   9.444   3.829  0.1597 -0.0389 -0.1488
28778W        W47632   6.696   1.611   0.487 -0.3800  0.4054  0.2043
28779W        W47633  13.236   6.711  15.787 -0.1095  0.1586  0.1616
28780W        W47634  14.638   6.085   4.794  0.3470  0.0997  0.2309
28781W        W47635  14.092   6.576   0.792  0.1569 -0.1750 -0.1060
28782W        W47636  11.382  10.416   5.329  0.1984 -0.1072 -0.0348
28783W        W47637  14.682  15.670   1.902  0.0788 -0.0617 -0.1027
28784W        W47638  10.899  16.094   3.335  0.0099 -0.2369 -0.1008
28785W        W47639   3.508  15.775   2.269  0.0226  0.0585 -0.0379
28786W        W47640   6.190   1.291  16.283 -0.0506 -0.0444  0.1726
28787W        W47641  15.179   7.702  15.979 -0.0696 -0.0346 -0.1937
28788W        W47642   4.560   2.751   3.667  0.4206 -0.0291  0.3155
28789W        W47643   5.853   1.574   2.945  0.2468 -0.2270 -0.1592
28790W        W47644  15.942   1.510  13.487  0.1209  0.0563  0.2556
28791W        W47645   1.138  10.818  15.706 -0.1990 -0.3504 -0.3887
28792W        W47646  13.334  14.338   2.005  0.0895 -0.2363 -0.0183
28793W        W47647  13.538   8.397  12.496 -0.0450  0.3832 -0.1066
28794W        W47648  11.624  15.159  12.515  0.3051  0.1579 -0.2018
28795W        W47649   7.198   2.420   0.738  0.1193 -0.0108 -0.1684
28796W        W47650   7.746   0.164  13.798  0.0260  0.0243 -0.1978
28797W        W47651  16.892   6.655   3.600  0.0547 -0.2784  0.1330
28798W        W47652   4.874  15.213   2.620  0.1656  0.1436  0.1693
28799W        W47653  11.420  15.817  14.335  0.2121 -0.0933 -0.1018
28800W        W47654  12.771   0.067  15.398 -0.0821 -0.3157 -0.2277
28801W        W47655   2.021   2.433   3.253  0.0678 -0.2616  0.0371
28802W        W47656  10.348  10.456   1.557  0.1373 -0.1568  0.0691
28803W        W47657   9.150  16.139   1.258 -0.0662  0.1994 -0.0410
28804W        W47658   3.140   2.895  14.756  0.0039  0.1961 -0.0859
28805W        W47659   8.131   8.370  12.532  0.0103 -0.1694 -0.0572
28806W        W47660   9.673   3.554   1.496  0.0036  0.2797 -0.1870
28807W        W47661  14.043   0.219   4.436  0.0917  0.0843 -0.0892
28808W        W47662  12.888   3.359   2.482  0.2782 -0.0501 -0.2350
28809W        W47663   3.750  14.641   5.137 -0.1773  0.1110 -0.0786
28810W        W47664  10.109   2.627  14.272 -0.2411 -0.1972 -0.2303
28811W        W47665  10.243  12.767   2.303  0.2299  0.1709  0.1661
28812W        W47666   6.363   6.057   3.741 -0.2000  0.1050 -0.0443
28813W        W47667   4.061   7.345   1.913 -0.2915 -0.3133  0.1501
28814W        W47668   1.845  13.395  16.936  0.0472  0.1395  0.0836
28815W        W47669   3.982  16.385   4.740 -0.1850  0.0908 -0.0123
28816W        W47670   8.607   7.295  16.680 -0.0302 -0.1703 -0.3679
28817W        W47671   0.721  15.734   3.213  0.0641 -0.0562 -0.1670
28818W        W47672  12.837  13.416   3.773  0.1151 -0.0687  0.2184
28819W        W47673  16.664  14.952   4.059 -0.0393  0.1182  0.0250
28820W        W47674  12.554   2.261   4.936 -0.0862  0.0707 -0.1109
28821W        W47675  11.477  16.942   3.888  0.2868  0.2206  0.1267
28822W        W47676   2.460   1.337  16.099  0.1766 -0.0019 -0.1755
28823W        W47677  14.748  12.896  14.552  0.2870 -0.1182  0.2634
28824W        W47678   7.034  11.927  13.574 -0.2689 -0.1051  0.0565
28825W        W47679   0.448   6.032  15.078  0.1422  0.0627 -0.4665
28826W        W47680  15.115   0.223   2.331 -0.2696 -0.2217  0.1073
28827W        W47681  15.040   3.014   5.850 -0.0415  0.2593  0.0030
28828W        W47682   4.008   9.253   0.754  0.0373  0.2566 -0.3303
28829W        W47683   7.232   1.505  17.135  0.1432  0.1987  0.0616
28830W        W47684   9.281  10.102  15.304 -0.2680 -0.0960 -0.0153
28831W        W47685   9.849  12.655  14.397 -0.0705 -0.0234 -0.0364
28832W        W47686  11.014   8.473   5.226  0.3790  0.0758  0.1073
28833W        W47687   1.587   0.403   0.108  0.1604  0.0083 -0.0080
28834W        W47688   5.345  10.579   3.334  0.2189  0.1569 -0.1050
28835W        W47689   3.012   8.943  13.057  0.2212 -0.0399  0.0604
28836W        W47690  12.443  14.026   2.164  0.0131 -0.1702  0.1630
28837W        W47691   7.631  16.526  16.365  0.0172 -0.0142  0.0156
28838W        W47692  12.582  10.396   3.439 -0.2030  0.0536 -0.2257
28839W        W47693   3.805  14.113   4.965 -0.2291 -0.1688 -0.2059
28840W        W47694  11.622  14.339   0.324  0.0384 -0.0296 -0.2922
28841W        W47695  11.392   7.701  13.522  0.1282  0.2147  0.0388
28842W        W47696  16.361   9.456   3.435  0.2988  0.4190 -0.0549
28843W        W47697  16.048  15.960   5.028 -0.3677 -0.0049 -0.0715
28844W        W47698   7.503  13.903  16.611 -0.1327 -0.1056  0.2594
28845W        W47699  12.477   3.195   2.084  0.1968 -0.1437 -0.3130
28846W        W47700  15.009  13.000   1.002 -0.0187 -0.3498  0.1640
28847W        W47701  16.123   5.780   4.863 -0.0403  0.2250 -0.1956
28848W        W47702   9.013   2.467  15.050  0.1648 -0.1932 -0.0772
28849W        W47703  13.831   6.009   1.731 -0.1723  0.1038 -0.1709
28850W        W47704   1.745  14.093  13.483  0.0278  0.1601  0.0844
28851W        W47705  12.975  10.417   2.050  0.0649  0.1935 -0.0941
28852W        W47706  14.179   4.453   4.769  0.3161  0.1329 -0.1074
28853W        W47707  12.935  13.819  17.332 -0.0987 -0.0778 -0.1373
28854W        W47708  13.995   0.031  14.769  0.1809 -0.0827 -0.2043
28855W        W47709   0.001   8.004  16.619  0.2290 -0.0773 -0.3663
28856W        W47710   5.189   1.627  17.261 -0.1600  0.1177 -0.1746
28857W        W47711   2.646   7.695   0.679  0.1989  0.2591  0.1018
28858W        W47712  13.608   7.787   4.246  0.4218 -0.1973  0.1300
28859W        W47713   3.396   2.447   1.623  0.3553 -0.0964  0.0726
28860W        W47714   2.522  13.726  13.022  0.3366 -0.4699 -0.2214
28861W        W47715   5.002   4.282   2.684 -0.1429 -0.0768  0.0579
28862W        W47716   3.890   9.031  17.076 -0.3469 -0.0760 -0.0865
28863W        W47717   9.041   7.358  15.288 -0.1719 -0.0575 -0.1365
28864W        W47718   1.740   5.718   5.176 -0.0118 -0.1869  0.3299
28865W        W47719   0.482  10.665  16.499 -0.0069  0.0911  0.2130
28866W        W47720  14.842   8.711   5.141 -0.0408 -0.1452  0.2440
28867W        W47721   2.779   8.306  15.326  0.0277 -0.0819 -0.0146
28868W        W47722  15.989   3.886  13.001  0.1905  0.0216  0.3342
28869W        W47723   2.170   0.896   0.521  0.1972  0.1029  0.3119
28870W        W47724   7.468  15.322  16.732 -0.3078 -0.1953  0.1290
28871W        W47725   5.899  13.354   6.165 -0.0993 -0.1873 -0.0356
28872W        W47726   4.347   0.408  17.237 -0.2239 -0.1328 -0.4155
28873W        W47727  10.483  13.072   0.262 -0.1213  0.0249  0.0992
28874W        W47728   8.342   9.668   0.134 -0.1231 -0.0123 -0.3588
28875W        W47729   7.271   7.726   0.979 -0.4162 -0.1988  0.1629
28876W        W47730  16.552  12.562  12.825 -0.2023  0.2581  0.0875
28877W        W47731   8.933   7.447   0.176 -0.0400  0.0349 -0.2103
28878W        W47732   1.251   9.459  17.338  0.1620  0.2127 -0.1643
28879W        W47733  12.997  10.247  17.019 -0.1927  0.0583  0.0425
28880W        W47734  14.009  15.281   2.318 -0.0856  0.0390  0.0277
28881W        W47735  16.508   8.544  15.029 -0.2708  0.1887  0.1202
28882W        W47736   5.785  15.791   0.060 -0.0170  0.3470  0.3067
28883W        W47737  15.974   4.080   1.170  0.0817 -0.0843 -0.2729
28884W        W47738   6.430   6.217  13.420  0.1351  0.0662 -0.0489
28885W        W47739  12.154   3.056  13.364  0.0931 -0.1258 -0.0061
28886W        W47740  15.886   1.491  12.284 -0.3760  0.0996 -0.0522
28887W        W47741  16.554   7.978   1.326 -0.2913 -0.1789  0.4196
28888W        W47742   3.459  13.031   2.934 -0.3305 -0.0148 -0.2750
28889W        W47743  13.735   6.761  15.115 -0.2302 -0.2316  0.2914
28890W        W47744   2.199  10.222   5.310 -0.0987 -0.1051 -0.4613
28891W        W47745   7.127  16.184  15.576  0.0983 -0.0037 -0.1193
28892W        W47746   9.092   4.988   2.717 -0.1591 -0.0362 -0.0193
28893W        W47747   0.928  17.165   1.498  0.1065 -0.0399  0.2654
28894W        W47748   6.949   8.172  13.275  0.0414 -0.0220 -0.0259
28895W        W47749   0.429   3.798   3.450 -0.0561 -0.1405  0.0127
28896W        W47750   0.376   4.022  13.472  0.0600 -0.1035  0.1693
28897W        W47751   1.540  12.721  12.940 -0.0216 -0.1482  0.2855
28898W        W47752  16.460  13.953  12.630  0.1511  0.1592 -0.1493
28899W        W47753   9.747  16.565   4.426  0.1066  0.0467  0.2766
28900W        W47754   6.774   2.648   1.474  0.0882  0.1902 -0.1143
28901W        W47755  16.160   8.581  15.461 -0.0389 -0.1616  0.1598
28902W        W47756   3.802   6.470   0.768  0.3636 -0.2851  0.1069
28903W        W47757  13.590  11.559  15.258  0.0928 -0.1477  0.1906
28904W        W47758  11.255   3.064   3.096 -0.1979  0.0969  0.1212
28905W        W47759  10.911   0.691   5.114  0.3202  0.1423 -0.4080
28906W        W47760  13.862  14.652  12.527 -0.0059 -0.1950  0.3313
28907W        W47761  12.319   0.691   3.675 -0.1710 -0.1151 -0.1011
28908W        W47762   3.491   1.912  15.082 -0.2420  0.1906  0.0225
28909W        W47763   8.150  17.054   3.391  0.1064  0.2236 -0.1347
28910W        W47764   9.132  16.676   3.124  0.1385  0.1165 -0.0813
28911W        W47765   3.438   4.893  13.772 -0.3754 -0.3831 -0.3326
28912W        W47766   8.870   7.595  17.076  0.1519 -0.1701 -0.1727
28913W        W47767   6.184  10.669   6.173 -0.0395  0.1336  0.1818
28914W        W47768   0.422   8.729   4.787 -0.0882  0.1847 -0.0534
28915W        W47769  14.523   6.850   1.842  0.2449 -0.3217  0.0228
28916W        W47770  17.318   7.450  15.171  0.1735  0.0747 -0.2068
28917W        W47771  12.676  16.703  12.807 -0.2077  0.1010  0.1084
28918W        W47772  15.616   6.453   4.826  0.0350  0.2436  0.2344
28919W        W47773   3.398   6.155  12.197  0.0166  0.0265  0.2188
28920W        W47774   2.429   0.707  13.788  0.4268 -0.0897 -0.1631
28921W        W47775  11.054   2.005   0.170 -0.2093 -0.2910 -0.0696
28922W        W47776   6.206   7.374  12.513  0.4694 -0.1413 -0.0552
28923W        W47777   1.165  10.040   1.710  0.0609  0.3576  0.0789
28924W        W47778  13.931   3.731  16.181  0.0903  0.0309  0.0526
28925W        W47779  11.862  15.883   2.035  0.0334  0.0886  0.2807
28926W        W47780  13.192  15.197  15.598 -0.0910 -0.1073  0.1869
28927W        W47781   9.023  12.442   0.353 -0.1153  0.1014 -0.0444
28928W        W47782   3.552   6.582   2.403 -0.2651  0.1863 -0.0384
28929W        W47783   8.517  10.728   3.577  0.0861 -0.0911  0.0535
28930W        W47784  15.120  11.109  13.000 -0.0579  0.2577 -0.0818
28931W        W47785  12.600  15.359   0.276 -0.1341  0.2677  0.0517
28932W        W47786   6.032   8.605  16.787 -0.0661  0.0667 -0.1526
28933W        W47787  17.325   0.242  14.207  0.1166  0.2206 -0.2586
28934W        W47788   0.304   1.214   2.597  0.0314 -0.0156 -0.0039
28935W        W47789   3.485  11.385   0.698 -0.0933 -0.1707  0.1741
28936W        W47790  10.356   3.020   4.596 -0.1156 -0.0800 -0.0086
28937W        W47791   3.171   5.376   2.812 -0.0062  0.0319  0.0605
28938W        W47792   6.240  15.927   0.344  0.0272 -0.4660  0.3318
28939W        W47793   8.135   6.670   0.040  0.1966 -0.0915 -0.1556
28940W        W47794  11.764   9.488   1.342 -0.0088  0.0666  0.1771
28941W        W47795   1.423   2.202  11.932 -0.0430  0.1658 -0.0381
28942W        W47796  16.473   5.402  16.967 -0.0167 -0.0596  0.0164
28943W        W47797  10.357   0.652  13.736  0.0299 -0.2308 -0.3117
28944W        W47798  11.204   8.457  14.010  0.0362 -0.0903 -0.3354
28945W        W47799  15.443   1.274   1.381 -0.1309 -0.2704  0.0753
28946W        W47800   7.258   7.884  15.429  0.3625  0.1084 -0.2370
28947W        W47801  11.904   9.930   0.301  0.4346  0.0196  0.3022
28948W        W47802   3.645   9.726   1.727  0.2178 -0.0335  0.1361
28949W        W47803  16.368  15.440  12.435  0.0018 -0.2415  0.3210
28950W        W47804  11.936  16.154   4.462  0.0592 -0.1144  0.3219
28951W        W47805  13.250  12.254   2.822 -0.0210  0.4954  0.3298
28952W        W47806   7.865  12.017   1.005  0.5065  0.0297  0.1698
28953W        W47807  12.979  15.960  15.647  0.1209  0.0719 -0.0878
28954ION     NA47808   9.476   2.779  12.868  0.0660  0.3376  0.1354
28955ION     NA47809  14.569   2.029   3.256 -0.1673  0.1356 -0.1101
28956ION     NA47810  10.073   4.861  12.244  0.1422  0.2297 -0.0955
28957ION     NA47811  14.821  15.209  11.308 -0.1926 -0.1149  0.1562
28958ION     NA47812   2.141   0.229   6.349  0.0695  0.1083  0.1812
28959ION     NA47813   4.448   6.164   6.179 -0.0541  0.0631 -0.1445
28960ION     NA47814  11.640  13.134   5.910  0.0813  0.0348 -0.0731
28961ION     NA47815   4.090  16.228  11.556  0.2107  0.0369  0.2530
28962ION     NA47816  13.740   0.262   5.999  0.0505  0.0284  0.1017
28963ION     NA47817   8.861   6.081  15.881  0.3446 -0.3845 -0.3905
28964ION     NA47818   8.498   0.028  11.566 -0.2649 -0.3904  0.0034
28965ION     NA47819   0.916   6.280   0.623 -0.2750 -0.0773 -0.0435
28966ION     NA47820  11.843   0.913  13.428  0.2734 -0.0612 -0.2480
28967ION     NA47821  16.747   3.351   5.867  0.0294  0.1103 -0.2732
28968ION     NA47822   4.232  11.055   6.098  0.0091  0.2206  0.1076
28969ION     NA47823   9.402  14.040   0.392  0.1983 -0.0247  0.1203
28970ION     NA47824  12.000   4.544   6.207  0.1634  0.1387  0.0737
28971ION     NA47825  13.783   3.002   6.026  0.0387  0.3323  0.0087
28972ION     NA47826   3.177   4.583  11.360 -0.0208  0.1738 -0.1531
28973ION     NA47827  16.044   6.489   6.227 -0.0125 -0.1197 -0.2771
28974ION     NA47828  14.068  13.919   5.906 -0.3534 -0.0625 -0.0990
28975ION     NA47829   5.150   8.652  11.466  0.0697  0.2047 -0.0924
28976ION     NA47830   1.131  16.627   6.059  0.0950 -0.0325  0.4163
28977ION     NA47831   0.555  14.316  11.533 -0.0114 -0.0490  0.1633
28978ION     NA47832   1.373   5.840  11.457 -0.1644  0.4241 -0.1726
28979ION     NA47833  14.515  15.788  11.375  0.0206 -0.2919  0.3306
28980ION     NA47834  17.190   7.765  16.217  0.2337  0.0944  0.1201
28981ION     NA47835  16.332   2.194   2.262 -0.0251  0.0122 -0.1163
28982ION     NA47836  17.337   3.144  11.374 -0.2193 -0.0117 -0.3256
28983ION     NA47837   4.636   1.841   5.474  0.1948  0.1482  0.0092
28984ION     NA47838  10.957  13.283   6.030  0.2824  0.0169  0.3176
28985ION     NA47839  10.772   3.057   6.030  0.2392  0.0946  0.0324
28986ION     NA47840  16.656   1.552   6.242 -0.1471 -0.0821  0.4285
28987ION     NA47841  16.162   8.403   6.474 -0.4350 -0.3337 -0.2093
28988ION     NA47842   4.848   2.949  11.490  0.1850 -0.0408 -0.3717
28989ION     NA47843   8.776  10.476  11.695  0.1149 -0.0664  0.1915
28990ION     NA47844   2.397   0.983   6.250 -0.0817  0.1849  0.0907
28991ION     NA47845   1.953   4.259   6.071 -0.0933  0.1738 -0.1534
28992ION     NA47846  10.444  15.263  11.489 -0.0953  0.1684  0.2121
28993ION     NA47847  10.929  16.601  13.527  0.0445  0.3678  0.0249
28994ION     NA47848  16.369  14.445   4.159  0.1928  0.2500 -0.1515
28995ION     NA47849   5.383  16.484  11.549 -0.0855  0.1161  0.0065
28996ION     NA47850  15.876  15.196  11.289 -0.0672 -0.1227 -0.1394
28997ION     NA47851   4.554   0.997   5.999  0.0837 -0.1359 -0.1630
28998ION     NA47852   0.409   8.903  11.634  0.2936  0.2144 -0.1665
28999ION     NA47853   6.717  17.262  11.558  0.1117 -0.0071 -0.3357
29000ION     NA47854  10.264  10.438   6.222  0.1863 -0.0262 -0.3386
29001ION     NA47855   4.195   0.095   6.295  0.0864  0.0606  0.0131
29002ION     NA47856   9.223  10.003  11.502  0.0764  0.0474  0.1477
29003ION     NA47857  14.839   1.314   2.184  0.0935  0.2902  0.0115
29004ION     NA47858  10.340   0.921   1.268 -0.2174  0.1916 -0.3789
29005ION     NA47859  14.712   5.878   6.034 -0.1004 -0.0003  0.3933
29006ION     NA47860  10.785  12.621  11.254 -0.3953 -0.1820 -0.4702
29007ION     NA47861  13.293   9.747  11.560  0.1409 -0.2289  0.1296
29008ION     NA47862  16.773   5.970   1.075 -0.0056 -0.2937 -0.1096
29009ION     NA47863  17.212  10.760  11.326 -0.0101  0.3030 -0.1095
29010ION     NA47864  13.086   0.229  11.543  0.1961 -0.1824 -0.1756
29011ION     NA47865   6.336   9.596   2.415 -0.2599  0.1480 -0.0705
29012ION     NA47866  13.970  13.532  11.309  0.1870 -0.1061 -0.0066
29013ION     NA47867  15.924   5.366   4.657  0.0184  0.1911  0.2204
29014ION     NA47868   5.646  12.485  11.620  0.0144 -0.1031 -0.2773
29015ION     NA47869   1.729   6.860  11.439  0.3162 -0.1403  0.0784
29016ION     NA47870   3.738   2.966   2.364 -0.1382 -0.1090 -0.1720
29017ION     NA47871  12.278   6.911   5.934  0.0253  0.2408 -0.1859
29018ION     NA47872  16.674  16.816   6.078 -0.3842 -0.1637 -0.1823
29019ION     NA47873   8.532   9.440  11.435  0.2764 -0.0494 -0.0744
29020ION     NA47874   3.560   4.580   6.175 -0.4477  0.1860 -0.3429
29021ION     NA47875   6.572   3.354   3.080  0.1427  0.1013 -0.0167
29022ION     NA47876   4.499   2.692   6.498  0.4233 -0.2084 -0.0267
29023ION     NA47877   6.452   2.188  14.785  0.2158  0.3393 -0.0420
29024ION     NA47878  10.272  10.141  11.246 -0.4603  0.0213 -0.1720
29025ION     NA47879  10.183  11.160   4.131 -0.0185  0.2961 -0.2488
29026ION     NA47880   7.490   9.303   6.186  0.0590  0.2466  0.0886
29027ION     NA47881  10.877   0.264   3.463 -0.2019 -0.2268 -0.1683
29028ION     NA47882   1.441  11.035  11.577 -0.3380  0.1892  0.2474
29029ION     NA47883  17.233   4.659  11.437 -0.0325 -0.0407 -0.3512
29030ION     NA47884  15.647   5.464  11.267  0.2373  0.0353  0.1310
29031ION     NA47885  17.167   3.140   4.846  0.0855 -0.0172  0.0582
29032ION     NA47886  13.984  16.320  11.300  0.3140 -0.1229  0.3322
29033ION     NA47887   8.418  15.073  11.467 -0.2258  0.0174  0.2484
29034ION     NA47888  13.950  11.947   5.975  0.1136 -0.2695  0.0881
29035ION     NA47889   2.965   7.020  11.386 -0.2902 -0.0675  0.0513
29036ION     NA47890   3.531  16.954  11.649  0.2507 -0.1790 -0.0141
29037ION     NA47891   3.550   2.948  16.138  0.0076  0.1111 -0.1607
29038ION     NA47892   1.461   5.537   6.101  0.3308  0.0726  0.2742
29039ION     NA47893  16.559   1.904  11.284 -0.1570 -0.0983  0.5647
29040ION     NA47894   9.988  16.739   5.872 -0.1060  0.0440 -0.1209
29041ION     NA47895   8.046   4.108  11.652  0.0403 -0.2062 -0.0496
29042ION     NA47896   3.101   9.785   6.070  0.1543  0.0928 -0.0020
29043ION     NA47897   9.597  10.738  11.423  0.2842  0.1912 -0.0747
29044ION     NA47898   8.255  16.623  11.390 -0.1299 -0.0821  0.1714
29045ION     NA47899   5.534  14.734  17.280 -0.0750 -0.1393 -0.1998
29046ION     NA47900  12.158  12.426   3.736 -0.2304 -0.1710  0.0136
29047ION     NA47901  11.844   3.952  11.428  0.1617 -0.1568 -0.0342
29048ION     NA47902  11.418   4.781  11.566  0.1350  0.2053  0.0741
29049ION     NA47903  13.838   2.853   4.307 -0.0774 -0.0904 -0.0128
29050ION     NA47904   8.904   3.853  11.573  0.2146  0.0126 -0.1420
29051ION     NA47905   9.559   6.846   0.548  0.4302 -0.1551 -0.2370
29052ION     NA47906  16.553  10.323   6.054 -0.1991 -0.2968  0.1088
29053ION     NA47907   5.303   3.760  11.654 -0.1349  0.1005  0.1241
29054ION     NA47908   4.641   1.847   3.952 -0.1137 -0.5690  0.3177
29055ION     NA47909   9.656   8.304  11.834 -0.1017  0.1391 -0.0928
29056ION     NA47910   6.910   7.503   6.047 -0.3732  0.0889  0.0238
29057ION     NA47911  11.698   1.299  11.661  0.2420 -0.0824 -0.2445
29058ION     NA47912  13.478   8.890  11.560  0.0984 -0.0527  0.1695
29059ION     NA47913  15.775   0.026   6.112 -0.0792  0.1746 -0.1537
29060ION     NA47914  16.026   0.850   5.877 -0.1694 -0.0675 -0.0476
29061ION     NA47915  15.104  14.815   5.847  0.1705 -0.2598 -0.1435
29062ION     NA47916  15.066  13.921   5.261  0.1638 -0.1090  0.0448
29063ION     NA47917   7.545  16.075  15.872 -0.1524  0.0023 -0.0769
29064ION     NA47918  12.363  10.434   6.018 -0.1650  0.0341 -0.2339
29065ION     NA47919  12.078  12.167   6.247  0.0900 -0.0591 -0.0612
29066ION     NA47920   9.754   8.640   6.078 -0.1790  0.2066  0.1469
29067ION     NA47921  14.825  10.615  11.394  0.2588 -0.1332  0.0029
29068ION     NA47922   4.681  11.148  11.872 -0.0937  0.0608 -0.1289
29069ION     NA47923  14.008  16.561  15.582 -0.1441 -0.0482 -0.2162
29070ION     NA47924   4.804   4.524  11.909 -0.1679 -0.0395  0.1193
29071ION     NA47925   2.945   3.374   5.986  0.1378 -0.0183  0.1519
29072ION     NA47926   7.534  14.959  11.363 -0.2266 -0.1234  0.1045
29073ION     NA47927   0.171   9.888  11.571  0.1024  0.0381  0.0636
29074ION     NA47928  15.676  12.119   6.069 -0.6182 -0.2346 -0.2899
29075ION     NA47929   4.139   6.915  16.199 -0.1575  0.0097 -0.0025
29076ION     NA47930   6.283  12.474   6.200  0.1382  0.0748  0.0929
29077ION     NA47931  10.541   9.322  11.166  0.4763 -0.2984 -0.2095
29078ION     NA47932   2.072   5.162  12.065 -0.3552  0.0203  0.1137
29079ION     NA47933  17.304   9.382  11.653  0.1500 -0.0562 -0.1665
29080ION     NA47934   2.946  15.984   0.559 -0.1886 -0.1549  0.1306
29081ION     NA47935   9.526   2.992   0.076 -0.0236  0.2337 -0.0412
29082ION     NA47936  10.613   3.806   6.421  0.1422  0.1259  0.0705
29083ION     NA47937   9.966  15.925   6.179 -0.3645  0.1860 -0.2458
29084ION     NA47938  10.643  15.333   6.127 -0.0990 -0.3035  0.0145
29085ION     NA47939   9.434   6.004  11.752  0.2965 -0.1849 -0.2131
29086ION     NA47940   9.474  10.568   6.294 -0.5037 -0.2354 -0.1107
29087ION     NA47941  12.342  10.155   0.199 -0.1850  0.3464  0.1127
29088ION     NA47942  15.777  12.772  15.857 -0.1944  0.0239 -0.3833
29089ION     NA47943   9.227   0.998   5.119  0.0089  0.1715  0.0265
29090ION     NA47944   9.403   0.385  11.377 -0.0868  0.3536 -0.2979
29091ION     NA47945   1.846   6.977   6.249 -0.0284  0.1940 -0.1127
29092ION     NA47946   6.633   2.008   6.079  0.1189  0.0413  0.0511
29093ION     NA47947   6.551  14.852  11.329 -0.0548 -0.2031  0.1781
29094ION     NA47948   4.898  11.975  11.680  0.2356  0.2012 -0.4892
29095ION     NA47949  11.280   5.282   2.787  0.0685  0.3845 -0.2043
29096ION     NA47950  14.160   7.203  11.493  0.0945 -0.1857  0.4633
29097ION     NA47951  10.336   5.351   2.849 -0.1548  0.1454 -0.0366
29098ION     NA47952  16.203   6.126  11.495  0.0970  0.1005 -0.0526
29099ION     NA47953  14.083   5.764   1.405  0.0230  0.0082 -0.1568
29100ION     NA47954   8.516  12.894  11.438 -0.1314 -0.0626 -0.2523
29101ION     NA47955  14.750   3.099  11.187  0.0112 -0.1986 -0.1902
29102ION     NA47956   7.608  13.564  11.908 -0.0432 -0.1247  0.0327
29103ION     NA47957  13.506   1.963  11.496  0.1015  0.1187 -0.3981
29104ION     NA47958  12.459   1.053  11.515  0.1761  0.1195 -0.2927
29105ION     NA47959   2.939  12.367  11.555  0.2326  0.0650  0.0946
29106ION     NA47960   7.945  10.827  11.440  0.1108 -0.2440 -0.2553
29107ION     NA47961   2.181   7.252   1.293 -0.3368  0.2497  0.0105
29108ION     NA47962   3.420  15.134  11.310  0.1314 -0.0199  0.2531
29109ION     NA47963  11.646  11.842  11.502  0.1862  0.0900  0.1873
29110ION     NA47964   3.628   5.395  11.632  0.0337  0.0793 -0.0184
29111ION     NA47965  15.212   9.751  11.564 -0.0919 -0.1595 -0.3341
29112ION     NA47966   5.250  15.499  11.387  0.2016 -0.0286 -0.2219
29113ION     NA47967  16.254  12.029  14.744 -0.2183  0.0889  0.0906
29114ION     NA47968  10.174   8.297  12.633  0.3474  0.1558 -0.0126
29115ION     NA47969   7.118  14.133  11.246 -0.1261 -0.2355  0.0907
29116ION     NA47970   6.348   0.908   6.237  0.2966 -0.0628 -0.1220
29117ION     NA47971  16.348  10.521  11.397 -0.3280  0.0674 -0.2521
29118ION     NA47972   8.830  12.233   6.065  0.0644  0.1318  0.0617
29119ION     NA47973  13.182  14.630  11.873 -0.4337  0.1749 -0.0484
29120ION     NA47974   8.070  10.036  16.503 -0.1087  0.2114  0.2803
29121ION     NA47975   2.265  10.782  11.545 -0.1281 -0.3808 -0.1515
29122ION     NA47976   8.453   3.250   6.023 -0.2234  0.2005 -0.2901
29123ION     NA47977   8.891  16.531  14.056  0.3105  0.2067  0.3246
29124ION     NA47978   3.264   0.398  17.258  0.0195  0.1476  0.0621
29125ION     NA47979  14.249   8.458   6.075 -0.2518  0.1923  0.2251
29126ION     NA47980  11.547  10.433   5.829 -0.2221 -0.1833  0.2068
29127ION     NA47981  16.616   3.922   5.899 -0.0739 -0.0656 -0.2516
29128ION     NA47982   5.140  16.881   6.236  0.2371 -0.1971  0.1500
29129ION     NA47983  15.037   1.875  14.875  0.0316 -0.2736 -0.3712
29130ION     NA47984   3.142   3.070  12.187 -0.1764  0.0151 -0.0832
29131ION     NA47985   4.111   2.064  11.831  0.0163  0.0247  0.2265
29132ION     NA47986   3.231   1.700  15.409  0.0492  0.0921  0.2492
29133ION     NA47987  13.339  10.404   3.104 -0.0816 -0.2694 -0.0443
29134ION     NA47988   3.099   4.564  16.921 -0.0856  0.0459  0.1830
29135ION     NA47989   8.996  10.605   3.656  0.2734  0.0953 -0.0689
29136ION     NA47990  16.350  11.423  11.413 -0.2118 -0.1060 -0.0760
29137ION     NA47991   7.807  15.710  11.350 -0.0759  0.0576 -0.0552
29138ION     NA47992   7.573   9.705   1.623  0.1131  0.1582 -0.0539
29139ION     NA47993   2.251  13.336   5.974  0.1826 -0.1458  0.3001
29140ION     NA47994  12.340  15.337   6.146 -0.3641 -0.3155  0.1137
29141ION     NA47995   7.167   4.447  11.673 -0.2327 -0.0540  0.1408
29142ION     NA47996   0.400   2.748   5.924  0.1393  0.0763  0.4281
29143ION     NA47997   1.340   2.297  11.437  0.0980 -0.0191 -0.0833
29144ION     NA47998  14.856   5.997  13.979  0.0647  0.0859 -0.0847
29145ION     NA47999   6.162  12.297   1.278 -0.3224  0.0749 -0.2970
29146ION     NA48000   3.737   1.322  13.187 -0.4795 -0.0024  0.3163
29147ION     NA48001   3.435   3.875   1.010  0.2332 -0.0600 -0.2838
29148ION     NA48002   0.950   8.297  15.281  0.1352  0.0893  0.0881
29149ION     NA48003   5.375  11.596  15.916  0.0156  0.1516  0.3180
29150ION     NA48004   3.528   4.536   3.976  0.1183 -0.1084  0.1706
29151ION     NA48005   5.891  14.460   5.099 -0.3326 -0.1995  0.0570
29152ION     NA48006   1.712   9.384  11.427  0.0217  0.3111  0.0446
29153ION     NA48007   6.267  10.929  17.096  0.1897 -0.0931 -0.3622
29154ION     NA48008   2.306   0.448   0.229 -0.1053 -0.0157 -0.0634
29155ION     NA48009   2.422  10.499   6.184 -0.0669  0.0142  0.0456
29156ION     NA48010  15.874   9.659   6.215  0.1852 -0.2831  0.0234
29157ION     NA48011   9.583  11.316  11.343 -0.0150 -0.1798 -0.0253
29158ION     NA48012   5.430  13.443  11.432 -0.0566  0.1065 -0.2754
29159ION     NA48013  10.608  14.364  11.526  0.0309 -0.0004  0.2179
29160ION     NA48014   4.736   1.214  12.687 -0.0952  0.1224  0.1916
29161ION     NA48015   5.655  11.254  12.053  0.3057 -0.1087  0.0957
29162ION     NA48016  14.643  10.354   6.242  0.0570  0.1154 -0.4426
29163ION     NA48017   8.493   6.022   6.430 -0.1212 -0.3080  0.2250
29164ION     NA48018   6.201  14.685   5.922 -0.0720  0.2035  0.1855
29165ION     NA48019   9.061   2.977  11.600  0.0461  0.0874 -0.0234
29166ION     NA48020   0.857  12.085  11.261  0.2507 -0.0329 -0.0075
29167ION     NA48021  13.839  16.695   3.661  0.0525  0.1190 -0.1148
29168ION     NA48022   2.754   5.475  11.430  0.0464  0.2379  0.1967
29169ION     NA48023   0.154   4.131   5.656  0.0161  0.1713 -0.0334
29170ION     NA48024  16.861  13.454   5.917 -0.1962 -0.2409  0.1239
29171ION     NA48025  11.079   7.818   6.146 -0.0973  0.1230 -0.1599
29172ION     NA48026   4.543   5.124  11.817  0.1375 -0.1954 -0.3576
29173ION     NA48027  14.786   8.309  11.306  0.0130  0.2658  0.1398
29174ION     NA48028   6.218   4.124  11.449  0.0687 -0.2339  0.3236
29175ION     NA48029  16.287  12.666  11.837  0.1416  0.0440  0.1425
29176ION     NA48030   0.504   7.127  11.626  0.1499 -0.0676  0.2411
29177ION     NA48031  16.465  16.690  11.319  0.1215 -0.2528 -0.1138
29178ION     NA48032   5.619   9.762  13.247  0.0795  0.4406  0.2435
29179ION     NA48033   0.149  10.592   1.368  0.1269 -0.2393 -0.1624
29180ION     NA48034   4.878  11.505   2.726  0.3900 -0.1941 -0.1377
29181ION     NA48035   7.506   4.316   2.728 -0.0796 -0.0331 -0.0205
29182ION     NA48036  14.305  11.307  11.561  0.1383 -0.2794 -0.0504
29183ION     NA48037   0.749  12.009   6.157 -0.1807 -0.0952 -0.2820
29184ION     NA48038   6.012   8.167   6.122  0.4088  0.1401 -0.0555
29185ION     NA48039   4.860   1.974  11.394  0.3105  0.3066 -0.0612
29186ION     NA48040   1.653   8.442   6.184  0.0452  0.2915  0.0166
29187ION     NA48041   1.599   1.551  12.710 -0.0859  0.2247  0.2271
29188ION     NA48042   3.307  11.443  11.303  0.1992  0.2240 -0.3643
29189ION     NA48043  12.975   1.575   1.698  0.0330 -0.1062 -0.3623
29190ION     NA48044   7.447   0.987  11.521 -0.1363  0.0458 -0.1937
29191ION     NA48045  13.929  11.073   6.224  0.0243  0.0898 -0.1420
29192ION     NA48046  14.311   2.878  17.215 -0.1832  0.0468  0.1158
29193ION     NA48047  12.024   0.345  11.469  0.3440  0.1470  0.0188
29194ION     NA48048  15.400  10.350   6.275  0.1842  0.1234  0.1694
29195ION     NA48049   4.070   7.305  14.716  0.2066  0.4489 -0.0720
29196ION     NA48050  17.023  12.993  11.424 -0.0518  0.0936 -0.2361
29197ION     NA48051  11.816   0.802   5.534  0.3195 -0.2181 -0.3009
29198ION     NA48052   7.610  10.713   6.316 -0.0782 -0.1670  0.0772
29199ION     NA48053  12.421   5.207  13.387 -0.0728  0.0538 -0.1281
29200ION     NA48054  16.015   0.814  14.573  0.1287 -0.0111  0.0248
29201ION     NA48055  10.969   3.656  11.606  0.1099  0.4037 -0.0366
29202ION     NA48056   8.165  11.426   6.141  0.2507  0.0196 -0.0225
29203ION     NA48057   0.490   5.350  11.479  0.0203  0.0755  0.0884
29204ION     NA48058   7.048   6.365  11.535  0.2870  0.0461  0.0171
29205ION     NA48059   9.651   2.092   6.077  0.1510 -0.1872 -0.1190
29206ION     NA48060   1.217   2.741   5.656 -0.1891  0.1661  0.2701
29207ION     NA48061   3.651   8.356   5.968 -0.0220 -0.3133  0.1276
29208ION     NA48062   2.289  16.216  11.490 -0.0919 -0.0926  0.1146
29209ION     NA48063   5.667  14.783  11.489  0.0308 -0.1877  0.0581
29210ION     NA48064  16.750   9.126   6.249 -0.3007 -0.0727 -0.0045
29211ION     NA48065   9.794  14.972   5.771  0.0573  0.2630  0.1830
29212ION     NA48066   3.797  13.923   6.177  0.0560 -0.3020  0.0065
29213ION     NA48067   6.028  15.613  11.626 -0.0872  0.2960 -0.3401
29214ION     NA48068   0.672  15.907   6.064  0.2654 -0.1524  0.1557
29215ION     NA48069   1.614   3.437   5.953  0.0175 -0.0800  0.1026
29216ION     NA48070  17.061  13.120  14.469 -0.1302  0.0763 -0.0614
29217ION     NA48071   0.210   7.405   6.272 -0.5762 -0.0794  0.0621
29218ION     NA48072  15.160  14.552  11.301  0.2375 -0.1683 -0.2406
29219ION     NA48073   4.897   5.170   6.539  0.1598  0.0571 -0.0510
29220ION     NA48074   1.070  14.331  11.432 -0.1678  0.2978 -0.0819
29221ION     NA48075   4.796   0.084   2.886  0.2559  0.2635  0.2032
29222ION     NA48076   6.845   8.440   5.384 -0.2405 -0.2257 -0.3556
29223ION     NA48077  16.431  15.711  11.550  0.1672  0.3524  0.1594
29224ION     NA48078   4.901   0.754   3.556  0.1623 -0.1128  0.1877
29225ION     NA48079   5.116  10.773  14.817  0.0487 -0.3398  0.2033
29226ION     NA48080  12.407   2.997  11.492  0.0662  0.0037 -0.1935
29227ION     NA48081  16.773   5.792  12.532  0.1748  0.1644 -0.2169
29228ION     NA48082   7.019   4.878  13.368 -0.1096  0.1815  0.0585
29229ION     NA48083   9.093  11.423   6.259  0.0031  0.1375  0.1932
29230ION     NA48084   6.009  16.136  11.653 -0.1478  0.1313  0.0211
29231ION     NA48085  11.998  14.515   5.849 -0.0518  0.1691  0.3421
29232ION     NA48086   2.519  12.870  13.143  0.0701 -0.0281  0.0430
29233ION     NA48087   4.719   6.928  11.484 -0.1732 -0.0031 -0.0750
29234ION     NA48088  13.780   9.699  13.230  0.1652 -0.0251 -0.0282
29235ION     NA48089  11.186   2.710  16.274  0.1449  0.0203  0.2898
29236ION     NA48090   5.399   6.368   6.102  0.0653  0.2386  0.0026
29237ION     NA48091  16.463   4.391   6.081  0.0118 -0.2286 -0.0776
29238ION     NA48092  14.882  13.627  11.299  0.0646  0.0140 -0.3047
29239ION     NA48093   8.968  15.052   5.837 -0.0286  0.0628  0.2212
29240ION     NA48094   7.834   5.040  11.680 -0.2306 -0.0983  0.1182
29241ION     NA48095  12.907  17.052   6.112  0.4518 -0.0607 -0.1561
29242ION     NA48096  16.888   5.739  13.401  0.1514 -0.0587 -0.0130
29243ION     NA48097  16.528  14.586  11.324  0.2687  0.3255  0.0508
29244ION     NA48098  11.930   9.128  13.818 -0.1735 -0.1001  0.1626
29245ION     NA48099  10.292  13.438  11.326 -0.3039 -0.0622 -0.0350
29246ION     NA48100   9.378   2.943   6.053 -0.1716 -0.0098 -0.0816
29247ION     NA48101   5.284   6.292  11.411 -0.0718 -0.2717  0.0353
29248ION     NA48102   0.731   4.398  11.444  0.1078  0.0364  0.0410
29249ION     NA48103  12.409  16.303   6.083  0.4516  0.0977 -0.0505
29250ION     NA48104   6.792   5.273   6.313 -0.0998  0.0282  0.0156
29251ION     NA48105  13.436  12.706   6.065 -0.1467  0.1619  0.0344
29252ION     NA48106  10.888  16.361  12.555 -0.0168 -0.0720  0.2648
29253ION     NA48107   8.551  10.675   6.220 -0.2697  0.3708  0.0069
29254ION     NA48108   4.571  13.749  11.581 -0.1027  0.1636 -0.2363
29255ION     NA48109   5.458  14.658  12.585 -0.1789 -0.0030 -0.0578
29256ION     NA48110   0.025  12.072  11.664  0.1393 -0.0712  0.0416
29257ION     NA48111  16.206   8.612  11.685  0.2148  0.1462 -0.0501
29258ION     NA48112   8.307  15.680   6.232 -0.0813  0.3633  0.3269
29259ION     NA48113  11.064   4.580   6.268  0.1266 -0.0316  0.1381
29260ION     NA48114  14.748   4.093  11.252  0.3520 -0.0901 -0.1152
29261ION     NA48115   7.898   1.959  11.850  0.1869  0.1122 -0.0347
29262ION     NA48116   8.065   7.704  11.480  0.1938 -0.1428  0.2520
29263ION     NA48117   9.927  14.336  11.574  0.0924 -0.0417  0.1282
29264ION     NA48118  10.532   8.485  17.372 -0.2036 -0.0337 -0.0772
29265ION     NA48119   6.259   4.479   4.550  0.0763 -0.2298 -0.2763
29266ION     NA48120  16.716   0.580   5.961  0.4453 -0.2688 -0.0156
29267ION     NA48121   7.670   8.453  11.582 -0.2856  0.0872  0.0296
29268ION     NA48122   0.447  16.184   3.973 -0.1276  0.2900  0.2448
29269ION     NA48123  16.448  14.267   5.863  0.0980  0.0027  0.0028
29270ION     NA48124   3.590   6.199   6.165  0.0282  0.0357  0.0512
29271ION     NA48125  15.001   7.210  11.459  0.1262 -0.0182  0.2935
29272ION     NA48126   3.280  13.677   4.069  0.0533 -0.0129  0.2340
29273ION     NA48127   8.708   9.165  16.625  0.0520 -0.1045  0.1264
29274ION     NA48128   4.539   8.541  11.692  0.2247 -0.0978 -0.1831
29275ION     NA48129   2.595   5.773   5.474  0.2271  0.2426 -0.1677
29276ION     NA48130   2.265   9.519   6.103  0.0118  0.0263  0.1944
29277ION     NA48131  12.200  10.879  11.839  0.0062 -0.0231  0.1945
29278ION     NA48132  10.390   4.725  11.744 -0.1457  0.1505  0.3378
29279ION     NA48133  11.333   1.544   5.923  0.1769 -0.1770  0.1038
29280ION     NA48134   2.668   6.729   5.974  0.1539 -0.2948 -0.1965
29281ION     NA48135   4.286   1.025   1.177  0.2049 -0.0787 -0.0346
29282ION     NA48136   7.164  12.218  11.089 -0.1172  0.0643 -0.0351
29283ION     NA48137   2.515   8.528   6.122 -0.0516 -0.0865  0.0462
29284ION     NA48138  13.226   7.697   3.720 -0.1211 -0.1789 -0.1565
29285ION     NA48139   1.576  10.125  11.543 -0.1271  0.4597 -0.1629
29286ION     NA48140   0.842   7.795   6.282 -0.0516  0.2502 -0.3602
29287ION     NA48141  17.028   4.803   0.703 -0.2342 -0.1871 -0.1025
29288ION     NA48142  12.853   2.946   6.022  0.2937  0.3535  0.0898
29289ION     NA48143  17.153   0.840   5.878 -0.4214 -0.2929  0.1127
29290ION     NA48144   5.745   9.224  11.593 -0.0850  0.0368 -0.1703
29291ION     NA48145   3.546   3.741  11.671  0.1170  0.1705 -0.2744
29292ION     NA48146   0.881   8.820   1.492  0.1297 -0.2397  0.0881
29293ION     NA48147  15.466  11.230   4.612  0.0554  0.0133  0.2155
29294ION     NA48148   3.821   4.489  12.006  0.1852 -0.1383 -0.0634
29295ION     NA48149   8.282   3.227  11.658  0.2855 -0.1538  0.0592
29296ION     NA48150   1.536   1.751  11.612  0.1183  0.0146 -0.0610
29297ION     NA48151  12.943   7.660   6.062 -0.0962 -0.0512 -0.1709
29298ION     NA48152   1.431  14.330   6.041 -0.1412  0.1214 -0.1281
29299ION     NA48153   3.164   7.538   1.485 -0.0640  0.3656 -0.0685
29300ION     NA48154  10.670  14.022  12.663  0.2749 -0.2590  0.0520
29301ION     NA48155  13.351  14.377   5.895 -0.2520 -0.1246  0.0744
29302ION     NA48156  16.602   7.739   5.955 -0.2885 -0.3458  0.1518
29303ION     NA48157   4.415   8.031   6.054  0.0963  0.3235  0.1020
29304ION     NA48158  10.407   6.089  11.913  0.1519  0.0898  0.1335
29305ION     NA48159   6.147   6.392  11.553  0.1119  0.1612  0.0874
29306ION     NA48160   8.837  14.284  11.462 -0.1055 -0.2761 -0.2167
29307ION     NA48161  13.923   6.613  13.609 -0.1123 -0.0270 -0.0432
29308ION     NA48162   0.394  15.653  11.508  0.0296 -0.1303 -0.0176
29309ION     NA48163   5.001   4.350   6.338  0.0946 -0.0472  0.1758
29310ION     NA48164   9.415   7.273   6.561  0.0011  0.0084  0.2476
29311ION     NA48165   7.593  14.015   1.978  0.2867 -0.1503 -0.1881
29312ION     NA48166   1.517   5.124  16.135  0.1695 -0.1605 -0.0006
29313ION     NA48167   2.984  11.270   6.104  0.3026 -0.2013  0.2834
29314ION     NA48168  16.327   7.766  11.599  0.0451 -0.0248 -0.1894
29315ION     NA48169  14.482  15.593   5.886 -0.0052 -0.1464  0.0498
29316ION     NA48170   8.516  15.381   1.372  0.2160 -0.3212 -0.1168
29317ION     NA48171   2.642   3.258  11.308 -0.3015  0.1430 -0.0001
29318ION     NA48172   5.451   0.982   6.278  0.3554  0.0729  0.0633
29319ION     NA48173   9.507   4.457  11.712 -0.0858  0.0872  0.1359
29320ION     NA48174   8.251  13.702   5.941 -0.0119  0.1564  0.2351
29321ION     NA48175   8.830   2.463  11.976 -0.1463 -0.0423  0.3809
29322ION     NA48176  14.698  17.253  11.280 -0.0015  0.0389 -0.3338
29323ION     NA48177   8.535   4.629  16.250  0.1084 -0.0243 -0.1538
29324ION     NA48178   4.745   9.754   5.688 -0.2146 -0.4188  0.0014
29325ION     NA48179   9.408   2.153  11.550  0.0394 -0.0723 -0.2456
29326ION     NA48180   4.764  15.342   5.824  0.2261  0.1443 -0.1333
29327ION     NA48181  10.290   7.635  11.870  0.0867 -0.0700 -0.0360
29328ION     NA48182   2.763  16.833   6.283  0.0100 -0.0018 -0.1497
29329ION     NA48183  15.476  15.770   5.745  0.1119 -0.0237  0.0310
29330ION     NA48184   9.126   6.633  16.453  0.1547  0.0974 -0.1255
29331ION     NA48185  10.661   8.639   5.992 -0.1966 -0.0778 -0.0886
29332ION     NA48186   6.212  12.671   4.444  0.0433  0.0763 -0.0445
29333ION     NA48187  13.429   0.065  12.679 -0.0132  0.0266  0.0588
29334ION     NA48188   7.536   9.334  11.558  0.4129  0.1172  0.2193
29335ION     NA48189  14.504   2.472   6.027 -0.1157 -0.1454 -0.1285
29336ION     NA48190  13.162   7.998  12.972  0.2576 -0.1401  0.0883
29337ION     NA48191  10.995  16.725  11.331  0.1446  0.0419  0.1421
29338ION     NA48192   0.119  15.271   6.044 -0.1396  0.1234 -0.1432
29339ION     NA48193   3.129   7.966   6.152  0.3140 -0.1001  0.2268
29340ION     NA48194  10.001   0.254   6.206  0.1839  0.0736  0.0244
29341ION     NA48195  15.612  16.972  11.382 -0.2458  0.1301  0.2056
29342ION     NA48196   5.984   0.578  11.416  0.0534 -0.0242 -0.0544
29343ION     NA48197  11.458   4.311   6.297 -0.0080 -0.2300 -0.0727
29344ION     NA48198  16.840   8.514   6.373 -0.2842 -0.3760 -0.2069
29345ION     NA48199  11.226   2.134   5.972 -0.0302 -0.1020  0.2215
29346ION     NA48200   4.546   1.736   6.267  0.1400  0.0199 -0.0812
29347ION     NA48201   5.128   7.891  11.384  0.0061  0.0893  0.0248
29348ION     NA48202   4.829   6.755  15.593  0.1852 -0.0739  0.1229
29349ION     NA48203   6.794  13.377  14.766 -0.1437 -0.2652 -0.5080
29350ION     NA48204   4.909  12.627   6.157  0.0205  0.0017  0.1537
29351ION     NA48205  11.450   9.195  11.370 -0.0516  0.0051 -0.3529
29352ION     NA48206  14.925   0.088   5.931  0.1268  0.3866 -0.0196
29353ION     NA48207   9.285  16.673  11.485  0.0047 -0.2992 -0.0097
29354ION     NA48208  11.887  17.023   6.060 -0.0030 -0.0570  0.0882
29355ION     NA48209   8.933  12.854  11.167 -0.1469  0.3588 -0.1477
29356ION     NA48210   2.710   2.686   5.951 -0.0392 -0.1823 -0.1720
29357ION     NA48211  15.284   5.484   5.891  0.0438  0.0632 -0.0758
29358ION     NA48212  14.819  14.031   6.160 -0.0512  0.0219  0.3539
29359ION     NA48213   6.323   4.612  11.499 -0.0629 -0.1531 -0.1313
29360ION     NA48214   2.649   9.039  11.580 -0.0382 -0.0780 -0.2556
29361ION     NA48215   2.442  12.657  11.614 -0.0593 -0.1006 -0.0485
29362ION     NA48216   3.446   3.553   6.231  0.0702  0.0370  0.1279
29363ION     NA48217  15.635  14.195   6.059  0.0924 -0.3909  0.0796
29364ION     NA48218  13.791  15.270   5.964  0.1713  0.2644  0.0532
29365ION     NA48219   6.536   7.104  11.448  0.3885  0.0071  0.2120
29366ION     NA48220   5.279   0.166  11.802  0.0477  0.0336  0.1114
29367ION     NA48221  12.639  12.463  11.557  0.1253 -0.1702 -0.1797
29368ION     NA48222  11.465   6.324  11.772  0.1429 -0.2395 -0.2381
29369ION     NA48223  12.648   0.603   5.936 -0.0918  0.1433  0.0788
29370ION     NA48224  11.187  13.133  11.290  0.0640 -0.1452  0.3586
29371ION     NA48225   1.226  12.873   6.077  0.0820  0.0063 -0.0326
29372ION     NA48226   5.766  15.372   6.148  0.0501  0.1880 -0.0016
29373ION     NA48227  16.946   4.875   5.983 -0.0353 -0.1404 -0.2992
29374ION     NA48228   8.762  10.064  15.424  0.1621 -0.1799 -0.1957
29375ION     NA48229   7.232  16.574   5.186  0.0983 -0.1527  0.0875
29376ION     NA48230   5.052   3.578   6.319 -0.0869 -0.2218 -0.1139
29377ION     NA48231   7.554  10.989   4.260 -0.1386 -0.1224 -0.1236
29378ION     NA48232  14.809  11.452   6.194 -0.0358  0.1503 -0.1750
29379ION     NA48233   7.929   3.808   5.418 -0.0945  0.1903 -0.0484
29380ION     NA48234  10.290   0.092  11.352 -0.2370  0.0736  0.0835
29381ION     NA48235   8.891   6.873   6.500  0.1268  0.4037  0.0954
29382ION     NA48236  13.382   6.762   6.127  0.1626 -0.0844  0.1213
29383ION     NA48237   9.058  14.109   5.968  0.1323 -0.3382 -0.0027
29384ION     NA48238   6.548  12.930  11.297  0.4485 -0.2652 -0.0102
29385ION     NA48239   8.790   1.026  11.523  0.3213  0.0165  0.4570
29386ION     NA48240  11.846   6.191   6.117  0.0155  0.1011 -0.1004
29387ION     NA48241  15.140  16.934   2.596 -0.0658  0.1531  0.2196
29388ION     NA48242  14.483  14.096  11.944  0.1634  0.0844 -0.2941
29389ION     NA48243   8.597  13.193   0.985  0.0555  0.3479 -0.1122
29390ION     NA48244  15.933  17.060   2.890 -0.2311  0.3099  0.3120
29391ION     NA48245   3.181   5.270   6.113 -0.1146 -0.0455  0.1652
29392ION     NA48246  14.746  16.326   5.877 -0.1795 -0.1848  0.3353
29393ION     NA48247   6.608   3.740  11.503 -0.1255 -0.1059  0.0178
29394ION     NA48248  16.692  11.210   6.193 -0.0318 -0.1862  0.0252
29395ION     NA48249  12.346   5.381   6.080  0.0076 -0.0551 -0.4017
29396ION     NA48250   0.582   0.714   6.261  0.2316 -0.3932  0.0245
29397ION     NA48251  12.508  15.219  11.359 -0.0711 -0.0413  0.1034
29398ION     NA48252   0.684  12.848  11.547 -0.0886 -0.2211  0.0575
29399ION     NA48253   2.478   4.701  11.375  0.1591 -0.1336 -0.0516
29400ION     NA48254  14.180  14.725   5.941 -0.1477  0.3558  0.0972
29401ION     NA48255  17.225   2.205  11.338  0.1679 -0.0396 -0.0743
29402ION     NA48256  14.218   9.567  11.435 -0.0755 -0.1619 -0.0847
29403ION     NA48257   2.960   8.940   6.127 -0.1046 -0.0470 -0.2030
29404ION     NA48258   4.575   4.681   2.850  0.2708 -0.1809  0.0778
29405ION     NA48259  15.372  17.051   6.260  0.0431  0.1365  0.2165
29406ION     NA48260   4.398   6.064  11.689  0.2376  0.2170 -0.1047
29407ION     NA48261  13.118   4.104  15.582  0.0680  0.0070  0.0372
29408ION     NA48262  16.082   4.466  11.240 -0.3954 -0.0950  0.1151
29409ION     NA48263   4.113  16.504   0.092  0.0377  0.0505 -0.2022
29410ION     NA48264  13.807   1.157  14.898 -0.1267  0.0332 -0.1429
29411ION     NA48265   7.478   0.893   2.488  0.2192  0.1232  0.1094
29412ION     NA48266   6.033  10.057   5.252  0.0222 -0.3547 -0.0542
29413ION     NA48267   2.174  11.876  13.048 -0.2270 -0.1185  0.0921
29414ION     NA48268  10.999  16.818   6.160  0.0758 -0.2065  0.0233
29415ION     NA48269   9.044  15.774  11.322 -0.0415 -0.0726 -0.1267
29416ION     NA48270  17.211  12.062   6.157 -0.2175 -0.0360  0.1531
29417ION     NA48271  10.878   5.901  11.957 -0.2902 -0.2311  0.0594
29418ION     NA48272  12.025   1.464   6.011 -0.1279 -0.0009  0.0561
29419ION     NA48273   9.783   4.802   6.540 -0.0857 -0.1127 -0.0705
29420ION     NA48274   6.838   4.973   3.043  0.3214  0.2039  0.1405
29421ION     NA48275   0.116   2.003   6.118  0.0235 -0.0797 -0.0245
29422ION     NA48276   9.042  15.617  14.246 -0.1362  0.2016 -0.0801
29423ION     NA48277   1.755  16.799  11.687  0.1851  0.0460  0.2644
29424ION     NA48278  16.702   5.190  11.203 -0.0550 -0.2089 -0.1181
29425ION     NA48279  12.004  13.650   3.987  0.0586 -0.0232  0.2681
29426ION     NA48280  12.928   6.065  11.547  0.1923  0.2443  0.1721
29427ION     NA48281   1.361   4.495  16.978  0.0071  0.0439 -0.0297
29428ION     NA48282  11.625  13.765  13.047  0.1449 -0.3955  0.0994
29429ION     NA48283   8.616   0.643  16.873  0.1405  0.0775 -0.2343
29430ION     NA48284   5.987   1.786   6.241  0.0803  0.2591 -0.1372
29431ION     NA48285  10.888   7.835  11.583  0.0439 -0.2602  0.1604
29432ION     NA48286  16.885   7.055  11.639  0.1815 -0.0023  0.0492
29433ION     NA48287   5.076   4.283  12.738  0.2852 -0.2288 -0.1919
29434ION     NA48288   7.266  12.200   6.210  0.2246 -0.1039  0.4401
29435ION     NA48289   1.771   0.772  11.547  0.1237 -0.0009 -0.1375
29436ION     NA48290   8.117   2.771  11.694 -0.0224 -0.0022 -0.0611
29437ION     NA48291  13.543   3.898  16.414  0.1493 -0.1177 -0.0240
29438ION     NA48292  14.718   2.172  11.416 -0.2109 -0.1149 -0.2145
29439ION     NA48293   5.817   9.946  11.269 -0.1596  0.0994  0.0229
29440ION     NA48294   7.058  14.824   6.031  0.0059  0.2051 -0.1471
29441ION     NA48295  15.304  14.878   0.121  0.0077  0.0331  0.1050
29442ION     NA48296  16.378  12.676   5.901 -0.1137 -0.2095  0.0512
29443ION     NA48297   6.951  12.725  12.829 -0.1173  0.0694  0.0187
29444ION     NA48298   7.638   1.944  15.631  0.0263  0.0550  0.0018
29445ION     NA48299   2.090   2.525  11.407 -0.0531  0.0535  0.5444
29446ION     NA48300   3.100   6.249  11.816  0.1442  0.1833 -0.0031
29447ION     NA48301   3.430  12.002   6.083 -0.0401  0.2577  0.1207
29448ION     NA48302   0.699   1.499  11.699 -0.0271 -0.0940  0.0599
29449ION     NA48303  15.053  11.371  12.036  0.1103 -0.0060  0.0642
29450ION     NA48304   8.033  12.111  11.085 -0.0209  0.0356 -0.2542
29451ION     NA48305   8.579   5.634  11.870  0.3191 -0.0015 -0.1313
29452ION     NA48306   3.294  16.110  11.499  0.1447 -0.2798 -0.0507
29453ION     NA48307   7.029   6.517   5.065  0.0729 -0.1912  0.0344
29454ION     NA48308   0.302  14.494   4.637  0.0927  0.0461  0.0714
29455ION     NA48309  14.552   3.307   5.553  0.0496  0.0892  0.0566
29456ION     NA48310  16.546  15.708   5.951  0.1944 -0.1200  0.1044
29457ION     NA48311  17.004  13.966  11.468 -0.1945 -0.0257 -0.1361
29458ION     NA48312   7.424   3.518  11.575  0.2501 -0.2572 -0.1240
29459ION     NA48313  16.103   3.699  11.200 -0.0485  0.2198  0.2460
29460ION     NA48314   1.577   3.755  13.500  0.0579 -0.3174 -0.0859
29461ION     NA48315   5.741  13.899   6.182 -0.2707  0.0069 -0.4126
29462ION     NA48316  11.626   3.216  11.592  0.0939  0.1812 -0.1210
29463ION     NA48317   5.428  13.976  11.291  0.0064  0.0503 -0.0174
29464ION     NA48318   4.873  11.775   6.132 -0.1474  0.0690 -0.0894
29465ION     NA48319   7.878   4.069  16.224  0.0331  0.1365 -0.1483
29466ION     NA48320   2.696   2.213  11.534  0.1641 -0.2000 -0.0623
29467ION     NA48321   7.420   3.046   6.234  0.0533  0.3664 -0.0650
29468ION     NA48322   0.033  14.120   6.114 -0.0666  0.1830 -0.1017
29469ION     NA48323  13.855   7.010  12.482 -0.2606 -0.2835 -0.0145
29470ION     NA48324  13.211  13.875  16.423 -0.1015  0.2140 -0.1850
29471ION     NA48325   3.028   0.433   6.442 -0.0892  0.1229  0.0346
29472ION     NA48326   6.860   0.231   6.195 -0.2473  0.2217 -0.1842
29473ION     NA48327   0.260  13.786  16.085  0.1851  0.0548  0.0141
29474ION     NA48328  10.197  14.675   0.312 -0.0104 -0.0971 -0.0266
29475ION     NA48329   9.362   7.828   6.236  0.0667 -0.0723 -0.0920
29476ION     NA48330  15.824  11.147   6.278 -0.2767 -0.0577  0.3054
29477ION     NA48331   3.119   6.140  11.295  0.1734 -0.0981 -0.2346
29478ION     NA48332   8.422  16.840   4.180 -0.2553 -0.1640 -0.2750
29479ION     NA48333  12.985  13.667  11.418 -0.0255 -0.1195  0.1773
29480ION     NA48334   5.487   4.689  11.605  0.0285 -0.0773 -0.0122
29481ION     NA48335  16.747   3.647  11.152  0.0905 -0.2362  0.4763
29482ION     NA48336   6.839  16.420  14.066 -0.2015 -0.1898  0.1160
29483ION     NA48337   2.625  11.844  15.169  0.0972 -0.1697 -0.1061
29484ION     NA48338  13.951   6.037   6.061 -0.1593 -0.1721  0.3963
29485ION     NA48339  13.561  15.714  11.238  0.0798 -0.0357  0.0016
29486ION     NA48340   1.698   6.518   5.915  0.0628 -0.0053  0.0564
29487ION     NA48341   1.559  12.032   6.190 -0.0728  0.2551 -0.0601
29488ION     NA48342   8.009   9.994   6.334  0.0841 -0.2161 -0.1446
29489ION     NA48343   8.835  13.638  15.866 -0.2063  0.3779 -0.0968
29490ION     NA48344   5.043  13.466  13.864  0.0787 -0.0325  0.0374
29491ION     NA48345  15.398   1.702   5.751  0.2077 -0.0762  0.0662
29492ION     NA48346   0.626  15.259  11.667  0.1790 -0.0576 -0.4278
29493ION     NA48347  12.591   6.062   5.771  0.1833  0.1304 -0.1229
29494ION     NA48348   7.582   5.964   6.461 -0.3039  0.0485  0.3370
29495ION     NA48349   6.695   1.774  13.021 -0.1226 -0.2612  0.1407
29496ION     NA48350   6.259  14.048  11.408 -0.2938  0.0775 -0.0611
29497ION     NA48351  12.501   8.896  11.504  0.0742  0.3898  0.2917
29498ION     NA48352   0.330  12.098  17.405 -0.1211  0.0425  0.3008
29499ION     NA48353  16.548  10.877   4.582  0.2921 -0.0073  0.0513
29500ION     NA48354   6.524   6.993   2.297  0.1975  0.0677 -0.0665
29501ION     NA48355  13.906   4.875  11.623  0.0294 -0.1975 -0.0522
29502ION     NA48356  11.762  11.015   6.147 -0.1667 -0.0350  0.0113
29503ION     NA48357   9.000   5.349   6.549 -0.1230  0.0129  0.0576
29504ION     NA48358  11.469  13.989  11.148 -0.0374  0.2167  0.0914
29505ION     NA48359   1.689   0.454  15.032 -0.0989  0.1154 -0.0375
29506ION     NA48360   5.828   4.111   6.308  0.0036 -0.0451  0.1442
29507ION     NA48361  17.270   6.358  15.943  0.1607 -0.4193  0.2183
29508ION     NA48362   6.523   2.903   6.072 -0.0917  0.1515 -0.1246
29509ION     NA48363   0.945   9.513   4.395  0.1979 -0.0853 -0.2361
29510ION     NA48364  14.304   6.828   5.954 -0.1328  0.1584 -0.3357
29511ION     NA48365   4.372  17.131  11.560  0.0608  0.0739 -0.2096
29512ION     NA48366   5.750  11.546  11.623 -0.3163 -0.2276 -0.1082
29513ION     NA48367   3.169   2.991  11.382  0.1070  0.3018  0.2957
29514ION     NA48368  11.391   5.335   6.061  0.1842 -0.0269 -0.0962
29515ION     NA48369   3.518   9.501  11.567 -0.0755  0.1114 -0.4076
29516ION     NA48370  10.933   0.600   6.107 -0.4967 -0.1055  0.2006
29517ION     NA48371  16.681   5.877   6.110 -0.0922  0.2484 -0.0372
29518ION     NA48372  15.243  11.275   6.033  0.2702  0.2772 -0.2071
29519ION     NA48373   2.998   5.761  17.427 -0.0757 -0.1109 -0.0619
29520ION     NA48374  14.021  16.900   5.999 -0.0202 -0.0141  0.0474
29521ION     NA48375   4.931   9.403  11.248 -0.1996 -0.2375  0.2885
29522ION     NA48376  10.891  11.650  11.271 -0.0344 -0.1746  0.0498
29523ION     NA48377  12.594  12.859   6.076 -0.0335  0.1206  0.0415
29524ION     NA48378   2.821   9.923  11.638 -0.3438  0.0618 -0.1074
29525ION     NA48379   7.013   1.442  11.585 -0.1575  0.0364 -0.0757
29526ION     NA48380  17.169  16.155  11.365 -0.0360 -0.0884  0.0599
29527ION     NA48381  13.684   4.568   6.047  0.0460 -0.0335  0.2093
29528ION     NA48382   2.701   1.090   2.094 -0.0426  0.1288  0.1553
29529ION     NA48383   4.383   4.187   6.360  0.4109 -0.3446 -0.1411
29530ION     NA48384   9.649  15.917  11.596 -0.2160 -0.2175  0.1917
29531ION     NA48385  16.642   0.466  11.450  0.2902 -0.2293 -0.2628
29532ION     NA48386  10.053   1.788  12.804 -0.1076  0.0320  0.1261
29533ION     NA48387  12.491   9.978   6.207  0.4500  0.1470 -0.2176
29534ION     NA48388   4.475   3.825  11.528 -0.0592  0.1738 -0.0066
29535ION     NA48389   8.878   9.893   6.043  0.1599  0.2998 -0.0322
29536ION     NA48390   0.945   9.573  11.750 -0.1572  0.1025  0.0876
29537ION     NA48391  10.045   4.134  14.685 -0.0145 -0.2373  0.2167
29538ION     NA48392   9.692   9.757   6.170  0.0684  0.1848 -0.0356
29539ION     NA48393  13.392  13.000  11.501  0.1710  0.1593  0.4148
29540ION     NA48394  11.002  15.755  16.860  0.0205  0.0792 -0.0576
29541ION     NA48395  16.232  12.063   6.059  0.1081 -0.0194  0.3109
29542ION     NA48396  16.245   1.385   5.975 -0.0393  0.0394 -0.0937
29543ION     NA48397  16.548   0.202   5.571  0.2590  0.0754  0.0642
29544ION     NA48398  12.223   3.731   6.124  0.8074 -0.4048  0.0720
29545ION     NA48399   0.885  17.204  12.876 -0.0271 -0.2082 -0.0209
29546ION     NA48400   3.194   1.232   6.020 -0.1092  0.2509 -0.2019
29547ION     NA48401   0.333   9.118   6.263 -0.0709  0.1965 -0.1936
29548ION     NA48402  15.544   2.862  11.236  0.1614 -0.0455 -0.2151
29549ION     NA48403  14.079   0.632  11.277 -0.0471  0.0175 -0.0709
29550ION     NA48404  14.343  17.045   1.433 -0.2552  0.0027 -0.2613
29551ION     NA48405  12.260  16.067  13.719  0.2370  0.1323  0.0098
29552ION     NA48406   2.400   7.553   6.021 -0.0097 -0.1671  0.0429
29553ION     NA48407   9.085  13.640  12.867  0.2818 -0.1052 -0.0429
29554ION     NA48408   2.674   1.816  17.188  0.1512 -0.2033 -0.0898
29555ION     NA48409  17.024  13.081   0.667 -0.1103  0.0294 -0.0385
29556ION     NA48410  15.872   9.422  11.789  0.0235  0.2374 -0.0387
29557ION     NA48411   7.110   4.067   5.363  0.1415  0.1318 -0.0425
29558ION     NA48412   0.929  15.718   0.275  0.1609 -0.0001 -0.1396
29559ION     NA48413   1.958   2.503  17.341 -0.3245 -0.1936 -0.1226
29560ION     NA48414   1.172  10.517   3.934  0.1295 -0.1863 -0.1500
29561ION     NA48415  13.937   8.197  11.539 -0.3453 -0.1135 -0.2408
29562ION     NA48416   4.558  16.181  11.479 -0.0988  0.0923  0.3703
29563ION     NA48417  15.600  14.168  11.224  0.0498  0.1036 -0.0832
29564ION     NA48418   8.294   0.243   5.095  0.0422 -0.0388 -0.2908
29565ION     NA48419  16.020  15.021   6.047  0.0432  0.3756 -0.0424
29566ION     NA48420  14.161   4.235  15.690 -0.1369 -0.0109  0.0155
29567ION     NA48421  15.409   0.542  11.409 -0.0702 -0.2244  0.0192
29568ION     NA48422   4.771   6.871   1.703  0.1462  0.0504 -0.1523
29569ION     NA48423   2.825  10.812  11.557  0.0252 -0.1432 -0.0225
29570ION     NA48424  10.599  10.810  11.188 -0.2563  0.1748  0.0628
29571ION     NA48425  16.892   1.055  13.187  0.0048 -0.1098  0.0893
29572ION     NA48426   8.051   8.500   6.083  0.0174  0.0132  0.1804
29573ION     NA48427  15.975   5.305   6.111 -0.0960 -0.2160 -0.2272
29574ION     NA48428   2.699   1.237  11.619 -0.2310 -0.0106 -0.1601
29575ION     NA48429   5.310   2.240   6.277  0.1974 -0.0922  0.1401
29576ION     NA48430   5.023   9.345   5.900  0.0145  0.0561  0.1064
29577ION     NA48431   3.174  13.277   6.221 -0.3794  0.1602  0.2152
29578ION     NA48432   1.160  11.306   5.834  0.1812 -0.1158  0.1458
29579ION     NA48433  16.866   2.366   6.192 -0.0977 -0.0385  0.3915
29580ION     NA48434   2.688  16.897  11.473 -0.0498 -0.1679  0.1050
29581ION     NA48435  13.513  10.209   5.829 -0.4029  0.0980  0.1890
29582ION     NA48436   0.946   1.980   5.922 -0.0842 -0.1253 -0.1832
29583ION     NA48437  13.371  14.975  11.413 -0.1191  0.2816  0.0063
29584ION     NA48438  17.173  14.901  11.402  0.0818  0.2861  0.0667
29585ION     NA48439  12.492   8.568   6.130 -0.2257  0.3015  0.1386
29586ION     NA48440   6.392   3.211  11.508 -0.1692 -0.1444 -0.0372
29587ION     NA48441   5.562  13.004   6.215  0.1353  0.0222  0.0860
29588ION     NA48442  16.039   3.056   6.113  0.0491 -0.1571 -0.1974
29589ION     NA48443   4.678   7.784  11.608 -0.0234 -0.0216  0.0322
29590ION     NA48444   9.668  14.811   4.236 -0.0729 -0.0639 -0.1198
29591ION     NA48445   2.262   6.271  11.615  0.2594 -0.0363  0.1732
29592ION     NA48446   4.518   2.860   1.311  0.1538 -0.0201 -0.1478
29593ION     NA48447  13.866   7.481   5.000  0.0201  0.1468  0.1161
29594ION     NA48448   7.378  10.171  11.478 -0.1753 -0.2562 -0.1189
29595ION     NA48449   2.854  12.472   6.235 -0.0277 -0.3531  0.1822
29596ION     NA48450   4.426   3.623   6.334  0.1023  0.2768 -0.1125
29597ION     NA48451   8.913   2.877  14.316 -0.2766 -0.2737 -0.2010
29598ION     NA48452  13.196   2.846  11.542 -0.0573  0.0511 -0.0638
29599ION     NA48453  15.295   8.836  11.634 -0.4601 -0.0823  0.2041
29600ION     NA48454  12.479   3.700  11.524  0.0910  0.1780 -0.1193
29601ION     NA48455   1.142   9.785   6.064  0.2107 -0.2136 -0.1134
29602ION     NA48456  14.863  12.132   6.102  0.1874  0.0354  0.1691
29603ION     NA48457   5.679   7.140  11.421  0.2803 -0.5385 -0.3230
29604ION     NA48458   4.131   6.101   0.685  0.1777 -0.1439  0.1376
29605ION     NA48459   7.412   4.628   6.215  0.0877 -0.3495 -0.0849
29606ION     NA48460   8.039   9.954   5.825 -0.0089 -0.2898 -0.2830
29607ION     NA48461  13.926  11.490   0.556  0.1007  0.1983  0.0483
29608ION     NA48462  16.214   1.155  11.452 -0.1099 -0.1039  0.2202
29609ION     NA48463  14.985   5.876  11.312  0.4095 -0.3352  0.1121
29610ION     NA48464  13.774   7.649   6.081  0.0415  0.1084  0.0840
29611ION     NA48465   5.531   5.342   4.588 -0.2627 -0.1518  0.0851
29612ION     NA48466  13.979   1.712  11.333  0.1239 -0.3399  0.3195
29613ION     NA48467  12.737  12.181   0.551  0.0552 -0.2212  0.1789
29614ION     NA48468  12.232   8.978  14.678  0.2106  0.0892 -0.3083
29615ION     NA48469   3.071   6.890   6.270  0.0969  0.1472  0.0078
29616ION     NA48470   4.406   8.794   5.695 -0.0008 -0.1330  0.3016
29617ION     NA48471   2.067  12.486   6.039 -0.2828  0.2908 -0.5518
29618ION     NA48472   1.039  17.304  11.665 -0.1985  0.0810 -0.2092
29619ION     NA48473  10.369   1.944   6.046 -0.2285  0.3908 -0.3244
29620ION     NA48474   7.977  14.197  11.250  0.5230  0.2356  0.2410
29621ION     NA48475  14.514   1.861   5.808 -0.0322 -0.0181  0.1739
29622ION     NA48476   5.648   9.841   6.130 -0.1103  0.2051 -0.0162
29623ION     NA48477   8.023  12.865   5.953 -0.1597 -0.0457  0.1510
29624ION     NA48478   9.760  12.754  11.493  0.0841  0.0258 -0.0072
29625ION     NA48479   1.864  16.749   6.106  0.0962 -0.0045 -0.1128
29626ION     NA48480  14.855   7.570  16.412  0.1654 -0.2392  0.0635
29627ION     NA48481   3.912  14.486  11.413  0.0068 -0.2768 -0.2470
29628ION     NA48482  16.024  13.367  11.334  0.1959 -0.1280  0.1090
29629ION     NA48483  10.759   1.871  11.386  0.1776 -0.0469 -0.1830
29630ION     NA48484   4.713   5.162   4.804  0.0018 -0.2681  0.1200
29631ION     NA48485   5.569   0.403   6.424 -0.2608 -0.1494 -0.3087
29632ION     NA48486  16.325  16.670  14.823 -0.0041 -0.0801  0.1014
29633ION     NA48487   1.272  14.388  13.269  0.1854  0.0995  0.0325
29634ION     NA48488   2.969  14.884   5.909 -0.1243  0.0283 -0.1260
29635ION     NA48489  13.339   3.805   6.080 -0.0543 -0.1845 -0.0465
29636ION     NA48490   6.170   8.858   6.054  0.0413 -0.1720  0.0913
29637ION     NA48491   8.724   3.516   6.328  0.0119  0.0216 -0.0675
29638ION     NA48492   5.968  17.054   6.423 -0.0480 -0.0886 -0.0630
29639ION     NA48493   6.553   4.437   6.114  0.1619 -0.2858  0.0390
29640ION     NA48494   6.611   4.599   2.066 -0.1053 -0.0297  0.2792
29641ION     NA48495  12.489  13.733   5.850 -0.3267  0.0230  0.1505
29642ION     NA48496   0.581   2.547  11.229  0.0896  0.0888 -0.1112
29643ION     NA48497  12.561  16.289   2.718  0.3523  0.0391 -0.0153
29644ION     NA48498   0.745  10.460  11.690 -0.0437  0.4264 -0.5525
29645ION     NA48499   0.131  14.097  12.268 -0.0783 -0.0166  0.0066
29646ION     NA48500   9.744   5.556   6.079 -0.1794 -0.1636 -0.0508
29647ION     NA48501   1.534   4.913  11.291  0.0599  0.0361 -0.3265
29648ION     NA48502   4.017   1.593  11.493  0.0668  0.1451  0.1362
29649ION     NA48503   5.964   7.212   6.206 -0.0952  0.2136 -0.0540
29650ION     NA48504  13.859  16.141   5.878 -0.0010  0.1005 -0.1052
29651ION     NA48505   9.208  17.288   5.993 -0.1081 -0.2766 -0.4047
29652ION     NA48506   0.174   8.374   6.403  0.0818  0.1405  0.3923
29653ION     NA48507  16.584   4.375  12.843 -0.1397 -0.1794  0.2719
29654ION     NA48508   4.718   8.457   4.666 -0.0759 -0.3219 -0.0265
29655ION     NA48509  16.548  10.018  11.467  0.2151 -0.0442  0.0682
29656ION     NA48510   8.821   6.379   2.186 -0.3018  0.0756  0.3692
29657ION     NA48511   7.015   8.136  15.002  0.0059  0.0190  0.2671
29658ION     NA48512  14.146  10.155   1.317 -0.0171 -0.2746 -0.0162
29659ION     NA48513   6.662  13.938   5.997  0.0950  0.1200 -0.1196
29660ION     NA48514   6.103   8.963  11.310  0.0372 -0.0815 -0.0815
29661ION     NA48515   6.112  10.803  11.357 -0.0905 -0.0525  0.0902
29662ION     NA48516   7.177  12.771  11.113 -0.0973 -0.2665  0.0131
29663ION     NA48517   8.837  12.443  16.365  0.1644  0.0721 -0.1173
29664ION     NA48518   2.395  16.036   6.140  0.0575  0.1451 -0.1416
29665ION     NA48519   9.782  12.173   6.079 -0.2825 -0.2592  0.0201
29666ION     NA48520   3.760   7.384   6.254  0.1654  0.0864  0.0255
29667ION     NA48521  13.077  15.849   6.052  0.1805  0.0604 -0.0182
29668ION     NA48522   3.783  10.235   6.134 -0.1149  0.1236 -0.1712
29669ION     NA48523  14.392  16.377  12.458  0.0126  0.0302 -0.2200
29670ION     NA48524   4.730  14.717  11.348  0.0952  0.1426  0.0743
29671ION     NA48525   0.483   0.134  11.602  0.0006 -0.1866 -0.0784
29672ION     NA48526  15.571  10.265  11.483  0.2753 -0.1815  0.1320
29673ION     NA48527  14.289  12.750   6.210 -0.0017 -0.0246 -0.3583
29674ION     NA48528   3.662   0.777  11.462 -0.1168 -0.1665 -0.2824
29675ION     NA48529  17.049   6.050  11.624  0.2089  0.1807  0.1784
29676ION     NA48530  12.192   4.913  16.578 -0.1281 -0.0896  0.0151
29677ION     NA48531   7.656   8.278  15.988  0.0781  0.0529  0.1561
29678ION     NA48532   0.261   3.724   5.942  0.3866  0.2752 -0.0831
29679ION     NA48533  13.504   7.866  11.405  0.1762 -0.0154 -0.1553
29680ION     NA48534  14.332  16.905   5.599  0.0645 -0.0989  0.1246
29681ION     NA48535   0.846   0.334   3.987  0.0918  0.3253 -0.0164
29682ION     NA48536   2.000  14.892  11.451  0.0874 -0.1418  0.1301
29683ION     NA48537   4.516   1.766  13.866  0.0034  0.0137 -0.1243
29684ION     NA48538   7.221   8.293   6.190  0.0855  0.0902  0.1375
29685ION     NA48539   0.961  15.642   2.099 -0.1302 -0.1402  0.1137
29686ION     NA48540  17.045  15.976   6.090  0.0453  0.1286 -0.0451
29687ION     NA48541  12.893   9.236   4.868 -0.1475 -0.1713 -0.1560
29688ION     NA48542   0.135  16.623  11.467  0.2719 -0.1249 -0.0662
29689ION     NA48543  15.830  11.814   2.086 -0.0831 -0.2503 -0.1458
29690ION     NA48544   4.562  14.428   5.951 -0.0723 -0.2289 -0.1912
29691ION     NA48545   7.659  12.679  16.117  0.3181 -0.0668 -0.3434
29692ION     NA48546  11.835  15.735  11.294 -0.0213 -0.0330  0.2949
29693ION     NA48547   7.633   0.046   6.131 -0.0357  0.3511  0.1413
29694ION     NA48548  15.618  16.939  12.250 -0.0454 -0.3106  0.2212
29695ION     NA48549   3.918   0.855   6.317 -0.1764 -0.2132  0.0513
29696ION     NA48550  14.877  10.601  14.403  0.0341 -0.1092  0.0240
29697ION     NA48551  17.121   3.578  17.279 -0.2950  0.0790  0.0363
29698ION     NA48552   8.985  13.202   5.953 -0.2933  0.0088 -0.2891
29699ION     NA48553   7.601   5.468   6.410 -0.1813  0.0313 -0.0434
29700ION     NA48554  16.002   2.233   5.988  0.0853 -0.2470  0.1451
29701ION     NA48555  13.200  11.000  14.090 -0.0996  0.0387 -0.1474
29702ION     NA48556   8.945   2.053   5.793 -0.2366  0.2122  0.1009
29703ION     NA48557  13.809   1.860   6.061 -0.0749 -0.0202  0.0179
29704ION     NA48558   3.105  10.383  11.559  0.0749  0.0240 -0.0918
29705ION     NA48559  12.380   3.619   4.347  0.0459  0.2706 -0.3100
29706ION     NA48560  12.709   2.765   1.346  0.0652  0.0971 -0.1041
29707ION     NA48561  10.526   9.633   5.842  0.1170  0.3111  0.0283
29708ION     NA48562  13.812   0.782   0.211 -0.0347  0.0032  0.1913
29709ION     NA48563  13.084  16.235  12.049  0.1638 -0.1593  0.0838
29710ION     NA48564   5.077  15.910   6.108  0.2710 -0.2472 -0.0216
29711ION     NA48565   7.166  15.426  17.140 -0.0269 -0.1197 -0.0105
29712ION     NA48566   0.917   9.063   6.236  0.2987  0.1200  0.1721
29713ION     NA48567   5.155  16.436   1.840 -0.4440  0.2675  0.1945
29714ION     NA48568  10.900   6.821  16.892 -0.0596  0.1328  0.1628
29715ION     NA48569   0.799   6.136   6.339 -0.1435 -0.2382  0.2320
29716ION     NA48570   9.877   7.460   0.589  0.1765  0.2587  0.2292
29717ION     NA48571   0.616  11.324  11.424 -0.0514 -0.2287 -0.2057
29718ION     NA48572   6.674   9.572  11.237  0.1290 -0.4699 -0.1632
29719ION     NA48573  10.582   5.320   6.244  0.2140 -0.1051  0.1522
29720ION     NA48574   2.651   0.311  11.506 -0.0621  0.0144  0.0795
29721ION     NA48575   6.843  16.548   6.169  0.0144  0.3725 -0.0206
29722ION     NA48576  12.334   3.437  13.080  0.3054  0.0942  0.2104
29723ION     NA48577   3.200  13.149   1.615 -0.1639  0.0693 -0.2133
29724ION     NA48578   6.125   5.895   6.421 -0.0026  0.1072  0.2170
29725ION     NA48579   5.272   9.240  14.317  0.1344  0.0949  0.1291
29726ION     NA48580   1.865  13.610   6.203  0.2589 -0.0647 -0.1715
29727ION     NA48581   3.257  16.342   6.186  0.3652  0.0442  0.0717
29728ION     NA48582   1.583  15.908   5.577 -0.1446 -0.5787  0.1101
29729ION     NA48583  14.829   1.275  11.300  0.2849 -0.0378 -0.0165
29730ION     NA48584  11.143  15.213   4.277  0.1959  0.0978 -0.1710
29731ION     NA48585  11.360   9.391   5.967  0.0970 -0.3714 -0.2128
29732ION     NA48586  10.905  15.178   2.438  0.2453  0.0063 -0.4422
29733ION     NA48587  13.893   3.541  11.283 -0.1311 -0.0258  0.0991
29734ION     NA48588   6.698   0.422  11.474  0.3903  0.1166  0.0126
29735ION     NA48589  10.067   8.797  11.432 -0.0080  0.1311 -0.1641
29736ION     NA48590  14.215   1.087   6.037  0.1858  0.1522  0.2959
29737ION     NA48591  14.182  15.768  15.619 -0.1030  0.0053 -0.3629
29738ION     NA48592  11.363   3.136   6.059  0.1943 -0.0915  0.2024
29739ION     NA48593  14.739   7.221   6.146 -0.0726  0.1864 -0.0089
29740ION     NA48594  17.291   6.621   6.191 -0.0833  0.0066  0.2470
29741ION     NA48595   2.931  13.337  11.537 -0.5950 -0.1500  0.1265
29742ION     NA48596  15.857   3.574   5.962  0.1506  0.2079 -0.2013
29743ION     NA48597   8.331   0.818  11.561  0.0843 -0.0432 -0.1200
29744ION     NA48598  15.059  13.496   5.596 -0.4947  0.3107 -0.1566
29745ION     NA48599   8.220   9.878  11.488  0.3173  0.1556  0.3236
29746ION     NA48600   4.962  13.125  16.666  0.2260  0.2263  0.0492
29747ION     NA48601  17.156  10.522   6.110 -0.1697 -0.1358  0.0366
29748ION     NA48602   6.509  11.613   6.262  0.0795 -0.1745 -0.1665
29749ION     NA48603  16.064  14.441  11.924 -0.1547  0.3501 -0.3044
29750ION     NA48604  13.853   0.161  11.252 -0.0375 -0.0154 -0.0003
29751ION     NA48605  15.728   2.062   5.064 -0.1654  0.0766  0.0319
29752ION     NA48606  13.992  12.185  11.569  0.0539 -0.1874  0.0641
29753ION     NA48607  10.240   3.182   5.711 -0.2190  0.1617  0.4031
29754ION     NA48608  16.224   7.663   4.593 -0.1605  0.0126  0.0316
29755ION     NA48609   4.227  12.050   6.087 -0.1689 -0.0465  0.0771
29756ION     NA48610   9.905   4.053  11.647  0.1688 -0.1051  0.2372
29757ION     NA48611   8.683   6.941  11.673  0.1316  0.1842  0.0210
29758ION     NA48612   9.394  13.582  11.394  0.2899  0.1452  0.2467
29759ION     NA48613  12.172  13.665  14.314  0.0672  0.1464  0.0452
29760ION     NA48614   8.412   9.186   6.138 -0.0479  0.0287  0.1284
29761ION     NA48615   8.830   5.232  11.881 -0.0404  0.0273 -0.0093
29762ION     NA48616   3.963   2.585   5.995 -0.0740  0.1248  0.1499
29763ION     NA48617  10.715  14.763   6.088 -0.2053  0.0553  0.0032
29764ION     NA48618   0.390   5.603   6.104 -0.0175  0.2149  0.0194
29765ION     NA48619   9.886  15.157  11.441 -0.3323  0.0747  0.0084
29766ION     NA48620   3.968   7.764   3.933 -0.1399 -0.1027  0.1695
29767ION     NA48621  17.141   1.410  11.503 -0.2713  0.2458 -0.1542
29768ION     NA48622  13.386  12.972  12.113  0.3321 -0.1315 -0.0655
29769ION     NA48623   4.425  15.295  11.314  0.0219  0.1197  0.1108
29770ION     NA48624   2.065   7.310  11.494  0.0768  0.1450 -0.3026
29771ION     NA48625   7.846   6.767  11.594  0.0135 -0.0872 -0.0395
29772ION     NA48626   0.989  15.131   6.132 -0.1940  0.2797 -0.2322
29773ION     NA48627   9.499   3.811   3.163 -0.2016 -0.0259  0.1262
29774ION     NA48628   1.569  13.774  16.999 -0.0261  0.0938  0.0667
29775ION     NA48629   7.516  16.197   6.202  0.0511  0.0277 -0.1793
29776ION     NA48630   9.741   7.310  15.923 -0.0874 -0.0629  0.3241
29777ION     NA48631  11.035   6.102   6.096 -0.1898  0.3325 -0.1435
29778ION     NA48632   8.002   1.659   6.060 -0.1227 -0.0581  0.2257
29779ION     NA48633  11.711  10.040  11.437 -0.1786  0.1277 -0.0781
29780ION     NA48634   4.376   3.775   1.203  0.3223 -0.2450 -0.1423
29781ION     NA48635  12.457  11.322   6.288 -0.2645  0.1612 -0.0813
29782ION     NA48636   7.437  14.140   6.245 -0.0930  0.1374  0.1403
29783ION     NA48637   6.870  14.203   1.301 -0.2514 -0.0083  0.0376
29784ION     NA48638   6.078   7.944  11.263 -0.1461  0.0846 -0.0992
29785ION     NA48639  13.233   5.328   5.983 -0.0266  0.0349  0.2819
29786ION     NA48640   3.723  11.241   6.240 -0.4646 -0.0495  0.1641
29787ION     NA48641   1.541  10.547   6.093 -0.0174 -0.0570  0.2133
29788ION     NA48642   7.342  16.483  11.421  0.2313 -0.3714 -0.3024
29789ION     NA48643  14.068   2.642  11.315  0.0497  0.0780 -0.2187
29790ION     NA48644   0.428   4.857   6.023  0.1122  0.3652 -0.3339
29791ION     NA48645   3.013   5.299  15.691 -0.0295  0.3844 -0.0656
29792ION     NA48646  15.026   9.565   6.139 -0.1496 -0.0781 -0.0400
29793ION     NA48647  11.089   0.210  11.246  0.0691 -0.0233  0.1574
29794ION     NA48648   4.148   3.564   3.605 -0.0540 -0.0373  0.1054
29795ION     NA48649  10.117  11.998  11.396  0.0855 -0.0234 -0.0648
29796ION     NA48650  14.977   4.043   5.752  0.2426  0.1424  0.3265
29797ION     NA48651   0.838   2.142   2.691  0.2251 -0.0247  0.1047
29798ION     NA48652   8.124  10.305  12.230  0.2810  0.2802 -0.0466
29799ION     NA48653   1.972   7.924  12.373 -0.0487  0.0343 -0.0990
29800ION     NA48654   9.343   6.191   6.511  0.2780 -0.0473 -0.0241
29801ION     NA48655   1.420  15.079  11.740  0.0770  0.2382 -0.2795
29802ION     NA48656   7.278  11.454   6.231 -0.2008 -0.1072  0.0635
29803ION     NA48657   3.812  14.938   6.044 -0.3565 -0.1721 -0.0607
29804ION     NA48658  17.038   0.475   2.430  0.0046 -0.0513  0.1158
29805ION     NA48659  12.159   5.743  11.548 -0.0252  0.1828  0.2277
29806ION     NA48660   8.701   7.063  12.214 -0.1751 -0.1955 -0.0154
29807ION     NA48661   1.861  14.054  11.467 -0.0991 -0.1495  0.1730
29808ION     NA48662   6.189  13.255   5.756  0.1806 -0.0326 -0.1244
29809ION     NA48663  15.208  12.220  12.629  0.1947  0.0591  0.0361
29810ION     NA48664   8.895   8.433   6.249 -0.2123 -0.1760 -0.0190
29811ION     NA48665  15.509   7.949  11.602 -0.0822  0.0739 -0.1503
29812ION     NA48666  11.557  15.202   6.053  0.0774  0.0440 -0.1340
29813ION     NA48667  17.127  11.488   4.031  0.1663  0.0399 -0.1628
29814ION     NA48668  15.980   3.892   3.009 -0.0180 -0.0236  0.0365
29815ION     NA48669  16.736   9.272  11.724  0.0957 -0.1036 -0.2824
29816ION     NA48670  12.755   4.461   6.076 -0.2351 -0.1225 -0.2563
29817ION     NA48671  16.113   7.868   6.234  0.0853 -0.1396  0.0346
29818ION     NA48672   7.887   3.815   6.212  0.2571  0.0034 -0.0545
29819ION     NA48673   1.850   6.386  13.546  0.1795  0.0365 -0.0139
29820ION     NA48674   5.370  14.588   5.702  0.0582 -0.0904 -0.0787
29821ION     NA48675  11.774   7.383  11.629 -0.0308  0.0473  0.1662
29822ION     NA48676   7.066  12.808   4.217 -0.0441 -0.1136 -0.2761
29823ION     NA48677   0.753   4.301  13.380 -0.0643 -0.2242 -0.1166
29824ION     NA48678   9.264   6.770  17.450 -0.1574 -0.0326  0.1895
29825ION     NA48679   2.324  14.301   6.093  0.4564  0.1206 -0.2015
29826ION     NA48680  17.025   6.946   0.165 -0.0198  0.0199 -0.0682
29827ION     NA48681  14.098   3.759   6.149 -0.1481  0.1946  0.0949
29828ION     NA48682  13.309  14.289   4.004 -0.0688 -0.0676  0.3785
29829ION     NA48683  12.875   5.183  11.557 -0.3067 -0.0391 -0.0754
29830ION     NA48684   0.968  13.603   6.093  0.2556 -0.2662  0.0343
29831ION     NA48685  16.791  12.891   6.183  0.3503  0.0791  0.1847
29832ION     NA48686   0.870   6.895   6.069 -0.0177 -0.4137 -0.3343
29833ION     NA48687   0.940   7.331   3.785 -0.0693  0.0235 -0.0377
29834ION     NA48688  14.039  11.576  14.311 -0.0286  0.3499 -0.2421
29835ION     NA48689   7.556  11.307  11.205  0.2193 -0.0904 -0.0164
29836ION     NA48690  17.173   8.319   5.515 -0.0500  0.1152  0.0961
29837ION     NA48691   0.236  13.623  11.503 -0.0961  0.1877  0.1817
29838ION     NA48692   1.279  11.878  11.426 -0.1484 -0.2901 -0.3848
29839ION     NA48693   6.614   9.744   6.337 -0.0733  0.0925 -0.0845
29840ION     NA48694  15.989   4.510  12.085  0.2827 -0.0012  0.1359
29841ION     NA48695   9.852   6.826  11.958  0.1069  0.0938  0.0391
29842ION     NA48696  13.620   0.054  14.297 -0.0437 -0.0418  0.2086
29843ION     NA48697   2.492   1.882   5.875  0.3932 -0.1120 -0.2806
29844ION     NA48698  15.288  12.692  11.478 -0.0914 -0.1812 -0.3373
29845ION     NA48699   4.473  16.726   6.306 -0.1444 -0.1391  0.0317
29846ION     NA48700  16.524   2.765  11.340  0.1572  0.1861  0.1453
29847ION     NA48701  11.081  15.812  11.481  0.1428  0.2341  0.0514
29848ION     NA48702   7.586  13.657   6.134 -0.0717  0.0648 -0.0626
29849ION     NA48703   2.012  17.101  13.520 -0.0298 -0.0551  0.0741
29850ION     NA48704  11.409  15.782  15.904 -0.0823  0.1803  0.2184
29851ION     NA48705  14.638  16.807  11.505 -0.0769 -0.1210 -0.0549
29852ION     NA48706   4.027   6.262  11.457  0.0076 -0.2177  0.0696
29853ION     NA48707   9.319  15.005  11.431 -0.0250  0.0396 -0.3149
29854ION     NA48708   7.482   2.085  11.542 -0.1084 -0.1023  0.0080
29855ION     NA48709   1.208   7.621  11.828  0.0654 -0.1232  0.5428
29856ION     NA48710  12.501  16.044  11.100  0.1579 -0.2007 -0.1112
29857ION     NA48711   5.165   2.522  12.413  0.1538 -0.0382 -0.0698
29858ION     NA48712  12.210  12.582  11.929  0.1355 -0.0999 -0.2736
29859ION     NA48713   2.022   1.641  11.553  0.0784  0.0637  0.2239
29860ION     NA48714   3.935  15.915   4.599  0.1254 -0.0898 -0.0148
29861ION     NA48715  15.706   4.405   5.802  0.0241 -0.1402 -0.1974
29862ION     NA48716   5.966   2.529   0.910 -0.3235  0.0634 -0.0627
29863ION     NA48717  14.149   5.644  11.226  0.2343 -0.2830  0.1843
29864ION     NA48718   9.345   6.919  11.758  0.2375  0.3799  0.1043
29865ION     NA48719   3.403   2.120  13.549 -0.0189 -0.0188 -0.1458
29866ION     NA48720  17.248   7.231  13.765 -0.1815 -0.0875  0.3088
29867ION     NA48721  14.872   5.008  11.275  0.0987  0.1234  0.2045
29868ION     NA48722   9.605   3.839   6.354  0.0964 -0.1710  0.1217
29869ION     NA48723   5.670  12.000   6.200 -0.1866 -0.2183 -0.1892
29870ION     NA48724   3.195  11.917   1.458 -0.2289 -0.0581  0.1198
29871ION     NA48725  10.932   2.729  11.444  0.0928  0.1928 -0.0860
29872ION     NA48726   1.491   0.768   6.105 -0.1560 -0.1886 -0.0104
29873ION     NA48727  12.575   1.552  11.428 -0.1984  0.1308 -0.2807
29874ION     NA48728  14.158  12.914  11.517  0.1782  0.4167 -0.2835
29875ION     NA48729   2.082  11.328   6.085  0.0498 -0.2334  0.0843
29876ION     NA48730  11.785   2.366  11.454 -0.0078  0.1150  0.0746
29877ION     NA48731   9.266   9.007  11.348  0.0469  0.0658 -0.0341
29878ION     NA48732   0.704  10.533   6.071 -0.0367 -0.2131  0.0145
29879ION     NA48733   5.034  13.308  12.343  0.0256 -0.0003 -0.3735
29880ION     NA48734  10.426   9.067  17.140 -0.0367  0.1535  0.3333
29881ION     NA48735  12.592   7.763  13.781  0.2508  0.2162  0.1152
29882ION     NA48736   5.103  12.453  14.609 -0.0281  0.0344 -0.1842
29883ION     NA48737  10.828   7.062   5.288 -0.0279  0.0376  0.2225
29884ION     NA48738   3.789  12.622  11.510  0.1411  0.1589 -0.3120
29885ION     NA48739   9.770   4.102  12.460  0.2197  0.1022 -0.2756
29886ION     NA48740  13.374   3.408  11.398 -0.1358  0.1116  0.0381
29887ION     NA48741   6.766  15.652   5.835 -0.0317 -0.0026  0.0004
29888ION     NA48742   7.443   0.821   6.091  0.1499 -0.2751 -0.1109
29889ION     NA48743  13.400  13.391   6.089  0.1067 -0.2861 -0.1163
29890ION     NA48744   0.122   3.564  15.985  0.1848  0.0250 -0.0765
29891ION     NA48745   7.260   2.933  11.611 -0.1221  0.4612 -0.1072
29892ION     NA48746   8.412  16.555   6.200  0.0233 -0.1235 -0.0724
29893ION     NA48747  15.319   2.590   5.981  0.3471 -0.3462  0.0206
29894ION     NA48748   7.426   7.470  11.542  0.0713 -0.1320  0.0789
29895ION     NA48749   4.478  14.515  12.499 -0.0242 -0.0782  0.2605
29896ION     NA48750   1.960  15.208   6.089  0.1371 -0.1535  0.3518
29897ION     NA48751  10.579  12.723  12.179 -0.3107  0.1040 -0.0085
29898ION     NA48752   8.928   1.500  11.660  0.1265 -0.0515  0.0433
29899ION     NA48753   6.940  12.964   6.124  0.0405  0.0960 -0.0690
29900ION     NA48754  13.742  10.468  11.568  0.2230 -0.0401  0.0794
29901ION     NA48755   2.640  11.701  11.736 -0.1499  0.2029  0.1669
29902ION     NA48756   8.884   1.609   6.135 -0.0585  0.2738  0.3607
29903ION     NA48757   4.132  13.020   6.212 -0.1015  0.2565  0.0867
29904ION     NA48758   0.510  14.394   6.003  0.1693  0.0464  0.0123
29905ION     NA48759   5.404   1.155  11.533  0.1149 -0.1576 -0.2293
29906ION     NA48760   2.768  11.330   4.047  0.2918 -0.0491 -0.0980
29907ION     NA48761  13.534   6.218  14.480 -0.2707 -0.0817  0.6041
29908ION     NA48762   9.703   1.383   5.865  0.2968  0.1746  0.1917
29909ION     NA48763   5.825   5.011   6.316  0.3268  0.0836 -0.1204
29910ION     NA48764   6.642   2.229  11.644 -0.1029 -0.0676  0.0121
29911ION     NA48765   9.765   6.128   1.959  0.3261 -0.0388 -0.0504
29912ION     NA48766  12.874  10.540  11.557 -0.2260 -0.3138 -0.0690
29913ION     NA48767   1.701   7.871   6.163  0.0518 -0.4323 -0.0839
29914ION     NA48768   9.816   6.485   6.363  0.3341 -0.3157 -0.0045
29915ION     NA48769   5.033   4.942   0.423 -0.0094  0.2803 -0.1986
29916ION     NA48770   6.604  10.839   6.396  0.0409 -0.1380 -0.0777
29917ION     NA48771   2.169  12.578   5.058 -0.3672  0.1834 -0.3754
29918ION     NA48772   4.534   7.148  13.791  0.0216  0.0856  0.0495
29919ION     NA48773   8.158   4.193   6.416 -0.1126  0.1390  0.1857
29920ION     NA48774   7.754   5.914  11.775 -0.0159  0.3226 -0.0517
29921ION     NA48775  17.049   8.312  11.589 -0.1495 -0.1416 -0.1097
29922ION     NA48776   9.569   6.946   1.889  0.4487 -0.1860 -0.1456
29923ION     NA48777   4.200  11.832   3.980  0.0651  0.0541 -0.1087
29924ION     NA48778   4.433  13.088  11.286  0.1151  0.0027 -0.1295
29925ION     NA48779  13.104   4.219  11.342 -0.1680  0.3151 -0.0163
29926ION     NA48780  14.641   4.928   5.746  0.0994  0.0704 -0.3416
29927ION     NA48781  12.073   2.455   5.929 -0.1985  0.2463  0.0185
29928ION     NA48782   2.590   2.030  14.599  0.1148  0.0611  0.1375
29929ION     NA48783   1.506   4.204  11.383 -0.2251  0.1263 -0.0760
29930ION     NA48784  12.129  13.377  11.272 -0.0309 -0.2527 -0.1558
29931ION     NA48785  13.381  10.184  15.555  0.4338  0.2887 -0.1361
29932ION     NA48786  11.600   4.555  12.947 -0.0473 -0.1470 -0.1688
29933ION     NA48787  14.441  10.080  11.488 -0.3922  0.6063  0.1672
29934ION     NA48788  11.140  14.050   5.744  0.1152  0.2448  0.0883
29935ION     NA48789   5.916  13.957   1.093 -0.0500 -0.1404 -0.0899
29936ION     NA48790  11.006   8.640  11.441 -0.0127 -0.0946 -0.0416
29937ION     NA48791  10.717  12.501   5.886 -0.0916 -0.1981  0.2395
29938ION     NA48792  12.139   1.992  11.578  0.2455  0.3292  0.1748
29939ION     NA48793   1.776   2.502   5.977  0.0586 -0.0396  0.0406
29940ION     NA48794  12.442   9.521  16.736  0.1283  0.1666 -0.0418
29941ION     NA48795   9.264  16.466   6.079  0.0275 -0.2399  0.0155
29942ION     NA48796   2.531  10.444   1.347 -0.0042 -0.0559  0.2870
29943ION     NA48797   5.611  11.228   5.799 -0.0280 -0.2300  0.0917
29944ION     NA48798   9.061  10.710   0.575  0.3970  0.1871 -0.0802
29945ION     NA48799   5.004  12.471   5.646  0.1432 -0.4149 -0.0706
29946ION     NA48800  10.175   4.558   6.366  0.2957  0.2174  0.1029
29947ION     NA48801   8.649   5.043   6.290  0.3089  0.1328 -0.0367
29948ION     NA48802   6.983   5.377  11.565 -0.1156  0.0480  0.2254
29949ION     NA48803  15.402  15.730  11.165  0.1019  0.0047 -0.0562
29950ION     NA48804   9.659  12.479  16.173  0.2021  0.1110  0.0769
29951ION     NA48805   0.252  11.256   6.058 -0.2254  0.2159  0.3040
29952ION     NA48806  10.699  16.095   5.802 -0.2937 -0.0569 -0.3761
29953ION     NA48807  14.918   0.433  11.270  0.2910  0.1634 -0.0905
29954ION     NA48808   3.202   1.572  11.228  0.1513  0.0672  0.0243
29955ION     NA48809  13.000   7.608   4.871  0.1246  0.3263 -0.1659
29956ION     NA48810   1.602  16.637  15.258  0.0770  0.0154 -0.0534
29957ION     NA48811  13.167   6.910  11.490  0.0645  0.0081 -0.0602
29958ION     NA48812  12.056   8.000   0.541  0.0918 -0.2316  0.0917
29959ION     NA48813  11.107   9.901  11.460  0.2330  0.0646 -0.1296
29960ION     NA48814   1.314   8.489  11.528 -0.1860 -0.1845 -0.1781
29961ION     NA48815   6.617   7.596  11.601  0.1667  0.0945 -0.1593
29962ION     NA48816  11.174  14.967  11.240  0.2385 -0.3042 -0.0544
29963ION     NA48817   8.472   7.568   6.218 -0.3131  0.1514 -0.2581
29964ION     NA48818  11.789  13.704   5.684 -0.1340  0.1174 -0.2293
29965ION     NA48819  10.633   7.196   6.219 -0.0238 -0.1716 -0.1867
29966ION     NA48820  15.920   7.037   5.337  0.0236 -0.0591 -0.0505
29967ION     NA48821  13.638  14.074  11.381 -0.0946 -0.0994 -0.0446
29968ION     NA48822   3.903  13.674  12.337 -0.2867 -0.0047  0.1608
29969ION     NA48823  12.355   4.138  14.480 -0.2718  0.1531  0.0072
29970ION     NA48824  13.334   1.007  11.883 -0.3410 -0.0117 -0.1812
29971ION     NA48825   5.454   3.702  13.446  0.0523 -0.0801  0.2852
29972ION     NA48826  15.901   1.482   4.039 -0.4349 -0.0069 -0.1606
29973ION     NA48827   8.546   6.663   3.035  0.0926 -0.2424 -0.1863
29974ION     NA48828   8.116  14.471   5.941 -0.1824 -0.0943 -0.0506
29975ION     NA48829  12.613  13.792  13.443 -0.1588  0.1114  0.4391
29976ION     NA48830  11.187  11.436   0.658 -0.0359  0.0294  0.0922
29977ION     NA48831   8.818  16.403   3.736  0.1222 -0.2200 -0.0179
29978ION     NA48832  10.628  11.965   6.086 -0.0399  0.1226 -0.0374
29979ION     NA48833  12.653   9.707  11.477  0.3812  0.0698  0.0435
29980ION     NA48834  10.620   0.897  11.535 -0.0771  0.0439  0.1716
29981ION     NA48835  14.748   6.772  17.035  0.3401 -0.0510 -0.3009
29982ION     NA48836   5.766   3.181   6.160  0.4128  0.1280 -0.0199
29983ION     NA48837  10.131  16.645  11.526  0.1648  0.1090 -0.1228
29984ION     NA48838   8.072   2.338   5.993  0.0264  0.0324 -0.3168
29985ION     NA48839  15.451  12.862   5.773  0.0387  0.0394 -0.0081
29986ION     NA48840  12.945  11.171   6.241 -0.0154 -0.1266  0.0095
29987ION     NA48841   2.073  13.359  11.601  0.1539 -0.0884 -0.3700
29988ION     NA48842   0.478   8.037  11.744  0.0462  0.1557 -0.1804
29989ION     NA48843  11.907   5.149  15.155  0.0753 -0.2997 -0.3645
29990ION     NA48844  14.481  12.293  11.673  0.0045 -0.2286 -0.1764
29991ION     NA48845   1.772   7.846   4.770 -0.0849  0.1924  0.0940
29992ION     NA48846  11.848   8.255  11.450  0.3124  0.2220 -0.0914
29993ION     NA48847   5.229   8.512   6.006  0.3804 -0.1197 -0.0521
29994ION     NA48848   5.128  10.424   5.992  0.1955 -0.1762 -0.0006
29995ION     NA48849   4.643  10.266  11.422  0.1162 -0.1953  0.1462
29996ION     NA48850   3.813   6.886  11.629  0.0140  0.1973  0.0477
29997ION     NA48851  10.865  11.115   6.176  0.0823  0.1668  0.1379
29998ION     NA48852   0.886   3.459  11.429 -0.1499  0.1691 -0.0798
29999ION     NA48853  11.847   0.639   6.048 -0.1642  0.2978  0.0289
30000ION     NA48854   2.281   8.240  11.487 -0.2352  0.0542  0.0773
30001ION     NA48855  11.351  10.905  11.554  0.2250  0.0189  0.1641
30002ION     NA48856  13.469  12.180  11.669 -0.0109  0.2259  0.0802
30003ION     NA48857  16.641   3.781   3.574  0.1977  0.0513 -0.1284
30004ION     NA48858  11.861   9.963  11.895 -0.0314 -0.2872 -0.0077
30005ION     NA48859  15.573   4.585  11.342 -0.3989 -0.1823 -0.0331
30006ION     NA48860  14.985   0.644   5.929 -0.0213 -0.0099  0.0934
30007ION     NA48861   4.437   0.656  11.498  0.0614 -0.2491  0.2340
30008ION     NA48862  13.910   1.652  13.505 -0.0475 -0.1188  0.0482
30009ION     NA48863   7.856   2.357  17.022  0.0753  0.1212 -0.1681
30010ION     NA48864   1.898   2.462   5.037 -0.0789 -0.1819  0.1893
30011ION     NA48865   5.309   7.664   6.097  0.2933  0.0640 -0.0426
30012ION     NA48866   0.353  13.327   6.164  0.0518  0.3158 -0.2792
30013ION     NA48867  10.934   5.420  11.815  0.0964 -0.1895  0.2856
30014ION     NA48868   8.677   5.600   3.305 -0.0236 -0.1774 -0.1646
30015ION     NA48869   5.223   5.877   6.069  0.1482  0.1768 -0.1555
30016ION     NA48870  12.008   7.749   5.994 -0.3640 -0.1028 -0.1359
30017ION     NA48871   6.748   8.529  11.273 -0.0593  0.2919 -0.2422
30018ION     NA48872   9.790   1.325  11.386 -0.0605  0.0144  0.0929
30019ION     NA48873   5.518   1.755   5.962  0.1546  0.0068  0.1695
30020ION     NA48874   4.680   0.360   6.403 -0.3369 -0.4306 -0.1008
30021ION     NA48875  15.127  12.931  15.812 -0.0771  0.0471  0.2639
30022ION     NA48876   6.333  12.164  11.257  0.0384 -0.2267 -0.0682
30023ION     NA48877  15.259   8.016   6.261  0.0236 -0.1508  0.3348
30024ION     NA48878  12.003  16.794  11.249 -0.2191 -0.2679 -0.2010
30025ION     NA48879  15.522   1.789  11.248  0.0610 -0.2328  0.0856
30026ION     NA48880   0.593   6.201  11.352  0.1898  0.1758  0.1133
30027ION     NA48881   0.142   9.797   6.107  0.1647  0.0482  0.0062
30028ION     NA48882  13.530  15.245   2.346  0.1665 -0.0145  0.1607
30029ION     NA48883   3.322  14.621  14.218 -0.0964  0.1338 -0.2054
30030ION     NA48884  16.918  15.068  14.356  0.1230 -0.0408  0.0930
30031ION     NA48885  13.862   6.424  11.630  0.0474  0.1763 -0.1488
30032ION     NA48886   3.377  15.681   5.927  0.1744 -0.0593  0.0526
30033ION     NA48887  11.956  10.539   2.704 -0.0340 -0.1194 -0.3309
30034ION     NA48888   3.945  10.824  11.512 -0.0995 -0.0836  0.2724
30035ION     NA48889  14.246   9.437   6.093  0.1910  0.3219  0.0679
30036ION     NA48890  12.621  15.897   2.380 -0.2133 -0.3970 -0.1093
30037ION     NA48891  13.827   8.741   6.025 -0.1897 -0.1697 -0.0446
30038ION     NA48892   8.121   0.128   6.305 -0.0001  0.1658  0.0518
30039ION     NA48893   4.157   6.300  13.797  0.0515 -0.2463  0.0030
30040ION     NA48894   1.490  15.592  11.852  0.1274  0.0018 -0.0953
30041ION     NA48895   1.100   0.856  12.063  0.0229  0.0536 -0.2651
30042ION     NA48896   4.673   7.115   5.953 -0.1673  0.2649 -0.0521
30043ION     NA48897  12.720  11.520  11.603 -0.3233  0.0196 -0.0710
30044ION     NA48898   5.793  10.512   4.590  0.0997 -0.0633  0.1390
30045ION     NA48899  15.786  11.902  11.693 -0.2642 -0.1670 -0.0714
30046ION     NA48900  15.693  16.374   5.995  0.2947  0.0699 -0.0499
30047ION     NA48901   5.966  16.194   6.137 -0.0777  0.3826 -0.0418
30048ION     NA48902  14.210  13.745  17.205  0.2887  0.1303  0.1559
30049ION     NA48903  12.569   7.928  11.378 -0.0247  0.1626 -0.0806
30050ION     NA48904   1.906  16.052   4.513  0.2970 -0.1802 -0.2052
30051ION     NA48905   2.740  15.607  11.516  0.1040  0.1954 -0.0781
30052ION     NA48906   1.593  12.633  11.649  0.2236 -0.2244  0.0599
30053ION     NA48907   1.700   3.283  11.436  0.2456  0.0147 -0.0082
30054ION     NA48908   1.812   5.763   4.325  0.1680  0.1493  0.1905
30055ION     NA48909  12.129   4.136  11.892  0.1181  0.2808  0.2389
30056ION     NA48910   5.116  10.428  11.495  0.0788  0.0808 -0.0855
30057ION     NA48911   5.784   8.324  11.149  0.0262 -0.2206 -0.0177
30058ION     NA48912   7.041   4.942   5.368  0.0148  0.2270  0.0982
30059ION     NA48913   8.373   0.905   6.139 -0.1835  0.0560 -0.1967
30060ION     NA48914  16.232   7.295   1.868  0.1384  0.0664  0.1244
30061ION     NA48915  10.070   3.270  11.542  0.3400  0.2595  0.0151
30062ION     NA48916  14.782   6.631  11.445 -0.0727  0.1235  0.2217
30063ION     NA48917   4.067   5.148   6.146  0.1636  0.6403  0.0668
30064ION     NA48918   0.962   0.024   6.151  0.3569  0.0887  0.0917
30065ION     NA48919  13.935   5.375   6.109  0.0114 -0.1890  0.1902
30066ION     NA48920   0.622   0.212  17.309 -0.1282 -0.0537 -0.2996
30067ION     NA48921   2.641  14.322  11.290  0.0787  0.2276  0.3184
30068ION     NA48922  17.093  11.322  12.188 -0.4059  0.1814  0.2870
30069ION     NA48923   7.682   7.581   6.062  0.3157 -0.0268  0.1409
30070ION     NA48924   2.252   6.019   6.319 -0.0120  0.0376  0.0224
30071ION     NA48925  15.616  10.992  11.291  0.0977  0.1951  0.3267
30072ION     NA48926   5.904  17.069  11.409  0.2134 -0.3083  0.0794
30073ION     NA48927   1.039   4.225   6.024 -0.2989 -0.1807  0.0463
30074ION     NA48928   1.666   4.099   1.610 -0.1460  0.0249 -0.1586
30075ION     NA48929   3.599  11.841  11.494 -0.0341  0.2272  0.1562
30076ION     NA48930  10.028  13.283   5.995 -0.0001 -0.0924  0.1047
30077ION     NA48931   0.843  13.820   1.835  0.3728 -0.0799 -0.3641
30078ION     NA48932  16.267  16.065   1.919 -0.1432  0.0170  0.0106
30079ION     NA48933   2.785   8.016  11.565 -0.2213  0.1324 -0.0525
30080ION     NA48934   8.828   9.009   3.718  0.0293 -0.1670  0.2386
30081ION     NA48935   5.649  16.783  14.736  0.1083 -0.0855  0.3358
30082ION     NA48936   5.820   2.975  11.591  0.1291 -0.0279 -0.1224
30083ION     NA48937   8.453  10.749   0.823  0.1979  0.1148  0.1013
30084ION     NA48938  15.002   9.259  11.553  0.4332  0.0238 -0.4289
30085ION     NA48939  10.330  16.901   1.708 -0.0812  0.3997  0.0684
30086ION     NA48940   0.318  16.712   5.992 -0.0005  0.6219  0.2245
30087ION     NA48941  16.595   6.470  11.561  0.1327  0.0481  0.3739
30088ION     NA48942   5.870   5.502  11.370  0.1603 -0.0407 -0.1048
30089ION     NA48943  15.296  15.566  12.179  0.2134  0.0596 -0.4443
30090ION     NA48944   4.889  13.801   4.823 -0.0728 -0.1192 -0.2315
30091ION     NA48945  13.125   2.255  11.237 -0.1249  0.0022  0.0843
30092ION     NA48946   1.978   4.094   2.744  0.2330  0.1037  0.0648
30093ION     NA48947  10.007  11.293   6.268  0.0454 -0.1510 -0.0460
30094ION     NA48948   0.623  14.499  15.173  0.0816 -0.1404 -0.5545
30095ION     NA48949  11.436   6.964   5.922  0.1193  0.0911 -0.1869
30096ION     NA48950   7.756  12.871  17.058  0.0883 -0.3324 -0.0227
30097ION     NA48951   4.976   5.426  11.601 -0.2255 -0.1535 -0.0945
30098ION     NA48952  10.728   3.112  15.643  0.0724 -0.1355  0.1638
30099ION     NA48953  11.268   1.550  11.448  0.1318 -0.0369  0.1371
30100ION     NA48954  12.275   6.820  11.584  0.0330 -0.2306 -0.1751
30101ION     NA48955   8.372  13.408  11.430 -0.1579 -0.1624  0.1234
30102ION     NA48956   3.459  15.839  16.038 -0.0768  0.0154 -0.0501
30103ION     NA48957  15.687   6.516  11.586  0.0868  0.0237  0.0446
30104ION     NA48958   6.201   9.870   4.273  0.1351 -0.1680 -0.0185
30105ION     NA48959   8.454  16.969   2.511 -0.0221 -0.0492  0.0231
30106ION     NA48960   6.403   1.318  11.404 -0.2229  0.2845 -0.0803
30107ION     NA48961   1.260   1.812   2.203  0.2589 -0.1948  0.1765
30108ION     NA48962   7.443   1.481   6.030 -0.0308 -0.0477  0.4347
30109ION     NA48963  17.161  11.276  11.296  0.0356  0.1331  0.2364
30110ION     NA48964   2.519  11.710  16.938 -0.0500 -0.0439  0.1584
30111ION     NA48965  15.400  14.305   4.537  0.1536  0.2027 -0.0605
30112ION     NA48966   9.543   5.258  11.929 -0.0091  0.0867  0.0145
30113ION     NA48967  11.333   8.558   6.148 -0.1920 -0.0267  0.0659
30114ION     NA48968  17.299   0.827  11.617  0.1470 -0.4295  0.0122
30115ION     NA48969   7.160   2.222   5.982 -0.1191  0.2619  0.1397
30116ION     NA48970   7.848   6.842   6.071 -0.0934 -0.0352  0.0666
30117ION     NA48971   6.742   9.460  16.136 -0.3554  0.1638 -0.0930
30118ION     NA48972  11.929  15.684   4.681 -0.1312 -0.2218 -0.1969
30119ION     NA48973   8.332   8.717  11.566 -0.3975 -0.1328 -0.2106
30120ION     NA48974  12.940   9.368   6.079  0.1534  0.0917 -0.1388
30121ION     NA48975   2.252   5.130   6.154 -0.2094 -0.1010 -0.2193
30122ION     NA48976  13.549  11.249  11.681 -0.0342  0.2840 -0.0667
30123ION     NA48977   6.362   8.723   3.734 -0.0817  0.0192  0.1884
30124ION     NA48978   3.921   3.008  11.701  0.0105  0.0119  0.2852
30125ION     NA48979   8.694  11.328  11.300  0.2096  0.0045 -0.5444
30126ION     NA48980  13.000   8.230   6.122 -0.2383 -0.4217 -0.2966
30127ION     NA48981  11.268   4.457  11.917 -0.2340  0.3576 -0.0898
30128ION     NA48982   6.909   7.142   0.254 -0.0829  0.1359 -0.1238
30129ION     NA48983   8.904  12.039  11.272 -0.0924 -0.0256 -0.1742
30130ION     NA48984   1.892   0.254  11.534 -0.0606 -0.2883 -0.0828
30131ION     NA48985   6.891  11.729  14.814  0.0894  0.1816 -0.1311
30132ION     NA48986  12.756  11.075   3.311 -0.3172 -0.1923 -0.0427
30133ION     NA48987  16.121  12.875  12.876 -0.0967  0.1126 -0.2620
30134ION     NA48988   2.074   4.221  16.916 -0.0741 -0.0733  0.0789
30135ION     NA48989  11.756   9.531   6.191  0.0627  0.1370  0.0173
30136ION     NA48990  11.614  12.622   5.925 -0.0880  0.1911  0.0395
30137ION     NA48991   3.652   9.012  11.530  0.2118 -0.0685  0.0394
30138ION     NA48992  13.286   1.158   6.046  0.1523 -0.2567  0.0965
30139ION     NA48993   3.455   1.648   6.051 -0.1900  0.0738 -0.2261
30140ION     NA48994  15.131   2.980  12.616 -0.0728 -0.0207  0.0513
30141ION     NA48995   4.904  13.468   6.182  0.1679  0.1329  0.4555
30142ION     NA48996  15.530   7.263   6.381 -0.1698  0.3045  0.0252
30143ION     NA48997  10.704   6.882  11.722 -0.1799  0.3356 -0.0665
30144ION     NA48998   3.857   9.896  11.528  0.1110  0.0167 -0.0790
30145ION     NA48999  12.861  16.027  16.175  0.0731  0.1170 -0.0334
30146ION     NA49000   3.129   3.972  11.495  0.0596  0.1206  0.4304
30147ION     NA49001   6.692  11.459  11.267 -0.1358 -0.0179 -0.2047
30148ION     NA49002  15.233   6.477   6.161  0.0886 -0.1610  0.2710
30149ION     NA49003  12.937   2.047   5.903 -0.0003 -0.3747 -0.0765
30150ION     NA49004   8.819  14.519   0.915 -0.0529  0.0540 -0.1051
30151ION     NA49005  15.421   3.622  11.531 -0.0097  0.0062 -0.3124
30152ION     NA49006   6.983  15.619  11.537 -0.2069 -0.0908 -0.0307
30153ION     NA49007  14.757   2.247  12.817  0.1009  0.0571 -0.0665
30154ION     NA49008   7.712   1.484   4.242  0.0099 -0.0139 -0.0833
30155ION     NA49009  10.099  14.123   5.912 -0.1447  0.0825  0.0567
30156ION     NA49010   0.910  16.398  11.601 -0.1722  0.1925 -0.1577
30157ION     NA49011  10.221   7.366   6.414 -0.0297  0.4319 -0.1225
30158ION     NA49012   1.993  15.179  14.809  0.1439 -0.0860  0.0639
30159ION     NA49013   5.836   9.238  17.025 -0.0435  0.3403  0.0232
30160ION     NA49014   3.737   9.229   6.209 -0.0508 -0.1893 -0.1188
30161ION     NA49015  12.294  14.242  11.247 -0.1771 -0.1980  0.0809
30162ION     NA49016   8.822   7.835  11.826 -0.2424  0.1159 -0.0166
30163ION     NA49017   3.391  10.545   6.076 -0.0418  0.0955  0.0616
30164ION     NA49018   7.705  17.236  11.591  0.0207  0.1078 -0.0532
30165ION     NA49019   6.043   3.523   1.839  0.0106  0.0942  0.0292
  17.34537  17.34537  17.46728
